<event>
 8    1  0.1865596E-007  0.1356464E+03  0.7546771E-02  0.1219311E+00
         -5   -1    0    0    0  501 -0.00000000000E+00  0.00000000000E+00  0.17025845566E+03  0.17032331527E+03  0.47000000000E+01 0.  1.
          5   -1    0    0  501    0  0.00000000000E+00 -0.00000000000E+00 -0.11100983343E+03  0.11110928457E+03  0.47000000000E+01 0.  1.
         25    2    1    2    0    0  0.50829301848E+02  0.13818969789E+02  0.62104205121E+01  0.13578576369E+03  0.12499848977E+03 0.  0.
         25    2    1    2    0    0 -0.50829301848E+02 -0.13818969789E+02  0.53038201720E+02  0.14564683616E+03  0.12500147275E+03 0.  0.
          5    1    4    4  502    0  0.63583614896E+01 -0.15508535068E+02  0.80251492055E+02  0.82117814132E+02  0.47000000000E+01 0. -1.
         -5    1    4    4    0  502 -0.57187663338E+02  0.16895652792E+01 -0.27213290334E+02  0.63529022027E+02  0.47000000000E+01 0. -1.
          5    1    3    3  503    0  0.76271131406E+02 -0.30349904311E+02 -0.81388622956E+01  0.82624047693E+02  0.47000000000E+01 0. -1.
         -5    1    3    3    0  503 -0.25441829558E+02  0.44168874100E+02  0.14349282808E+02  0.53161715995E+02  0.47000000000E+01 0. -1.
<mgrwt>
<rscale>  0 0.13564573E+03</rscale>
<asrwt>0</asrwt>
<pdfrwt beam="2">  1        5 0.17091075E-01 0.13564642E+03</pdfrwt>
<pdfrwt beam="1">  1       -5 0.26206248E-01 0.13564642E+03</pdfrwt>
<totfact> 0.31120080E+02</totfact>
</mgrwt>
</event>
<event>
 8    1  0.1865596E-007  0.2029290E+03  0.7546771E-02  0.1147292E+00
         -5   -1    0    0    0  501 -0.00000000000E+00  0.00000000000E+00  0.58656010958E+02  0.58844010923E+02  0.47000000000E+01 0.  1.
          5   -1    0    0  501    0  0.00000000000E+00 -0.00000000000E+00 -0.70920189645E+03  0.70921747013E+03  0.47000000000E+01 0.  1.
         25    2    1    2    0    0  0.43164172024E+02 -0.15392067232E+03 -0.28331850394E+03  0.34849613938E+03  0.12500186147E+03 0.  0.
         25    2    1    2    0    0 -0.43164172024E+02  0.15392067232E+03 -0.36722738155E+03  0.41956534168E+03  0.12499762821E+03 0.  0.
          5    1    4    4  502    0 -0.12626521970E+02  0.15912165729E+03 -0.34777475254E+03  0.38268590172E+03  0.47000000000E+01 0. -1.
         -5    1    4    4    0  502 -0.30537650054E+02 -0.52009849679E+01 -0.19452629015E+02  0.36879439950E+02  0.47000000000E+01 0. -1.
          5    1    3    3  503    0  0.77597773095E+02 -0.49542200829E+02 -0.14399710432E+03  0.17097689933E+03  0.47000000000E+01 0. -1.
         -5    1    3    3    0  503 -0.34433601071E+02 -0.10437847149E+03 -0.13932139962E+03  0.17751924004E+03  0.47000000000E+01 0. -1.
<mgrwt>
<rscale>  0 0.20292836E+03</rscale>
<asrwt>0</asrwt>
<pdfrwt beam="2">  1        5 0.10912364E+00 0.20292901E+03</pdfrwt>
<pdfrwt beam="1">  1       -5 0.90396617E-02 0.20292901E+03</pdfrwt>
<totfact> 0.49433171E+01</totfact>
</mgrwt>
</event>
<event>
 8    1  0.1865596E-007  0.1272882E+03  0.7546771E-02  0.1231548E+00
          5   -1    0    0  501    0  0.00000000000E+00  0.00000000000E+00  0.63909595132E+02  0.64082184341E+02  0.47000000000E+01 0.  1.
         -5   -1    0    0    0  501 -0.00000000000E+00 -0.00000000000E+00 -0.40718444409E+03  0.40721156848E+03  0.47000000000E+01 0.  1.
         25    2    1    2    0    0 -0.25033061957E+01 -0.23877993847E+02 -0.31665837165E+03  0.34128407671E+03  0.12500348615E+03 0.  0.
         25    2    1    2    0    0  0.25033061957E+01  0.23877993847E+02 -0.26616477311E+02  0.13000967612E+03  0.12497061210E+03 0.  0.
          5    1    3    3  502    0 -0.63707211556E+01 -0.70330210786E+02 -0.12176971584E+03  0.14084345328E+03  0.47000000000E+01 0. -1.
         -5    1    3    3    0  502  0.38674149599E+01  0.46452216939E+02 -0.19488865581E+03  0.20044062343E+03  0.47000000000E+01 0. -1.
          5    1    4    4  503    0 -0.30600873706E+02 -0.35186483207E+02  0.16399826223E+02  0.49654268419E+02  0.47000000000E+01 0. -1.
         -5    1    4    4    0  503  0.33104179902E+02  0.59064477054E+02 -0.43016303533E+02  0.80355407698E+02  0.47000000000E+01 0. -1.
<mgrwt>
<rscale>  0 0.12728017E+03</rscale>
<asrwt>0</asrwt>
<pdfrwt beam="1">  1        5 0.98476082E-02 0.12728824E+03</pdfrwt>
<pdfrwt beam="2">  1       -5 0.62659122E-01 0.12728824E+03</pdfrwt>
<totfact> 0.13598325E+02</totfact>
</mgrwt>
</event>
<event>
 8    1  0.1865596E-007  0.1386384E+03  0.7546771E-02  0.1215174E+00
          5   -1    0    0  501    0  0.00000000000E+00  0.00000000000E+00  0.17865997407E+02  0.18473869745E+02  0.47000000000E+01 0.  1.
         -5   -1    0    0    0  501 -0.00000000000E+00 -0.00000000000E+00 -0.12254401442E+04  0.12254491572E+04  0.47000000000E+01 0.  1.
         25    2    1    2    0    0  0.19186469932E+02 -0.56815379180E+02 -0.83420198347E+03  0.84564387704E+03  0.12499803844E+03 0.  0.
         25    2    1    2    0    0 -0.19186469932E+02  0.56815379180E+02 -0.37337216330E+03  0.39827914994E+03  0.12499360386E+03 0.  0.
          5    1    4    4  502    0 -0.33727898381E+02 -0.16910492228E+02 -0.25616770194E+03  0.25897397050E+03  0.47000000000E+01 0.  1.
         -5    1    4    4    0  502  0.14541428448E+02  0.73725871408E+02 -0.11720446136E+03  0.13930517944E+03  0.47000000000E+01 0.  1.
          5    1    3    3  503    0 -0.49965443184E+02 -0.24668017435E+02 -0.23352171246E+03  0.24012400294E+03  0.47000000000E+01 0.  1.
         -5    1    3    3    0  503  0.69151913116E+02 -0.32147361745E+02 -0.60068027101E+03  0.60551987411E+03  0.47000000000E+01 0.  1.
<mgrwt>
<rscale>  0 0.13863744E+03</rscale>
<asrwt>0</asrwt>
<pdfrwt beam="1">  1        5 0.27960687E-02 0.13863844E+03</pdfrwt>
<pdfrwt beam="2">  1       -5 0.18857664E+00 0.13863844E+03</pdfrwt>
<totfact> 0.71276759E+01</totfact>
</mgrwt>
</event>
<event>
 8    1  0.1865596E-007  0.1461589E+03  0.7546771E-02  0.1205275E+00
         -5   -1    0    0    0  501 -0.00000000000E+00  0.00000000000E+00  0.22544113714E+03  0.22549012465E+03  0.47000000000E+01 0. -1.
          5   -1    0    0  501    0  0.00000000000E+00 -0.00000000000E+00 -0.13592701312E+03  0.13600824569E+03  0.47000000000E+01 0. -1.
         25    2    1    2    0    0  0.32187306506E+02  0.68556354822E+02  0.14432116737E+03  0.20540150826E+03  0.12500073503E+03 0.  0.
         25    2    1    2    0    0 -0.32187306506E+02 -0.68556354822E+02 -0.54807043351E+02  0.15609686207E+03  0.12500568732E+03 0.  0.
          5    1    3    3  502    0  0.69038160581E+02  0.27207129454E+02  0.33773432621E+02  0.81665355326E+02  0.47000000000E+01 0.  1.
         -5    1    3    3    0  502 -0.36850854075E+02  0.41349225369E+02  0.11054773475E+03  0.12373615294E+03  0.47000000000E+01 0.  1.
          5    1    4    4  503    0  0.15790198473E+02 -0.91915315537E+01 -0.74727396642E+02  0.77071969152E+02  0.47000000000E+01 0.  1.
         -5    1    4    4    0  503 -0.47977504979E+02 -0.59364823269E+02  0.19920353291E+02  0.79024892920E+02  0.47000000000E+01 0.  1.
<mgrwt>
<rscale>  0 0.14615782E+03</rscale>
<asrwt>0</asrwt>
<pdfrwt beam="2">  1        5 0.20921865E-01 0.14615888E+03</pdfrwt>
<pdfrwt beam="1">  1       -5 0.34693268E-01 0.14615888E+03</pdfrwt>
<totfact> 0.12632082E+02</totfact>
</mgrwt>
</event>
<event>
 8    1  0.1865596E-007  0.1272575E+03  0.7546771E-02  0.1231586E+00
         -5   -1    0    0    0  501 -0.00000000000E+00  0.00000000000E+00  0.44204317505E+03  0.44206816059E+03  0.47000000000E+01 0.  1.
          5   -1    0    0  501    0  0.00000000000E+00 -0.00000000000E+00 -0.41829376837E+02  0.42092597527E+02  0.47000000000E+01 0.  1.
         25    2    1    2    0    0  0.19465765740E+02  0.13758811446E+02  0.28655918784E+03  0.31354528319E+03  0.12500502209E+03 0.  0.
         25    2    1    2    0    0 -0.19465765740E+02 -0.13758811446E+02  0.11365461037E+03  0.17061547493E+03  0.12499619553E+03 0.  0.
          5    1    3    3  502    0 -0.24273460057E+02  0.30436605791E+02  0.22258636872E+02  0.45090184637E+02  0.47000000000E+01 0. -1.
         -5    1    3    3    0  502  0.43739225796E+02 -0.16677794345E+02  0.26430055097E+03  0.26845509855E+03  0.47000000000E+01 0. -1.
          5    1    4    4  503    0  0.53271477080E+02 -0.62150409932E+01  0.51997260982E+02  0.74848394468E+02  0.47000000000E+01 0.  1.
         -5    1    4    4    0  503 -0.72737242820E+02 -0.75437704532E+01  0.61657349390E+02  0.95767080458E+02  0.47000000000E+01 0.  1.
<mgrwt>
<rscale>  0 0.12725535E+03</rscale>
<asrwt>0</asrwt>
<pdfrwt beam="2">  1        5 0.64574583E-02 0.12725752E+03</pdfrwt>
<pdfrwt beam="1">  1       -5 0.68028814E-01 0.12725752E+03</pdfrwt>
<totfact> 0.23336081E+02</totfact>
</mgrwt>
</event>
<event>
 8    1  0.1865596E-007  0.1306704E+03  0.7546771E-02  0.1226482E+00
         -5   -1    0    0    0  501 -0.00000000000E+00  0.00000000000E+00  0.10517282094E+03  0.10527778619E+03  0.47000000000E+01 0. -1.
          5   -1    0    0  501    0  0.00000000000E+00 -0.00000000000E+00 -0.17013362096E+03  0.17019852814E+03  0.47000000000E+01 0. -1.
         25    2    1    2    0    0  0.19149760341E+02 -0.32886423130E+02 -0.25119783696E+01  0.13069455240E+03  0.12500610323E+03 0.  0.
         25    2    1    2    0    0 -0.19149760341E+02  0.32886423130E+02 -0.62448821648E+02  0.14478176192E+03  0.12495468424E+03 0.  0.
          5    1    3    3  502    0 -0.97967638932E+01  0.16637173161E+02 -0.51445251492E+02  0.55149578554E+02  0.47000000000E+01 0.  1.
         -5    1    3    3    0  502  0.28946524235E+02 -0.49523596290E+02  0.48933273123E+02  0.75544973845E+02  0.47000000000E+01 0.  1.
          5    1    4    4  503    0 -0.55689194785E+02  0.78363716540E+01 -0.79145969394E+02  0.97205296193E+02  0.47000000000E+01 0. -1.
         -5    1    4    4    0  503  0.36539434444E+02  0.25050051476E+02  0.16697147746E+02  0.47576465729E+02  0.47000000000E+01 0. -1.
<mgrwt>
<rscale>  0 0.13065811E+03</rscale>
<asrwt>0</asrwt>
<pdfrwt beam="2">  1        5 0.26187470E-01 0.13067041E+03</pdfrwt>
<pdfrwt beam="1">  1       -5 0.16193501E-01 0.13067041E+03</pdfrwt>
<totfact> 0.33942015E+02</totfact>
</mgrwt>
</event>
<event>
 8    1  0.1865596E-007  0.1497445E+03  0.7546771E-02  0.1200788E+00
         -5   -1    0    0    0  501 -0.00000000000E+00  0.00000000000E+00  0.11599778127E+03  0.11609295956E+03  0.47000000000E+01 0.  1.
          5   -1    0    0  501    0  0.00000000000E+00 -0.00000000000E+00 -0.19314119797E+03  0.19319837565E+03  0.47000000000E+01 0.  1.
         25    2    1    2    0    0  0.65491039458E+02 -0.50097782811E+02 -0.36446036491E+02  0.15411505253E+03  0.12499708696E+03 0.  0.
         25    2    1    2    0    0 -0.65491039458E+02  0.50097782811E+02 -0.40697380209E+02  0.15517628269E+03  0.12499815143E+03 0.  0.
          5    1    4    4  502    0 -0.45901745106E+02  0.22415315174E+02 -0.84943186024E+02  0.99231302572E+02  0.47000000000E+01 0. -1.
         -5    1    4    4    0  502 -0.19589294351E+02  0.27682467638E+02  0.44245805815E+02  0.55944980113E+02  0.47000000000E+01 0. -1.
          5    1    3    3  503    0  0.83636477193E+02 -0.39791158104E+02  0.19018229554E+02  0.94668789133E+02  0.47000000000E+01 0. -1.
         -5    1    3    3    0  503 -0.18145437736E+02 -0.10306624708E+02 -0.55464266045E+02  0.59446263393E+02  0.47000000000E+01 0. -1.
<mgrwt>
<rscale>  0 0.14974423E+03</rscale>
<asrwt>0</asrwt>
<pdfrwt beam="2">  1        5 0.29725750E-01 0.14974446E+03</pdfrwt>
<pdfrwt beam="1">  1       -5 0.17857532E-01 0.14974446E+03</pdfrwt>
<totfact> 0.23231740E+02</totfact>
</mgrwt>
</event>
<event>
 8    1  0.1865596E-007  0.2111813E+03  0.7546771E-02  0.1140635E+00
          5   -1    0    0  501    0  0.00000000000E+00  0.00000000000E+00  0.13202155767E+03  0.13210519176E+03  0.47000000000E+01 0.  1.
         -5   -1    0    0    0  501 -0.00000000000E+00 -0.00000000000E+00 -0.40603141513E+03  0.40605861655E+03  0.47000000000E+01 0.  1.
         25    2    1    2    0    0 -0.36691153789E+02  0.16621376296E+03 -0.24746380726E+03  0.32532058296E+03  0.12498755949E+03 0.  0.
         25    2    1    2    0    0  0.36691153789E+02 -0.16621376296E+03 -0.26546050204E+02  0.21284322535E+03  0.12499716010E+03 0.  0.
          5    1    3    3  502    0  0.37792933982E+01  0.12854280622E+03 -0.23578557448E+03  0.26861582832E+03  0.47000000000E+01 0. -1.
         -5    1    3    3    0  502 -0.40470447187E+02  0.37670956745E+02 -0.11678232777E+02  0.56704754637E+02  0.47000000000E+01 0. -1.
          5    1    4    4  503    0  0.38979224259E+01 -0.11377532293E+02  0.39292736134E+02  0.41360018777E+02  0.47000000000E+01 0.  1.
         -5    1    4    4    0  503  0.32793231363E+02 -0.15483623067E+03 -0.65838786338E+02  0.17148320657E+03  0.47000000000E+01 0.  1.
<mgrwt>
<rscale>  0 0.21117989E+03</rscale>
<asrwt>0</asrwt>
<pdfrwt beam="1">  1        5 0.20319535E-01 0.21118131E+03</pdfrwt>
<pdfrwt beam="2">  1       -5 0.62474897E-01 0.21118131E+03</pdfrwt>
<totfact> 0.42940667E+01</totfact>
</mgrwt>
</event>
<event>
 8    1  0.1865596E-007  0.1468403E+03  0.7546771E-02  0.1204413E+00
         -5   -1    0    0    0  501 -0.00000000000E+00  0.00000000000E+00  0.18430259783E+02  0.19020107142E+02  0.47000000000E+01 0.  1.
          5   -1    0    0  501    0  0.00000000000E+00 -0.00000000000E+00 -0.11567564694E+04  0.11567660176E+04  0.47000000000E+01 0.  1.
         25    2    1    2    0    0  0.31078292524E+02  0.70506890104E+02 -0.61114649421E+03  0.62853799727E+03  0.12499157893E+03 0.  0.
         25    2    1    2    0    0 -0.31078292524E+02 -0.70506890104E+02 -0.52717971537E+03  0.54724812745E+03  0.12499991553E+03 0.  0.
          5    1    3    3  502    0 -0.33582943238E+02  0.58865841177E+00 -0.32840325322E+03  0.33014988614E+03  0.47000000000E+01 0. -1.
         -5    1    3    3    0  502  0.64661235762E+02  0.69918231693E+02 -0.28274324100E+03  0.29838811113E+03  0.47000000000E+01 0. -1.
          5    1    4    4  503    0  0.13596754421E+02  0.31904503115E+02 -0.12864268462E+03  0.13331841342E+03  0.47000000000E+01 0.  1.
         -5    1    4    4    0  503 -0.44675046945E+02 -0.10241139322E+03 -0.39853703075E+03  0.41392971404E+03  0.47000000000E+01 0.  1.
<mgrwt>
<rscale>  0 0.14683848E+03</rscale>
<asrwt>0</asrwt>
<pdfrwt beam="2">  1        5 0.17800859E+00 0.14684026E+03</pdfrwt>
<pdfrwt beam="1">  1       -5 0.28815328E-02 0.14684026E+03</pdfrwt>
<totfact> 0.81970047E+01</totfact>
</mgrwt>
</event>
<event>
 8    1  0.1865596E-007  0.1322590E+03  0.7546771E-02  0.1224143E+00
         -5   -1    0    0    0  501 -0.00000000000E+00  0.00000000000E+00  0.53082090007E+03  0.53084170706E+03  0.47000000000E+01 0.  1.
          5   -1    0    0  501    0  0.00000000000E+00 -0.00000000000E+00 -0.32949657700E+02  0.33283178071E+02  0.47000000000E+01 0.  1.
         25    2    1    2    0    0  0.27535691271E+02  0.33286861840E+02  0.27002403497E+03  0.30067321124E+03  0.12500068413E+03 0.  0.
         25    2    1    2    0    0 -0.27535691271E+02 -0.33286861840E+02  0.22784720740E+03  0.26345167388E+03  0.12500482025E+03 0.  0.
          5    1    3    3  502    0  0.42836732220E+02  0.23615607473E+02  0.25365255210E+02  0.55300711708E+02  0.47000000000E+01 0. -1.
         -5    1    3    3    0  502 -0.15301040949E+02  0.96712543674E+01  0.24465877976E+03  0.24537249954E+03  0.47000000000E+01 0. -1.
          5    1    4    4  503    0 -0.55196419674E+02 -0.20299311742E+02  0.22476713212E+03  0.23238128256E+03  0.47000000000E+01 0.  1.
         -5    1    4    4    0  503  0.27660728403E+02 -0.12987550098E+02  0.30800752797E+01  0.31070391324E+02  0.47000000000E+01 0.  1.
<mgrwt>
<rscale>  0 0.13225799E+03</rscale>
<asrwt>0</asrwt>
<pdfrwt beam="2">  1        5 0.50964345E-02 0.13225897E+03</pdfrwt>
<pdfrwt beam="1">  1       -5 0.81692003E-01 0.13225897E+03</pdfrwt>
<totfact> 0.23172010E+02</totfact>
</mgrwt>
</event>
<event>
 8    1  0.1865596E-007  0.1273113E+03  0.7546771E-02  0.1231513E+00
          5   -1    0    0  501    0  0.00000000000E+00  0.00000000000E+00  0.23113417253E+03  0.23118195369E+03  0.47000000000E+01 0.  1.
         -5   -1    0    0    0  501 -0.00000000000E+00 -0.00000000000E+00 -0.80687662408E+02  0.80824432351E+02  0.47000000000E+01 0.  1.
         25    2    1    2    0    0 -0.22129703507E+02  0.94244649915E+01  0.18452700565E+02  0.12864159834E+03  0.12501845603E+03 0.  0.
         25    2    1    2    0    0  0.22129703507E+02 -0.94244649915E+01  0.13199380956E+03  0.18336478770E+03  0.12498694047E+03 0.  0.
          5    1    4    4  502    0 -0.12095395421E+02 -0.41623176059E+02  0.12885993609E+03  0.13603587947E+03  0.47000000000E+01 0. -1.
         -5    1    4    4    0  502  0.34225098928E+02  0.32198711068E+02  0.31338734706E+01  0.47328908227E+02  0.47000000000E+01 0. -1.
          5    1    3    3  503    0 -0.60641186162E+02  0.34136969887E+02 -0.15523953559E+02  0.71454666092E+02  0.47000000000E+01 0. -1.
         -5    1    3    3    0  503  0.38511482654E+02 -0.24712504896E+02  0.33976654124E+02  0.57186932248E+02  0.47000000000E+01 0. -1.
<mgrwt>
<rscale>  0 0.12730353E+03</rscale>
<asrwt>0</asrwt>
<pdfrwt beam="1">  1        5 0.35573299E-01 0.12731127E+03</pdfrwt>
<pdfrwt beam="2">  1       -5 0.12427683E-01 0.12731127E+03</pdfrwt>
<totfact> 0.29644652E+02</totfact>
</mgrwt>
</event>
<event>
 8    1  0.1865596E-007  0.1286709E+03  0.7546771E-02  0.1229444E+00
         -5   -1    0    0    0  501 -0.00000000000E+00  0.00000000000E+00  0.24360027308E+03  0.24364560953E+03  0.47000000000E+01 0. -1.
          5   -1    0    0  501    0  0.00000000000E+00 -0.00000000000E+00 -0.68237019658E+02  0.68398690425E+02  0.47000000000E+01 0. -1.
         25    2    1    2    0    0 -0.98622628779E+01 -0.28884377022E+02  0.75626464585E+02  0.14924496410E+03  0.12499250257E+03 0.  0.
         25    2    1    2    0    0  0.98622628779E+01  0.28884377022E+02  0.99736788832E+02  0.16279933586E+03  0.12499850097E+03 0.  0.
          5    1    4    4  502    0 -0.45979511391E+01  0.67304742845E+02  0.10089698516E+03  0.12146341498E+03  0.47000000000E+01 0.  1.
         -5    1    4    4    0  502  0.14460214017E+02 -0.38420365823E+02 -0.11601963261E+01  0.41335920879E+02  0.47000000000E+01 0.  1.
          5    1    3    3  503    0  0.10871470085E+02 -0.27085112452E+02  0.10716497689E+03  0.11116750627E+03  0.47000000000E+01 0. -1.
         -5    1    3    3    0  503 -0.20733732963E+02 -0.17992645704E+01 -0.31538512309E+02  0.38077457823E+02  0.47000000000E+01 0. -1.
<mgrwt>
<rscale>  0 0.12866943E+03</rscale>
<asrwt>0</asrwt>
<pdfrwt beam="2">  1        5 0.10513926E-01 0.12867089E+03</pdfrwt>
<pdfrwt beam="1">  1       -5 0.37492890E-01 0.12867089E+03</pdfrwt>
<totfact> 0.35947724E+02</totfact>
</mgrwt>
</event>
<event>
 8    1  0.1865596E-007  0.1481703E+03  0.7546771E-02  0.1202741E+00
          5   -1    0    0  501    0  0.00000000000E+00  0.00000000000E+00  0.15039506710E+02  0.15756800502E+02  0.47000000000E+01 0.  1.
         -5   -1    0    0    0  501 -0.00000000000E+00 -0.00000000000E+00 -0.14250247608E+04  0.14250325115E+04  0.47000000000E+01 0.  1.
         25    2    1    2    0    0 -0.52766729989E+02 -0.59509958382E+02 -0.70212641549E+03  0.71758908102E+03  0.12500729150E+03 0.  0.
         25    2    1    2    0    0  0.52766729989E+02  0.59509958382E+02 -0.70785883859E+03  0.72320023099E+03  0.12501470233E+03 0.  0.
          5    1    4    4  502    0  0.19698203059E+02  0.55974508030E+02 -0.66980114030E+03  0.67244094335E+03  0.47000000000E+01 0. -1.
         -5    1    4    4    0  502  0.33068526929E+02  0.35354503518E+01 -0.38057698288E+02  0.50759287637E+02  0.47000000000E+01 0. -1.
          5    1    3    3  503    0 -0.65856105758E+02 -0.55276703809E+02 -0.23570533718E+03  0.25094150040E+03  0.47000000000E+01 0.  1.
         -5    1    3    3    0  503  0.13089375769E+02 -0.42332545727E+01 -0.46642107831E+03  0.46664758062E+03  0.47000000000E+01 0.  1.
<mgrwt>
<rscale>  0 0.14816874E+03</rscale>
<asrwt>0</asrwt>
<pdfrwt beam="1">  1        5 0.23695440E-02 0.14817030E+03</pdfrwt>
<pdfrwt beam="2">  1       -5 0.21929025E+00 0.14817030E+03</pdfrwt>
<totfact> 0.58885323E+01</totfact>
</mgrwt>
</event>
<event>
 8    1  0.1865596E-007  0.1491196E+03  0.7546771E-02  0.1201561E+00
          5   -1    0    0  501    0  0.00000000000E+00  0.00000000000E+00  0.59325312063E+02  0.59511197698E+02  0.47000000000E+01 0.  1.
         -5   -1    0    0    0  501 -0.00000000000E+00 -0.00000000000E+00 -0.38151547660E+03  0.38154442583E+03  0.47000000000E+01 0.  1.
         25    2    1    2    0    0 -0.10986542863E+01 -0.81296822948E+02 -0.19198062872E+03  0.24308802400E+03  0.12499938057E+03 0.  0.
         25    2    1    2    0    0  0.10986542863E+01  0.81296822948E+02 -0.13020953581E+03  0.19796759953E+03  0.12500506704E+03 0.  0.
          5    1    4    4  502    0 -0.52178759514E+02  0.79755936390E+02 -0.78599423120E+02  0.12362682415E+03  0.47000000000E+01 0. -1.
         -5    1    4    4    0  502  0.53277413800E+02  0.15408865586E+01 -0.51610112694E+02  0.74340775385E+02  0.47000000000E+01 0. -1.
          5    1    3    3  503    0 -0.91461912153E+01 -0.10629746317E+03 -0.18785627402E+03  0.21608996547E+03  0.47000000000E+01 0.  1.
         -5    1    3    3    0  503  0.80475369291E+01  0.25000640225E+02 -0.41243547034E+01  0.26998058523E+02  0.47000000000E+01 0.  1.
<mgrwt>
<rscale>  0 0.14911838E+03</rscale>
<asrwt>0</asrwt>
<pdfrwt beam="1">  1        5 0.91434971E-02 0.14911957E+03</pdfrwt>
<pdfrwt beam="2">  1       -5 0.58711213E-01 0.14911957E+03</pdfrwt>
<totfact> 0.18810980E+02</totfact>
</mgrwt>
</event>
<event>
 8    1  0.1865596E-007  0.1368860E+03  0.7546771E-02  0.1217582E+00
          5   -1    0    0  501    0  0.00000000000E+00  0.00000000000E+00  0.51125794484E+03  0.51127954796E+03  0.47000000000E+01 0.  1.
         -5   -1    0    0    0  501 -0.00000000000E+00 -0.00000000000E+00 -0.37687489367E+02  0.37979426731E+02  0.47000000000E+01 0.  1.
         25    2    1    2    0    0 -0.49970385355E+02 -0.24805623722E+02  0.18776205312E+03  0.23236114789E+03  0.12499902429E+03 0.  0.
         25    2    1    2    0    0  0.49970385355E+02  0.24805623722E+02  0.28580840235E+03  0.31689782681E+03  0.12500172559E+03 0.  0.
          5    1    3    3  502    0 -0.56325766987E+02  0.32187647529E+02  0.46867095450E+02  0.80170139803E+02  0.47000000000E+01 0. -1.
         -5    1    3    3    0  502  0.63553816325E+01 -0.56993271251E+02  0.14089495767E+03  0.15219100808E+03  0.47000000000E+01 0. -1.
          5    1    4    4  503    0  0.57026417033E+02  0.62651684231E+02  0.12228957976E+03  0.14884245730E+03  0.47000000000E+01 0. -1.
         -5    1    4    4    0  503 -0.70560316779E+01 -0.37846060509E+02  0.16351882259E+03  0.16805536951E+03  0.47000000000E+01 0. -1.
<mgrwt>
<rscale>  0 0.13688543E+03</rscale>
<asrwt>0</asrwt>
<pdfrwt beam="1">  1        5 0.78679188E-01 0.13688605E+03</pdfrwt>
<pdfrwt beam="2">  1       -5 0.58221937E-02 0.13688605E+03</pdfrwt>
<totfact> 0.20474799E+02</totfact>
</mgrwt>
</event>
<event>
 8    1  0.1865596E-007  0.1648021E+03  0.7546771E-02  0.1183385E+00
          5   -1    0    0  501    0  0.00000000000E+00  0.00000000000E+00  0.63783191486E+03  0.63784923110E+03  0.47000000000E+01 0. -1.
         -5   -1    0    0    0  501 -0.00000000000E+00 -0.00000000000E+00 -0.47822452141E+02  0.48052855573E+02  0.47000000000E+01 0. -1.
         25    2    1    2    0    0 -0.90974126429E+02  0.57073266543E+02  0.18012071207E+03  0.24412329088E+03  0.12497624093E+03 0.  0.
         25    2    1    2    0    0  0.90974126429E+02 -0.57073266543E+02  0.40988875064E+03  0.44177879579E+03  0.12500426823E+03 0.  0.
          5    1    3    3  502    0 -0.33561056996E+02  0.31402356338E+02 -0.69382066934E+01  0.46719174248E+02  0.47000000000E+01 0. -1.
         -5    1    3    3    0  502 -0.57413069433E+02  0.25670910205E+02  0.18705891877E+03  0.19740411663E+03  0.47000000000E+01 0. -1.
          5    1    4    4  503    0  0.54952044779E+02 -0.42861003488E+02  0.67364687543E+02  0.97040630527E+02  0.47000000000E+01 0.  1.
         -5    1    4    4    0  503  0.36022081650E+02 -0.14212263055E+02  0.34252406310E+03  0.34473816527E+03  0.47000000000E+01 0.  1.
<mgrwt>
<rscale>  0 0.16479674E+03</rscale>
<asrwt>0</asrwt>
<pdfrwt beam="1">  1        5 0.98147040E-01 0.16480205E+03</pdfrwt>
<pdfrwt beam="2">  1       -5 0.73763559E-02 0.16480205E+03</pdfrwt>
<totfact> 0.86213318E+01</totfact>
</mgrwt>
</event>
<event>
 8    1  0.1865596E-007  0.1316735E+03  0.7546771E-02  0.1224995E+00
          5   -1    0    0  501    0  0.00000000000E+00  0.00000000000E+00  0.21593868466E+03  0.21598982738E+03  0.47000000000E+01 0. -1.
         -5   -1    0    0    0  501 -0.00000000000E+00 -0.00000000000E+00 -0.80944284655E+02  0.81080621719E+02  0.47000000000E+01 0. -1.
         25    2    1    2    0    0  0.12626582829E+02 -0.39414144541E+02  0.52880709780E+02  0.14189534510E+03  0.12500005644E+03 0.  0.
         25    2    1    2    0    0 -0.12626582829E+02  0.39414144541E+02  0.82113690227E+02  0.15517510401E+03  0.12499499749E+03 0.  0.
          5    1    3    3  502    0 -0.10702457701E+02  0.17457501881E+02  0.73847221392E+02  0.76777660033E+02  0.47000000000E+01 0. -1.
         -5    1    3    3    0  502  0.23329040530E+02 -0.56871646422E+02 -0.20966511613E+02  0.65117685063E+02  0.47000000000E+01 0. -1.
          5    1    4    4  503    0  0.17812042380E+02  0.32603655462E+02  0.10803893581E+03  0.11434495553E+03  0.47000000000E+01 0. -1.
         -5    1    4    4    0  503 -0.30438625210E+02  0.68104890784E+01 -0.25925245586E+02  0.40830148479E+02  0.47000000000E+01 0. -1.
<mgrwt>
<rscale>  0 0.13167233E+03</rscale>
<asrwt>0</asrwt>
<pdfrwt beam="1">  1        5 0.33235758E-01 0.13167353E+03</pdfrwt>
<pdfrwt beam="2">  1       -5 0.12467388E-01 0.13167353E+03</pdfrwt>
<totfact> 0.34181530E+02</totfact>
</mgrwt>
</event>
<event>
 8    1  0.1865596E-007  0.1266093E+03  0.7546771E-02  0.1232576E+00
         -5   -1    0    0    0  501 -0.00000000000E+00  0.00000000000E+00  0.12622751133E+04  0.12622838633E+04  0.47000000000E+01 0.  1.
          5   -1    0    0  501    0  0.00000000000E+00 -0.00000000000E+00 -0.21723541371E+02  0.22226161380E+02  0.47000000000E+01 0.  1.
         25    2    1    2    0    0 -0.18368330638E+02 -0.81934387965E+01  0.10376680002E+04  0.10453634787E+04  0.12500158365E+03 0.  0.
         25    2    1    2    0    0  0.18368330638E+02  0.81934387965E+01  0.20288357170E+03  0.23914654601E+03  0.12499919517E+03 0.  0.
          5    1    3    3  502    0 -0.16365789800E+01  0.53956127081E+02  0.29804401182E+03  0.30292947202E+03  0.47000000000E+01 0. -1.
         -5    1    3    3    0  502 -0.16731751658E+02 -0.62149565878E+02  0.73962398839E+03  0.74243400666E+03  0.47000000000E+01 0. -1.
          5    1    4    4  503    0 -0.34580243463E+02  0.64174728179E+01  0.69953995382E+01  0.36166321488E+02  0.47000000000E+01 0.  1.
         -5    1    4    4    0  503  0.52948574101E+02  0.17759659787E+01  0.19588817216E+03  0.20298022452E+03  0.47000000000E+01 0.  1.
<mgrwt>
<rscale>  0 0.12660875E+03</rscale>
<asrwt>0</asrwt>
<pdfrwt beam="2">  1        5 0.33814185E-02 0.12660934E+03</pdfrwt>
<pdfrwt beam="1">  1       -5 0.19423556E+00 0.12660934E+03</pdfrwt>
<totfact> 0.46653111E+01</totfact>
</mgrwt>
</event>
<event>
 8    1  0.1865596E-007  0.1358485E+03  0.7546771E-02  0.1219028E+00
          5   -1    0    0  501    0  0.00000000000E+00  0.00000000000E+00  0.20941856802E+03  0.20947130265E+03  0.47000000000E+01 0. -1.
         -5   -1    0    0    0  501 -0.00000000000E+00 -0.00000000000E+00 -0.88448011289E+02  0.88572798878E+02  0.47000000000E+01 0. -1.
         25    2    1    2    0    0 -0.22975295317E+02 -0.47978490654E+02  0.49824235089E+02  0.14469286858E+03  0.12499508812E+03 0.  0.
         25    2    1    2    0    0  0.22975295317E+02  0.47978490654E+02  0.71146321645E+02  0.15335123295E+03  0.12500000721E+03 0.  0.
          5    1    3    3  502    0 -0.52673992125E+02  0.23821365482E+02  0.21603433397E+02  0.61893499128E+02  0.47000000000E+01 0.  1.
         -5    1    3    3    0  502  0.29698696808E+02 -0.71799856136E+02  0.28220801692E+02  0.82799369451E+02  0.47000000000E+01 0.  1.
          5    1    4    4  503    0 -0.13685741889E+02 -0.16208513269E+02  0.76077133974E+02  0.79119123776E+02  0.47000000000E+01 0. -1.
         -5    1    4    4    0  503  0.36661037206E+02  0.64187003923E+02 -0.49308123292E+01  0.74232109170E+02  0.47000000000E+01 0. -1.
<mgrwt>
<rscale>  0 0.13584732E+03</rscale>
<asrwt>0</asrwt>
<pdfrwt beam="1">  1        5 0.32231896E-01 0.13584845E+03</pdfrwt>
<pdfrwt beam="2">  1       -5 0.13621042E-01 0.13584845E+03</pdfrwt>
<totfact> 0.31358851E+02</totfact>
</mgrwt>
</event>
<event>
 8    1  0.1865596E-007  0.1467456E+03  0.7546771E-02  0.1204532E+00
         -5   -1    0    0    0  501 -0.00000000000E+00  0.00000000000E+00  0.13125619410E+03  0.13134031555E+03  0.47000000000E+01 0. -1.
          5   -1    0    0  501    0  0.00000000000E+00 -0.00000000000E+00 -0.16420103806E+03  0.16426828939E+03  0.47000000000E+01 0. -1.
         25    2    1    2    0    0 -0.76079824366E+02  0.10998840241E+02 -0.99812913215E+01  0.14707718891E+03  0.12499183637E+03 0.  0.
         25    2    1    2    0    0  0.76079824366E+02 -0.10998840241E+02 -0.22963552637E+02  0.14853141603E+03  0.12500057055E+03 0.  0.
          5    1    4    4  502    0  0.90327672761E+02 -0.12121555070E+02 -0.59552057362E+02  0.10897044599E+03  0.47000000000E+01 0.  1.
         -5    1    4    4    0  502 -0.14247848395E+02  0.11227148295E+01  0.36588504725E+02  0.39560970040E+02  0.47000000000E+01 0.  1.
          5    1    3    3  503    0 -0.12710159555E+02  0.35618610995E+02  0.45392912142E+02  0.59269216950E+02  0.47000000000E+01 0.  1.
         -5    1    3    3    0  503 -0.63369664811E+02 -0.24619770755E+02 -0.55374203464E+02  0.87807971959E+02  0.47000000000E+01 0.  1.
<mgrwt>
<rscale>  0 0.14674369E+03</rscale>
<asrwt>0</asrwt>
<pdfrwt beam="2">  1        5 0.25273342E-01 0.14674555E+03</pdfrwt>
<pdfrwt beam="1">  1       -5 0.20204905E-01 0.14674555E+03</pdfrwt>
<totfact> 0.25137153E+02</totfact>
</mgrwt>
</event>
<event>
 8    1  0.1865596E-007  0.1287474E+03  0.7546771E-02  0.1229329E+00
          5   -1    0    0  501    0  0.00000000000E+00  0.00000000000E+00  0.10049892940E+04  0.10050002841E+04  0.47000000000E+01 0. -1.
         -5   -1    0    0    0  501 -0.00000000000E+00 -0.00000000000E+00 -0.16216851564E+02  0.16884201925E+02  0.47000000000E+01 0. -1.
         25    2    1    2    0    0  0.30785361256E+02 -0.17039061881E+01  0.52734347387E+03  0.54283065067E+03  0.12499333628E+03 0.  0.
         25    2    1    2    0    0 -0.30785361256E+02  0.17039061881E+01  0.46142896855E+03  0.47905383534E+03  0.12500096949E+03 0.  0.
          5    1    3    3  502    0  0.24157338562E+02 -0.14133726502E+02  0.52721685997E+03  0.52798015745E+03  0.47000000000E+01 0. -1.
         -5    1    3    3    0  502  0.66280226941E+01  0.12429820314E+02  0.12661390513E+00  0.14850493222E+02  0.47000000000E+01 0. -1.
          5    1    4    4  503    0  0.10395607236E+02  0.50068388352E+02  0.31797463568E+03  0.32209450647E+03  0.47000000000E+01 0. -1.
         -5    1    4    4    0  503 -0.41180968492E+02 -0.48364482164E+02  0.14345433288E+03  0.15695932888E+03  0.47000000000E+01 0. -1.
<mgrwt>
<rscale>  0 0.12874551E+03</rscale>
<asrwt>0</asrwt>
<pdfrwt beam="1">  1        5 0.15466595E+00 0.12874737E+03</pdfrwt>
<pdfrwt beam="2">  1       -5 0.25470798E-02 0.12874737E+03</pdfrwt>
<totfact> 0.14309980E+02</totfact>
</mgrwt>
</event>
<event>
 8    1  0.1865596E-007  0.1670515E+03  0.7546771E-02  0.1180958E+00
          5   -1    0    0  501    0  0.00000000000E+00  0.00000000000E+00  0.98073658012E+02  0.98186212860E+02  0.47000000000E+01 0. -1.
         -5   -1    0    0    0  501 -0.00000000000E+00 -0.00000000000E+00 -0.32224764142E+03  0.32228191448E+03  0.47000000000E+01 0. -1.
         25    2    1    2    0    0 -0.10963461638E+03 -0.16157458381E+02 -0.18426572701E+03  0.24871574891E+03  0.12499941213E+03 0.  0.
         25    2    1    2    0    0  0.10963461638E+03  0.16157458381E+02 -0.39908256401E+02  0.17175237844E+03  0.12500159199E+03 0.  0.
          5    1    4    4  502    0  0.85551497548E+02 -0.32129975309E+02  0.17127575306E+02  0.93095853195E+02  0.47000000000E+01 0.  1.
         -5    1    4    4    0  502  0.24083118829E+02  0.48287433690E+02 -0.57035831708E+02  0.78656525244E+02  0.47000000000E+01 0.  1.
          5    1    3    3  503    0  0.18509065232E+02 -0.73697526985E+01 -0.81851792303E+02  0.84372416428E+02  0.47000000000E+01 0. -1.
         -5    1    3    3    0  503 -0.12814368161E+03 -0.87877056827E+01 -0.10241393471E+03  0.16434333248E+03  0.47000000000E+01 0. -1.
<mgrwt>
<rscale>  0 0.16705111E+03</rscale>
<asrwt>0</asrwt>
<pdfrwt beam="1">  1        5 0.15099550E-01 0.16705152E+03</pdfrwt>
<pdfrwt beam="2">  1       -5 0.49587854E-01 0.16705152E+03</pdfrwt>
<totfact> 0.11514318E+02</totfact>
</mgrwt>
</event>
<event>
 8    1  0.1865596E-007  0.1798243E+03  0.7546771E-02  0.1167980E+00
         -5   -1    0    0    0  501 -0.00000000000E+00  0.00000000000E+00  0.16035996509E+03  0.16042882660E+03  0.47000000000E+01 0.  1.
          5   -1    0    0  501    0  0.00000000000E+00 -0.00000000000E+00 -0.23310133978E+03  0.23314871779E+03  0.47000000000E+01 0.  1.
         25    2    1    2    0    0 -0.99908275185E+02 -0.81972027312E+02  0.36086505989E+02  0.18340942004E+03  0.12504280361E+03 0.  0.
         25    2    1    2    0    0  0.99908275185E+02  0.81972027312E+02 -0.10882788068E+03  0.21016812435E+03  0.12500422460E+03 0.  0.
          5    1    4    4  502    0  0.67733285549E+02  0.11454196007E+03 -0.73056624010E+02  0.15187830293E+03  0.47000000000E+01 0.  1.
         -5    1    4    4    0  502  0.32174989636E+02 -0.32569932761E+02 -0.35771256668E+02  0.58289821425E+02  0.47000000000E+01 0.  1.
          5    1    3    3  503    0 -0.44898155261E+02 -0.86839649420E+02  0.68258296362E+02  0.11932415547E+03  0.47000000000E+01 0. -1.
         -5    1    3    3    0  503 -0.55010119924E+02  0.48676221077E+01 -0.32171790373E+02  0.64085264569E+02  0.47000000000E+01 0. -1.
<mgrwt>
<rscale>  0 0.17981760E+03</rscale>
<asrwt>0</asrwt>
<pdfrwt beam="2">  1        5 0.35870686E-01 0.17982430E+03</pdfrwt>
<pdfrwt beam="1">  1       -5 0.24679705E-01 0.17982430E+03</pdfrwt>
<totfact> 0.91928413E+01</totfact>
</mgrwt>
</event>
<event>
 8    1  0.1865596E-007  0.1436142E+03  0.7546771E-02  0.1208547E+00
          5   -1    0    0  501    0  0.00000000000E+00  0.00000000000E+00  0.31048153798E+03  0.31051710971E+03  0.47000000000E+01 0.  1.
         -5   -1    0    0    0  501 -0.00000000000E+00 -0.00000000000E+00 -0.68293683704E+02  0.68455220647E+02  0.47000000000E+01 0.  1.
         25    2    1    2    0    0 -0.28642604964E+02  0.64645349136E+02  0.88813225059E+02  0.16885743455E+03  0.12500249707E+03 0.  0.
         25    2    1    2    0    0  0.28642604964E+02 -0.64645349136E+02  0.15337462921E+03  0.21011489581E+03  0.12500029028E+03 0.  0.
          5    1    3    3  502    0 -0.21217056258E+02  0.48533297976E+02  0.12079621430E+03  0.13198280145E+03  0.47000000000E+01 0.  1.
         -5    1    3    3    0  502 -0.74255487050E+01  0.16112051161E+02 -0.31982989239E+02  0.36874633108E+02  0.47000000000E+01 0.  1.
          5    1    4    4  503    0  0.61259482648E+02 -0.12620305388E+02  0.12982401001E+03  0.14418169058E+03  0.47000000000E+01 0.  1.
         -5    1    4    4    0  503 -0.32616877685E+02 -0.52025043749E+02  0.23550619202E+02  0.65933205229E+02  0.47000000000E+01 0.  1.
<mgrwt>
<rscale>  0 0.14361374E+03</rscale>
<asrwt>0</asrwt>
<pdfrwt beam="1">  1        5 0.47781552E-01 0.14361422E+03</pdfrwt>
<pdfrwt beam="2">  1       -5 0.10521883E-01 0.14361422E+03</pdfrwt>
<totfact> 0.22613982E+02</totfact>
</mgrwt>
</event>
<event>
 8    1  0.1865596E-007  0.1341949E+03  0.7546771E-02  0.1221361E+00
          5   -1    0    0  501    0  0.00000000000E+00  0.00000000000E+00  0.21750399498E+03  0.21755476973E+03  0.47000000000E+01 0.  1.
         -5   -1    0    0    0  501 -0.00000000000E+00 -0.00000000000E+00 -0.13989044608E+03  0.13996937845E+03  0.47000000000E+01 0.  1.
         25    2    1    2    0    0 -0.44423596677E+02  0.20280582266E+02 -0.75460671260E+02  0.15395641556E+03  0.12499402796E+03 0.  0.
         25    2    1    2    0    0  0.44423596677E+02 -0.20280582266E+02  0.15307422016E+03  0.20356773262E+03  0.12499338753E+03 0.  0.
          5    1    4    4  502    0 -0.17888520037E+02  0.32560130537E+02  0.98040618968E+02  0.10494862656E+03  0.47000000000E+01 0. -1.
         -5    1    4    4    0  502  0.62312116714E+02 -0.52840712803E+02  0.55033601190E+02  0.98619106053E+02  0.47000000000E+01 0. -1.
          5    1    3    3  503    0 -0.45995845736E+01 -0.49966651094E+02 -0.44871431380E+02  0.67478572553E+02  0.47000000000E+01 0.  1.
         -5    1    3    3    0  503 -0.39824012103E+02  0.70247233360E+02 -0.30589239881E+02  0.86477843007E+02  0.47000000000E+01 0.  1.
<mgrwt>
<rscale>  0 0.13419473E+03</rscale>
<asrwt>0</asrwt>
<pdfrwt beam="1">  1        5 0.33472131E-01 0.13419488E+03</pdfrwt>
<pdfrwt beam="2">  1       -5 0.21531585E-01 0.13419488E+03</pdfrwt>
<totfact> 0.12504071E+02</totfact>
</mgrwt>
</event>
<event>
 8    1  0.1865596E-007  0.1394133E+03  0.7546771E-02  0.1214127E+00
         -5   -1    0    0    0  501 -0.00000000000E+00  0.00000000000E+00  0.44564257008E+03  0.44566735383E+03  0.47000000000E+01 0. -1.
          5   -1    0    0  501    0  0.00000000000E+00 -0.00000000000E+00 -0.51840897926E+02  0.52053517631E+02  0.47000000000E+01 0. -1.
         25    2    1    2    0    0 -0.46779702388E+02 -0.40281882947E+02  0.29673211109E+03  0.32784281308E+03  0.12497997314E+03 0.  0.
         25    2    1    2    0    0  0.46779702388E+02  0.40281882947E+02  0.97069561065E+02  0.16987805838E+03  0.12500033754E+03 0.  0.
          5    1    3    3  502    0 -0.74137497668E+02 -0.67602764475E+02  0.21502517330E+03  0.23732765848E+03  0.47000000000E+01 0. -1.
         -5    1    3    3    0  502  0.27357795279E+02  0.27320881527E+02  0.81706937784E+02  0.90515154599E+02  0.47000000000E+01 0. -1.
          5    1    4    4  503    0 -0.23008972565E+02 -0.15022372212E+02  0.72065419360E+02  0.77269652212E+02  0.47000000000E+01 0. -1.
         -5    1    4    4    0  503  0.69788674954E+02  0.55304255160E+02  0.25004141705E+02  0.92608406168E+02  0.47000000000E+01 0. -1.
<mgrwt>
<rscale>  0 0.13940869E+03</rscale>
<asrwt>0</asrwt>
<pdfrwt beam="2">  1        5 0.79937845E-02 0.13941325E+03</pdfrwt>
<pdfrwt beam="1">  1       -5 0.68578658E-01 0.13941325E+03</pdfrwt>
<totfact> 0.16449327E+02</totfact>
</mgrwt>
</event>
<event>
 8    1  0.1865596E-007  0.1804762E+03  0.7546771E-02  0.1167343E+00
         -5   -1    0    0    0  501 -0.00000000000E+00  0.00000000000E+00  0.28458969060E+03  0.28462849821E+03  0.47000000000E+01 0.  1.
          5   -1    0    0  501    0  0.00000000000E+00 -0.00000000000E+00 -0.15832886848E+03  0.15839861298E+03  0.47000000000E+01 0.  1.
         25    2    1    2    0    0  0.86924860242E+02  0.96902681194E+02  0.17982437886E+03  0.25477137457E+03  0.12500234044E+03 0.  0.
         25    2    1    2    0    0 -0.86924860242E+02 -0.96902681194E+02 -0.53563556739E+02  0.18825573663E+03  0.12500042725E+03 0.  0.
          5    1    4    4  502    0 -0.81459057214E+02 -0.76035565779E+02 -0.91567821697E+02  0.14430433547E+03  0.47000000000E+01 0. -1.
         -5    1    4    4    0  502 -0.54658030282E+01 -0.20867115415E+02  0.38004264958E+02  0.43951401155E+02  0.47000000000E+01 0. -1.
          5    1    3    3  503    0 -0.12084846499E+02  0.78395121131E+02  0.84949042185E+02  0.11631968148E+03  0.47000000000E+01 0.  1.
         -5    1    3    3    0  503  0.99009706741E+02  0.18507560063E+02  0.94875336676E+02  0.13845169308E+03  0.47000000000E+01 0.  1.
<mgrwt>
<rscale>  0 0.18047583E+03</rscale>
<asrwt>0</asrwt>
<pdfrwt beam="2">  1        5 0.24366638E-01 0.18047616E+03</pdfrwt>
<pdfrwt beam="1">  1       -5 0.43791379E-01 0.18047616E+03</pdfrwt>
<totfact> 0.62616172E+01</totfact>
</mgrwt>
</event>
<event>
 8    1  0.1865596E-007  0.2642569E+03  0.7546771E-02  0.1104612E+00
         -5   -1    0    0    0  501 -0.00000000000E+00  0.00000000000E+00  0.64009066273E+02  0.64181387996E+02  0.47000000000E+01 0. -1.
          5   -1    0    0  501    0  0.00000000000E+00 -0.00000000000E+00 -0.16500637346E+04  0.16500704283E+04  0.47000000000E+01 0. -1.
         25    2    1    2    0    0 -0.20590054170E+03  0.10868396246E+03 -0.29339263621E+03  0.39485557503E+03  0.12499779750E+03 0.  0.
         25    2    1    2    0    0  0.20590054170E+03 -0.10868396246E+03 -0.12926620321E+04  0.13193962413E+04  0.12499630135E+03 0.  0.
          5    1    3    3  502    0 -0.96823398798E+02  0.11579067174E+03 -0.20255618625E+03  0.25265262477E+03  0.47000000000E+01 0. -1.
         -5    1    3    3    0  502 -0.10907714290E+03 -0.71067092748E+01 -0.90836449965E+02  0.14220295026E+03  0.47000000000E+01 0. -1.
          5    1    4    4  503    0  0.22934410963E+02 -0.69250364604E+02 -0.47357180964E+03  0.47918049740E+03  0.47000000000E+01 0.  1.
         -5    1    4    4    0  503  0.18296613073E+03 -0.39433597858E+02 -0.81909022249E+03  0.84021574385E+03  0.47000000000E+01 0.  1.
<mgrwt>
<rscale>  0 0.26425668E+03</rscale>
<asrwt>0</asrwt>
<pdfrwt beam="2">  1        5 0.25386970E+00 0.26425686E+03</pdfrwt>
<pdfrwt beam="1">  1       -5 0.98613203E-02 0.26425686E+03</pdfrwt>
<totfact> 0.36548296E+00</totfact>
</mgrwt>
</event>
<event>
 8    1  0.1865596E-007  0.1410835E+03  0.7546771E-02  0.1211878E+00
         -5   -1    0    0    0  501 -0.00000000000E+00  0.00000000000E+00  0.28696066182E+03  0.28699914883E+03  0.47000000000E+01 0.  1.
          5   -1    0    0  501    0  0.00000000000E+00 -0.00000000000E+00 -0.69535364822E+02  0.69694023854E+02  0.47000000000E+01 0.  1.
         25    2    1    2    0    0  0.51586241256E+02  0.40239261641E+02  0.12030943780E+03  0.18541545807E+03  0.12499677118E+03 0.  0.
         25    2    1    2    0    0 -0.51586241256E+02 -0.40239261641E+02  0.97115859197E+02  0.17127771461E+03  0.12499690777E+03 0.  0.
          5    1    3    3  502    0 -0.89723731370E+01  0.39226597770E+02 -0.99232993132E+01  0.41710805813E+02  0.47000000000E+01 0.  1.
         -5    1    3    3    0  502  0.60558614393E+02  0.10126638708E+01  0.13023273711E+03  0.14370465226E+03  0.47000000000E+01 0.  1.
          5    1    4    4  503    0  0.40484853707E+02 -0.18015392772E+02  0.43814433370E+02  0.62492978229E+02  0.47000000000E+01 0. -1.
         -5    1    4    4    0  503 -0.92071094963E+02 -0.22223868869E+02  0.53301425827E+02  0.10878473638E+03  0.47000000000E+01 0. -1.
<mgrwt>
<rscale>  0 0.14108351E+03</rscale>
<asrwt>0</asrwt>
<pdfrwt beam="2">  1        5 0.10712914E-01 0.14108354E+03</pdfrwt>
<pdfrwt beam="1">  1       -5 0.44162959E-01 0.14108354E+03</pdfrwt>
<totfact> 0.25680916E+02</totfact>
</mgrwt>
</event>
<event>
 8    1  0.1865596E-007  0.1322702E+03  0.7546771E-02  0.1224139E+00
          5   -1    0    0  501    0  0.00000000000E+00  0.00000000000E+00  0.59043316680E+02  0.59230087325E+02  0.47000000000E+01 0.  1.
         -5   -1    0    0    0  501 -0.00000000000E+00 -0.00000000000E+00 -0.29556789466E+03  0.29560526104E+03  0.47000000000E+01 0.  1.
         25    2    1    2    0    0  0.19296609843E+02  0.38577532158E+02 -0.11940317353E+03  0.17816380470E+03  0.12499855326E+03 0.  0.
         25    2    1    2    0    0 -0.19296609843E+02 -0.38577532158E+02 -0.11712140445E+03  0.17667154366E+03  0.12503929710E+03 0.  0.
          5    1    4    4  502    0 -0.62944906323E+02 -0.56599556277E+02 -0.77011043608E+02  0.11453541741E+03  0.47000000000E+01 0. -1.
         -5    1    4    4    0  502  0.43648296481E+02  0.18022024120E+02 -0.40110360839E+02  0.62136126252E+02  0.47000000000E+01 0. -1.
          5    1    3    3  503    0  0.54435744254E+02  0.96691056404E+01 -0.12022530025E+03  0.13241206394E+03  0.47000000000E+01 0.  1.
         -5    1    3    3    0  503 -0.35139134411E+02  0.28908426517E+02  0.82212671511E+00  0.45751740767E+02  0.47000000000E+01 0.  1.
<mgrwt>
<rscale>  0 0.13226059E+03</rscale>
<asrwt>0</asrwt>
<pdfrwt beam="1">  1        5 0.91008287E-02 0.13227022E+03</pdfrwt>
<pdfrwt beam="2">  1       -5 0.45489224E-01 0.13227022E+03</pdfrwt>
<totfact> 0.31386729E+02</totfact>
</mgrwt>
</event>
<event>
 8    1  0.1865596E-007  0.1535748E+03  0.7546771E-02  0.1196149E+00
         -5   -1    0    0    0  501 -0.00000000000E+00  0.00000000000E+00  0.71831502525E+02  0.71985100924E+02  0.47000000000E+01 0. -1.
          5   -1    0    0  501    0  0.00000000000E+00 -0.00000000000E+00 -0.35213221552E+03  0.35216358018E+03  0.47000000000E+01 0. -1.
         25    2    1    2    0    0 -0.28495515489E+02 -0.84546987170E+02 -0.84435669613E+02  0.17525583190E+03  0.12500014748E+03 0.  0.
         25    2    1    2    0    0  0.28495515489E+02  0.84546987170E+02 -0.19586504338E+03  0.24889284921E+03  0.12499739087E+03 0.  0.
          5    1    3    3  502    0  0.38537710111E+02 -0.19397227441E+02  0.75206417946E+01  0.44046084798E+02  0.47000000000E+01 0. -1.
         -5    1    3    3    0  502 -0.67033225601E+02 -0.65149759730E+02 -0.91956311408E+02  0.13120974710E+03  0.47000000000E+01 0. -1.
          5    1    4    4  503    0  0.25237653562E+02  0.25939192835E+02 -0.18555639424E+03  0.18911120095E+03  0.47000000000E+01 0. -1.
         -5    1    4    4    0  503  0.32578619269E+01  0.58607794335E+02 -0.10308649147E+02  0.59781648258E+02  0.47000000000E+01 0. -1.
<mgrwt>
<rscale>  0 0.15357426E+03</rscale>
<asrwt>0</asrwt>
<pdfrwt beam="2">  1        5 0.54188414E-01 0.15357482E+03</pdfrwt>
<pdfrwt beam="1">  1       -5 0.11065229E-01 0.15357482E+03</pdfrwt>
<totfact> 0.16186289E+02</totfact>
</mgrwt>
</event>
<event>
 8    1  0.1865596E-007  0.1380900E+03  0.7546771E-02  0.1215925E+00
         -5   -1    0    0    0  501 -0.00000000000E+00  0.00000000000E+00  0.18271508510E+04  0.18271568959E+04  0.47000000000E+01 0. -1.
          5   -1    0    0  501    0  0.00000000000E+00 -0.00000000000E+00 -0.99695351717E+01  0.11021870601E+02  0.47000000000E+01 0. -1.
         25    2    1    2    0    0  0.45573719337E+02  0.36951402959E+02  0.83582039249E+03  0.84715085350E+03  0.12500587994E+03 0.  0.
         25    2    1    2    0    0 -0.45573719337E+02 -0.36951402959E+02  0.98136092330E+03  0.99102791297E+03  0.12499876977E+03 0.  0.
          5    1    3    3  502    0  0.12872074705E+02 -0.14281962428E+02  0.67301948459E+03  0.67331046435E+03  0.47000000000E+01 0.  1.
         -5    1    3    3    0  502  0.32701644632E+02  0.51233365388E+02  0.16280090790E+03  0.17384038916E+03  0.47000000000E+01 0.  1.
          5    1    4    4  503    0 -0.64512317319E+00 -0.30855026096E+02  0.52723397068E+02  0.61272305471E+02  0.47000000000E+01 0. -1.
         -5    1    4    4    0  503 -0.44928596164E+02 -0.60963768637E+01  0.92863752623E+03  0.92975560750E+03  0.47000000000E+01 0. -1.
<mgrwt>
<rscale>  0 0.13808836E+03</rscale>
<asrwt>0</asrwt>
<pdfrwt beam="2">  1        5 0.16151880E-02 0.13808997E+03</pdfrwt>
<pdfrwt beam="1">  1       -5 0.28118163E+00 0.13808997E+03</pdfrwt>
<totfact> 0.42847530E+01</totfact>
</mgrwt>
</event>
<event>
 8    1  0.1865596E-007  0.1307398E+03  0.7546771E-02  0.1226363E+00
         -5   -1    0    0    0  501 -0.00000000000E+00  0.00000000000E+00  0.26423620275E+03  0.26427799917E+03  0.47000000000E+01 0. -1.
          5   -1    0    0  501    0  0.00000000000E+00 -0.00000000000E+00 -0.73549866447E+02  0.73699883680E+02  0.47000000000E+01 0. -1.
         25    2    1    2    0    0  0.16683522428E+02 -0.34486595825E+02  0.15435913459E+03  0.20228499658E+03  0.12499924878E+03 0.  0.
         25    2    1    2    0    0 -0.16683522428E+02  0.34486595825E+02  0.36327201711E+02  0.13569288627E+03  0.12500091435E+03 0.  0.
          5    1    4    4  502    0  0.48491491040E+01  0.46785073254E+02 -0.35787568392E+02  0.59289099991E+02  0.47000000000E+01 0.  1.
         -5    1    4    4    0  502 -0.21532671532E+02 -0.12298477429E+02  0.72114770102E+02  0.76403786276E+02  0.47000000000E+01 0.  1.
          5    1    3    3  503    0  0.70208456927E+02 -0.22867054392E+02  0.71808338975E+02  0.10310507818E+03  0.47000000000E+01 0. -1.
         -5    1    3    3    0  503 -0.53524934498E+02 -0.11619541433E+02  0.82550795616E+02  0.99179918396E+02  0.47000000000E+01 0. -1.
<mgrwt>
<rscale>  0 0.13073940E+03</rscale>
<asrwt>0</asrwt>
<pdfrwt beam="2">  1        5 0.11330119E-01 0.13073979E+03</pdfrwt>
<pdfrwt beam="1">  1       -5 0.40666479E-01 0.13073979E+03</pdfrwt>
<totfact> 0.26875945E+02</totfact>
</mgrwt>
</event>
<event>
 8    1  0.1865596E-007  0.1323514E+03  0.7546771E-02  0.1224011E+00
         -5   -1    0    0    0  501 -0.00000000000E+00  0.00000000000E+00  0.13758205914E+02  0.14538852430E+02  0.47000000000E+01 0. -1.
          5   -1    0    0  501    0  0.00000000000E+00 -0.00000000000E+00 -0.14499766022E+04  0.14499842195E+04  0.47000000000E+01 0. -1.
         25    2    1    2    0    0  0.43410163544E+02  0.23709473941E+01 -0.43770272531E+03  0.45727514675E+03  0.12500728138E+03 0.  0.
         25    2    1    2    0    0 -0.43410163544E+02 -0.23709473941E+01 -0.99851567096E+03  0.10072479252E+04  0.12499909599E+03 0.  0.
          5    1    3    3  502    0 -0.76948467316E+01  0.49606462944E+02 -0.95041586223E+02  0.10758719693E+03  0.47000000000E+01 0. -1.
         -5    1    3    3    0  502  0.51105010275E+02 -0.47235515550E+02 -0.34266113909E+03  0.34968794981E+03  0.47000000000E+01 0. -1.
          5    1    4    4  503    0 -0.59318462292E+02 -0.41847516843E+02 -0.83690489799E+03  0.84006058883E+03  0.47000000000E+01 0.  1.
         -5    1    4    4    0  503  0.15908298749E+02  0.39476569449E+02 -0.16161077297E+03  0.16718733638E+03  0.47000000000E+01 0.  1.
<mgrwt>
<rscale>  0 0.13234943E+03</rscale>
<asrwt>0</asrwt>
<pdfrwt beam="2">  1        5 0.22313384E+00 0.13235137E+03</pdfrwt>
<pdfrwt beam="1">  1       -5 0.21772839E-02 0.13235137E+03</pdfrwt>
<totfact> 0.61653599E+01</totfact>
</mgrwt>
</event>
<event>
 8    1  0.1865596E-007  0.1630747E+03  0.7546771E-02  0.1185269E+00
         -5   -1    0    0    0  501 -0.00000000000E+00  0.00000000000E+00  0.47796728801E+02  0.48027255638E+02  0.47000000000E+01 0.  1.
          5   -1    0    0  501    0  0.00000000000E+00 -0.00000000000E+00 -0.55560159639E+03  0.55562147539E+03  0.47000000000E+01 0.  1.
         25    2    1    2    0    0 -0.78726678610E+02  0.69067568248E+02 -0.24243482605E+03  0.29217703261E+03  0.12499821837E+03 0.  0.
         25    2    1    2    0    0  0.78726678610E+02 -0.69067568248E+02 -0.26537004154E+03  0.31147169842E+03  0.12500056423E+03 0.  0.
          5    1    4    4  502    0  0.71980341344E+02  0.12401488370E+02 -0.17407125501E+03  0.18883288451E+03  0.47000000000E+01 0. -1.
         -5    1    4    4    0  502  0.67463372656E+01 -0.81469056619E+02 -0.91298786535E+02  0.12263881390E+03  0.47000000000E+01 0. -1.
          5    1    3    3  503    0 -0.10070211480E+03  0.32298735302E+02 -0.21871782528E+03  0.24298909712E+03  0.47000000000E+01 0.  1.
         -5    1    3    3    0  503  0.21975436185E+02  0.36768832947E+02 -0.23717000769E+02  0.49187935485E+02  0.47000000000E+01 0.  1.
<mgrwt>
<rscale>  0 0.16307426E+03</rscale>
<asrwt>0</asrwt>
<pdfrwt beam="2">  1        5 0.85496426E-01 0.16307471E+03</pdfrwt>
<pdfrwt beam="1">  1       -5 0.73726053E-02 0.16307471E+03</pdfrwt>
<totfact> 0.11964774E+02</totfact>
</mgrwt>
</event>
<event>
 8    1  0.1865596E-007  0.1259779E+03  0.7546771E-02  0.1233552E+00
         -5   -1    0    0    0  501 -0.00000000000E+00  0.00000000000E+00  0.12396218400E+03  0.12405125176E+03  0.47000000000E+01 0. -1.
          5   -1    0    0  501    0  0.00000000000E+00 -0.00000000000E+00 -0.15201536782E+03  0.15208800759E+03  0.47000000000E+01 0. -1.
         25    2    1    2    0    0 -0.92972481608E+01 -0.12584828890E+02  0.41003167961E+02  0.13248275709E+03  0.12500241759E+03 0.  0.
         25    2    1    2    0    0  0.92972481608E+01  0.12584828890E+02 -0.69056351780E+02  0.14365650226E+03  0.12499437659E+03 0.  0.
          5    1    3    3  502    0  0.40069420154E+02 -0.22157156020E+02  0.62477458711E+02  0.77601680660E+02  0.47000000000E+01 0. -1.
         -5    1    3    3    0  502 -0.49366668315E+02  0.95723271295E+01 -0.21474290750E+02  0.54881076433E+02  0.47000000000E+01 0. -1.
          5    1    4    4  503    0 -0.18181802680E+02 -0.51717891225E+02 -0.38756391377E+02  0.67301308263E+02  0.47000000000E+01 0.  1.
         -5    1    4    4    0  503  0.27479050841E+02  0.64302720115E+02 -0.30299960404E+02  0.76355193993E+02  0.47000000000E+01 0.  1.
<mgrwt>
<rscale>  0 0.12597587E+03</rscale>
<asrwt>0</asrwt>
<pdfrwt beam="2">  1        5 0.23399419E-01 0.12597786E+03</pdfrwt>
<pdfrwt beam="1">  1       -5 0.19083544E-01 0.12597786E+03</pdfrwt>
<totfact> 0.30711707E+02</totfact>
</mgrwt>
</event>
<event>
 8    1  0.1865596E-007  0.1418160E+03  0.7546771E-02  0.1210924E+00
         -5   -1    0    0    0  501 -0.00000000000E+00  0.00000000000E+00  0.15579334931E+03  0.15586422838E+03  0.47000000000E+01 0. -1.
          5   -1    0    0  501    0  0.00000000000E+00 -0.00000000000E+00 -0.13009346637E+03  0.13017833918E+03  0.47000000000E+01 0. -1.
         25    2    1    2    0    0 -0.33171004340E+02 -0.58195731040E+02  0.26534464695E+02  0.14427697522E+03  0.12499883649E+03 0.  0.
         25    2    1    2    0    0  0.33171004340E+02  0.58195731040E+02 -0.83458175884E+00  0.14176559234E+03  0.12493889708E+03 0.  0.
          5    1    4    4  502    0  0.12948685062E+02  0.87754383456E+02  0.30528393342E+02  0.93928552957E+02  0.47000000000E+01 0.  1.
         -5    1    4    4    0  502  0.20222319279E+02 -0.29558652416E+02 -0.31362975101E+02  0.47837039382E+02  0.47000000000E+01 0.  1.
          5    1    3    3  503    0  0.35895691851E+02 -0.62026570481E+02  0.65209332868E+01  0.72113859348E+02  0.47000000000E+01 0. -1.
         -5    1    3    3    0  503 -0.69066696192E+02  0.38308394411E+01  0.20013531409E+02  0.72163115877E+02  0.47000000000E+01 0. -1.
<mgrwt>
<rscale>  0 0.14180276E+03</rscale>
<asrwt>0</asrwt>
<pdfrwt beam="2">  1        5 0.20026360E-01 0.14181596E+03</pdfrwt>
<pdfrwt beam="1">  1       -5 0.23980189E-01 0.14181596E+03</pdfrwt>
<totfact> 0.27936746E+02</totfact>
</mgrwt>
</event>
<event>
 8    1  0.1865596E-007  0.1269805E+03  0.7546771E-02  0.1232009E+00
          5   -1    0    0  501    0  0.00000000000E+00  0.00000000000E+00  0.21660513975E+03  0.21665612516E+03  0.47000000000E+01 0.  1.
         -5   -1    0    0    0  501 -0.00000000000E+00 -0.00000000000E+00 -0.74313717136E+02  0.74462195473E+02  0.47000000000E+01 0.  1.
         25    2    1    2    0    0 -0.92518666917E+01  0.20309272294E+02  0.69239695958E+02  0.14463123255E+03  0.12500397735E+03 0.  0.
         25    2    1    2    0    0  0.92518666917E+01 -0.20309272294E+02  0.73051726660E+02  0.14648708808E+03  0.12499539443E+03 0.  0.
          5    1    4    4  502    0  0.30614617882E+02 -0.56010642619E+02  0.81647800938E+02  0.10374439895E+03  0.47000000000E+01 0.  1.
         -5    1    4    4    0  502 -0.21362751190E+02  0.35701370325E+02 -0.85960742784E+01  0.42742689135E+02  0.47000000000E+01 0.  1.
          5    1    3    3  503    0  0.19159941777E+02  0.53003938521E+02 -0.68307226970E+01  0.56967268147E+02  0.47000000000E+01 0. -1.
         -5    1    3    3    0  503 -0.28411808468E+02 -0.32694666227E+02  0.76070418655E+02  0.87663964401E+02  0.47000000000E+01 0. -1.
<mgrwt>
<rscale>  0 0.12697843E+03</rscale>
<asrwt>0</asrwt>
<pdfrwt beam="1">  1        5 0.33339211E-01 0.12698054E+03</pdfrwt>
<pdfrwt beam="2">  1       -5 0.11448223E-01 0.12698054E+03</pdfrwt>
<totfact> 0.38980928E+02</totfact>
</mgrwt>
</event>
<event>
 8    1  0.1865596E-007  0.1838593E+03  0.7546771E-02  0.1164121E+00
          5   -1    0    0  501    0  0.00000000000E+00  0.00000000000E+00  0.44405370507E+02  0.44653408939E+02  0.47000000000E+01 0. -1.
         -5   -1    0    0    0  501 -0.00000000000E+00 -0.00000000000E+00 -0.82980076005E+03  0.82981407037E+03  0.47000000000E+01 0. -1.
         25    2    1    2    0    0  0.11806123764E+02  0.13430597675E+03 -0.52051367003E+03  0.55202903054E+03  0.12499635961E+03 0.  0.
         25    2    1    2    0    0 -0.11806123764E+02 -0.13430597675E+03 -0.26488171951E+03  0.32243844877E+03  0.12500699166E+03 0.  0.
          5    1    4    4  502    0 -0.21623085285E+02 -0.12876878442E+03 -0.27635366295E+03  0.30568348776E+03  0.47000000000E+01 0. -1.
         -5    1    4    4    0  502  0.98169615201E+01 -0.55371923262E+01  0.11471943439E+02  0.16754961015E+02  0.47000000000E+01 0. -1.
          5    1    3    3  503    0 -0.35618854500E+02  0.78807557620E+02 -0.14059212287E+03  0.16512894643E+03  0.47000000000E+01 0.  1.
         -5    1    3    3    0  503  0.47424978265E+02  0.55498419130E+02 -0.37992154716E+03  0.38690008411E+03  0.47000000000E+01 0.  1.
<mgrwt>
<rscale>  0 0.18385745E+03</rscale>
<asrwt>0</asrwt>
<pdfrwt beam="1">  1        5 0.68516998E-02 0.18385926E+03</pdfrwt>
<pdfrwt beam="2">  1       -5 0.12768175E+00 0.18385926E+03</pdfrwt>
<totfact> 0.51986035E+01</totfact>
</mgrwt>
</event>
<event>
 8    1  0.1865596E-007  0.1995722E+03  0.7546771E-02  0.1150103E+00
          5   -1    0    0  501    0  0.00000000000E+00  0.00000000000E+00  0.79852261225E+03  0.79853644392E+03  0.47000000000E+01 0.  1.
         -5   -1    0    0    0  501 -0.00000000000E+00 -0.00000000000E+00 -0.54962071773E+02  0.55162662496E+02  0.47000000000E+01 0.  1.
         25    2    1    2    0    0 -0.15536632813E+03  0.79246456496E+01  0.24061537241E+03  0.31260969712E+03  0.12501027705E+03 0.  0.
         25    2    1    2    0    0  0.15536632813E+03 -0.79246456496E+01  0.50294516807E+03  0.54108940930E+03  0.12498964298E+03 0.  0.
          5    1    3    3  502    0 -0.97294799754E+02 -0.53583531379E+02  0.10635534178E+03  0.15385389699E+03  0.47000000000E+01 0.  1.
         -5    1    3    3    0  502 -0.58071528372E+02  0.61508177029E+02  0.13426003063E+03  0.15875580013E+03  0.47000000000E+01 0.  1.
          5    1    4    4  503    0  0.50505755081E+02 -0.55914753841E+02  0.28053783806E+03  0.29051826032E+03  0.47000000000E+01 0.  1.
         -5    1    4    4    0  503  0.10486057304E+03  0.47990108191E+02  0.22240733000E+03  0.25057114898E+03  0.47000000000E+01 0.  1.
<mgrwt>
<rscale>  0 0.19956897E+03</rscale>
<asrwt>0</asrwt>
<pdfrwt beam="1">  1        5 0.12286612E+00 0.19957221E+03</pdfrwt>
<pdfrwt beam="2">  1       -5 0.84721975E-02 0.19957221E+03</pdfrwt>
<totfact> 0.40751375E+01</totfact>
</mgrwt>
</event>
<event>
 8    1  0.1865596E-007  0.1452881E+03  0.7546771E-02  0.1206388E+00
          5   -1    0    0  501    0  0.00000000000E+00  0.00000000000E+00  0.14503814210E+04  0.14503890362E+04  0.47000000000E+01 0. -1.
         -5   -1    0    0    0  501 -0.00000000000E+00 -0.00000000000E+00 -0.15317716632E+02  0.16022560433E+02  0.47000000000E+01 0. -1.
         25    2    1    2    0    0 -0.71145810275E+02 -0.20492627060E+02  0.52115699380E+03  0.54102980665E+03  0.12500786141E+03 0.  0.
         25    2    1    2    0    0  0.71145810275E+02  0.20492627060E+02  0.91390671053E+03  0.92538178996E+03  0.12499723021E+03 0.  0.
          5    1    3    3  502    0 -0.35886583003E+02  0.35143623880E+02  0.39890988137E+03  0.40208718531E+03  0.47000000000E+01 0. -1.
         -5    1    3    3    0  502 -0.35259227271E+02 -0.55636250940E+02  0.12224711243E+03  0.13894262134E+03  0.47000000000E+01 0. -1.
          5    1    4    4  503    0 -0.50603556633E+00 -0.45414748088E+02  0.37053633690E+03  0.37333901802E+03  0.47000000000E+01 0.  1.
         -5    1    4    4    0  503  0.71651845841E+02  0.65907375148E+02  0.54337037363E+03  0.55204277193E+03  0.47000000000E+01 0.  1.
<mgrwt>
<rscale>  0 0.14528584E+03</rscale>
<asrwt>0</asrwt>
<pdfrwt beam="1">  1        5 0.22319049E+00 0.14528813E+03</pdfrwt>
<pdfrwt beam="2">  1       -5 0.24113754E-02 0.14528813E+03</pdfrwt>
<totfact> 0.53714275E+01</totfact>
</mgrwt>
</event>
<event>
 8    1  0.1865596E-007  0.1583208E+03  0.7546771E-02  0.1190606E+00
         -5   -1    0    0    0  501 -0.00000000000E+00  0.00000000000E+00  0.80222619561E+02  0.80360180993E+02  0.47000000000E+01 0. -1.
          5   -1    0    0  501    0  0.00000000000E+00 -0.00000000000E+00 -0.34124105101E+03  0.34127341662E+03  0.47000000000E+01 0. -1.
         25    2    1    2    0    0  0.94699638361E+02 -0.21719622888E+02 -0.68839239392E+02  0.17263926320E+03  0.12500284314E+03 0.  0.
         25    2    1    2    0    0 -0.94699638361E+02  0.21719622888E+02 -0.19217919206E+03  0.24899433442E+03  0.12500229274E+03 0.  0.
          5    1    4    4  502    0  0.52848245435E+01  0.44262928884E+02 -0.21182280863E+02  0.49577366473E+02  0.47000000000E+01 0. -1.
         -5    1    4    4    0  502 -0.99984462905E+02 -0.22543305997E+02 -0.17099691119E+03  0.19941696795E+03  0.47000000000E+01 0. -1.
          5    1    3    3  503    0  0.54127670934E+01 -0.23747401786E+02 -0.78838175673E+02  0.82648563706E+02  0.47000000000E+01 0. -1.
         -5    1    3    3    0  503  0.89286871268E+02  0.20277788986E+01  0.99989362808E+01  0.89990699491E+02  0.47000000000E+01 0. -1.
<mgrwt>
<rscale>  0 0.15832069E+03</rscale>
<asrwt>0</asrwt>
<pdfrwt beam="2">  1        5 0.52511694E-01 0.15832080E+03</pdfrwt>
<pdfrwt beam="1">  1       -5 0.12355013E-01 0.15832080E+03</pdfrwt>
<totfact> 0.14383249E+02</totfact>
</mgrwt>
</event>
<event>
 8    1  0.1865596E-007  0.1787511E+03  0.7546771E-02  0.1169020E+00
         -5   -1    0    0    0  501 -0.00000000000E+00  0.00000000000E+00  0.43268532767E+03  0.43271085355E+03  0.47000000000E+01 0.  1.
          5   -1    0    0  501    0  0.00000000000E+00 -0.00000000000E+00 -0.75306786643E+02  0.75453310825E+02  0.47000000000E+01 0.  1.
         25    2    1    2    0    0  0.73553686154E+02 -0.10447664360E+03  0.21530569040E+03  0.27982965516E+03  0.12499032676E+03 0.  0.
         25    2    1    2    0    0 -0.73553686154E+02  0.10447664360E+03  0.14207285063E+03  0.22833450922E+03  0.12500575750E+03 0.  0.
          5    1    3    3  502    0  0.79253445321E+02 -0.16907549252E+02  0.14923601748E+03  0.16988364468E+03  0.47000000000E+01 0.  1.
         -5    1    3    3    0  502 -0.56997591671E+01 -0.87569094352E+02  0.66069672918E+02  0.10994601048E+03  0.47000000000E+01 0.  1.
          5    1    4    4  503    0 -0.10134064528E+03  0.51077210085E+02  0.11667376324E+03  0.16283017167E+03  0.47000000000E+01 0.  1.
         -5    1    4    4    0  503  0.27786959129E+02  0.53399433519E+02  0.25399087388E+02  0.65504337550E+02  0.47000000000E+01 0.  1.
<mgrwt>
<rscale>  0 0.17874840E+03</rscale>
<asrwt>0</asrwt>
<pdfrwt beam="2">  1        5 0.11598894E-01 0.17875109E+03</pdfrwt>
<pdfrwt beam="1">  1       -5 0.66580207E-01 0.17875109E+03</pdfrwt>
<totfact> 0.99170710E+01</totfact>
</mgrwt>
</event>
<event>
 8    1  0.1865596E-007  0.1368783E+03  0.7546771E-02  0.1217604E+00
         -5   -1    0    0    0  501 -0.00000000000E+00  0.00000000000E+00  0.66719978948E+03  0.66721634353E+03  0.47000000000E+01 0.  1.
          5   -1    0    0  501    0  0.00000000000E+00 -0.00000000000E+00 -0.31958890435E+02  0.32302641964E+02  0.47000000000E+01 0.  1.
         25    2    1    2    0    0  0.42181144566E+02 -0.36500976482E+02  0.44216210361E+03  0.46286390772E+03  0.12499640379E+03 0.  0.
         25    2    1    2    0    0 -0.42181144566E+02  0.36500976482E+02  0.19307879543E+03  0.23665507778E+03  0.12495853052E+03 0.  0.
          5    1    3    3  502    0 -0.33491178857E+02  0.29891307698E+01  0.25317946522E+03  0.25544573900E+03  0.47000000000E+01 0. -1.
         -5    1    3    3    0  502  0.75672323424E+02 -0.39490107252E+02  0.18898263839E+03  0.20741816872E+03  0.47000000000E+01 0. -1.
          5    1    4    4  503    0 -0.46303820442E+02  0.25258233213E+02  0.20933263316E+03  0.21592652323E+03  0.47000000000E+01 0. -1.
         -5    1    4    4    0  503  0.41226758761E+01  0.11242743269E+02 -0.16253837724E+02  0.20728554541E+02  0.47000000000E+01 0. -1.
<mgrwt>
<rscale>  0 0.13686966E+03</rscale>
<asrwt>0</asrwt>
<pdfrwt beam="2">  1        5 0.49444683E-02 0.13687831E+03</pdfrwt>
<pdfrwt beam="1">  1       -5 0.10267384E+00 0.13687831E+03</pdfrwt>
<totfact> 0.14296693E+02</totfact>
</mgrwt>
</event>
<event>
 8    1  0.1865596E-007  0.1361608E+03  0.7546771E-02  0.1218593E+00
         -5   -1    0    0    0  501 -0.00000000000E+00  0.00000000000E+00  0.96271812757E+03  0.96272960023E+03  0.47000000000E+01 0.  1.
          5   -1    0    0  501    0  0.00000000000E+00 -0.00000000000E+00 -0.21776364830E+02  0.22277793095E+02  0.47000000000E+01 0.  1.
         25    2    1    2    0    0 -0.50558270584E+02  0.18923207272E+02  0.64544093966E+03  0.65964530755E+03  0.12499479459E+03 0.  0.
         25    2    1    2    0    0  0.50558270584E+02 -0.18923207272E+02  0.29550082308E+03  0.32536208578E+03  0.12500209568E+03 0.  0.
          5    1    3    3  502    0 -0.38880364462E+02  0.46187163434E+02  0.61082351357E+03  0.61381788141E+03  0.47000000000E+01 0.  1.
         -5    1    3    3    0  502 -0.11677906122E+02 -0.27263956162E+02  0.34617426096E+02  0.45827426139E+02  0.47000000000E+01 0.  1.
          5    1    4    4  503    0  0.89873298733E+01 -0.43214518556E+02  0.26383539211E+03  0.26754339992E+03  0.47000000000E+01 0.  1.
         -5    1    4    4    0  503  0.41570940711E+02  0.24291311284E+02  0.31665430965E+02  0.57818685852E+02  0.47000000000E+01 0.  1.
<mgrwt>
<rscale>  0 0.13615908E+03</rscale>
<asrwt>0</asrwt>
<pdfrwt beam="2">  1        5 0.33896626E-02 0.13616075E+03</pdfrwt>
<pdfrwt beam="1">  1       -5 0.14814999E+00 0.13616075E+03</pdfrwt>
<totfact> 0.10337343E+02</totfact>
</mgrwt>
</event>
<event>
 8    1  0.1865596E-007  0.1282803E+03  0.7546771E-02  0.1230035E+00
         -5   -1    0    0    0  501 -0.00000000000E+00  0.00000000000E+00  0.26016581415E+02  0.26437709971E+02  0.47000000000E+01 0.  1.
          5   -1    0    0  501    0  0.00000000000E+00 -0.00000000000E+00 -0.78336395720E+03  0.78337805652E+03  0.47000000000E+01 0.  1.
         25    2    1    2    0    0  0.88130602597E+01 -0.27387033649E+02 -0.19776807877E+03  0.23572097248E+03  0.12499777695E+03 0.  0.
         25    2    1    2    0    0 -0.88130602597E+01  0.27387033649E+02 -0.55957929701E+03  0.57409479401E+03  0.12501249227E+03 0.  0.
          5    1    4    4  502    0  0.31427327025E+02 -0.34873810795E+02 -0.31407482777E+03  0.31759872009E+03  0.47000000000E+01 0.  1.
         -5    1    4    4    0  502 -0.40240387285E+02  0.62260844444E+02 -0.24550446924E+03  0.25649607392E+03  0.47000000000E+01 0.  1.
          5    1    3    3  503    0  0.63773029445E+02 -0.30825310071E+02 -0.90184470870E+02  0.11477163331E+03  0.47000000000E+01 0.  1.
         -5    1    3    3    0  503 -0.54959969185E+02  0.34382764218E+01 -0.10758360790E+03  0.12094933918E+03  0.47000000000E+01 0.  1.
<mgrwt>
<rscale>  0 0.12827674E+03</rscale>
<asrwt>0</asrwt>
<pdfrwt beam="2">  1        5 0.12055099E+00 0.12828033E+03</pdfrwt>
<pdfrwt beam="1">  1       -5 0.40360307E-02 0.12828033E+03</pdfrwt>
<totfact> 0.13106238E+02</totfact>
</mgrwt>
</event>
<event>
 8    1  0.1865596E-007  0.1251121E+03  0.7546771E-02  0.1234903E+00
          5   -1    0    0  501    0  0.00000000000E+00  0.00000000000E+00  0.75300473539E+03  0.75301940315E+03  0.47000000000E+01 0.  1.
         -5   -1    0    0    0  501 -0.00000000000E+00 -0.00000000000E+00 -0.20535657751E+02  0.21066638063E+02  0.47000000000E+01 0.  1.
         25    2    1    2    0    0 -0.40592512058E+01  0.45246402522E+01  0.35096879858E+03  0.37259445325E+03  0.12494230321E+03 0.  0.
         25    2    1    2    0    0  0.40592512058E+01 -0.45246402522E+01  0.38150027906E+03  0.40149158796E+03  0.12496432446E+03 0.  0.
          5    1    3    3  502    0  0.12455328125E+01 -0.37041356975E+02  0.27500493255E+02  0.46389445004E+02  0.47000000000E+01 0.  1.
         -5    1    3    3    0  502 -0.53047840182E+01  0.41565997227E+02  0.32346830532E+03  0.32620500825E+03  0.47000000000E+01 0.  1.
          5    1    4    4  503    0 -0.18482709047E+02  0.54873562202E+02  0.22826899438E+03  0.23554520194E+03  0.47000000000E+01 0. -1.
         -5    1    4    4    0  503  0.22541960253E+02 -0.59398202454E+02  0.15323128468E+03  0.16594638601E+03  0.47000000000E+01 0. -1.
<mgrwt>
<rscale>  0 0.12510658E+03</rscale>
<asrwt>0</asrwt>
<pdfrwt beam="1">  1        5 0.11588884E+00 0.12511208E+03</pdfrwt>
<pdfrwt beam="2">  1       -5 0.32013054E-02 0.12511208E+03</pdfrwt>
<totfact> 0.20931482E+02</totfact>
</mgrwt>
</event>
<event>
 8    1  0.1865596E-007  0.2557901E+03  0.7546771E-02  0.1109700E+00
         -5   -1    0    0    0  501 -0.00000000000E+00  0.00000000000E+00  0.76871400108E+02  0.77014947605E+02  0.47000000000E+01 0. -1.
          5   -1    0    0  501    0  0.00000000000E+00 -0.00000000000E+00 -0.97274638850E+03  0.97275774288E+03  0.47000000000E+01 0. -1.
         25    2    1    2    0    0 -0.15896379740E+03 -0.15661300530E+03 -0.26163814879E+03  0.36589775133E+03  0.12501808354E+03 0.  0.
         25    2    1    2    0    0  0.15896379740E+03  0.15661300530E+03 -0.63423683960E+03  0.68387493916E+03  0.12502576292E+03 0.  0.
          5    1    3    3  502    0 -0.50723349843E+02 -0.25090423590E+02 -0.15452451532E+03  0.16462777229E+03  0.47000000000E+01 0.  1.
         -5    1    3    3    0  502 -0.10824044756E+03 -0.13152258171E+03 -0.10711363347E+03  0.20126997904E+03  0.47000000000E+01 0.  1.
          5    1    4    4  503    0  0.70877899922E+02  0.15098351897E+03 -0.39304163457E+03  0.42699357864E+03  0.47000000000E+01 0.  1.
         -5    1    4    4    0  503  0.88085897477E+02  0.56294863255E+01 -0.24119520504E+03  0.25688136052E+03  0.47000000000E+01 0.  1.
<mgrwt>
<rscale>  0 0.25578914E+03</rscale>
<asrwt>0</asrwt>
<pdfrwt beam="2">  1        5 0.14966520E+00 0.25579008E+03</pdfrwt>
<pdfrwt beam="1">  1       -5 0.11838285E-01 0.25579008E+03</pdfrwt>
<totfact> 0.14104713E+01</totfact>
</mgrwt>
</event>
<event>
 8    1  0.1865596E-007  0.1436217E+03  0.7546771E-02  0.1208538E+00
         -5   -1    0    0    0  501 -0.00000000000E+00  0.00000000000E+00  0.35024385341E+02  0.35338330019E+02  0.47000000000E+01 0.  1.
          5   -1    0    0  501    0  0.00000000000E+00 -0.00000000000E+00 -0.59938558650E+03  0.59940401342E+03  0.47000000000E+01 0.  1.
         25    2    1    2    0    0 -0.69976120697E+02  0.10281619716E+02 -0.23472383536E+03  0.27517596576E+03  0.12499665626E+03 0.  0.
         25    2    1    2    0    0  0.69976120697E+02 -0.10281619716E+02 -0.32963736580E+03  0.35956637767E+03  0.12499927141E+03 0.  0.
          5    1    3    3  502    0 -0.67101962209E+02 -0.49457099212E+02 -0.14245347566E+03  0.16511741496E+03  0.47000000000E+01 0. -1.
         -5    1    3    3    0  502 -0.28741584885E+01  0.59738718928E+02 -0.92270359698E+02  0.11005855080E+03  0.47000000000E+01 0. -1.
          5    1    4    4  503    0  0.10623740527E+03 -0.82403460992E+01 -0.23420990984E+03  0.25735318426E+03  0.47000000000E+01 0. -1.
         -5    1    4    4    0  503 -0.36261284575E+02 -0.20412736169E+01 -0.95427455961E+02  0.10221319342E+03  0.47000000000E+01 0. -1.
<mgrwt>
<rscale>  0 0.14362111E+03</rscale>
<asrwt>0</asrwt>
<pdfrwt beam="2">  1        5 0.92238727E-01 0.14362168E+03</pdfrwt>
<pdfrwt beam="1">  1       -5 0.54139344E-02 0.14362168E+03</pdfrwt>
<totfact> 0.16179251E+02</totfact>
</mgrwt>
</event>
<event>
 8    1  0.1865596E-007  0.1316443E+03  0.7546771E-02  0.1225039E+00
          5   -1    0    0  501    0  0.00000000000E+00  0.00000000000E+00  0.81319775424E+03  0.81321133630E+03  0.47000000000E+01 0.  1.
         -5   -1    0    0    0  501 -0.00000000000E+00 -0.00000000000E+00 -0.31069369397E+02  0.31422853383E+02  0.47000000000E+01 0.  1.
         25    2    1    2    0    0 -0.39925329376E+02  0.10543536692E+02  0.15279136967E+03  0.20167595614E+03  0.12499116187E+03 0.  0.
         25    2    1    2    0    0  0.39925329376E+02 -0.10543536692E+02  0.62933701517E+03  0.64295823355E+03  0.12500005335E+03 0.  0.
          5    1    4    4  502    0  0.16793740317E+02 -0.22795852902E+02  0.60849008165E+03  0.60916660290E+03  0.47000000000E+01 0.  1.
         -5    1    4    4    0  502  0.23131589060E+02  0.12252316210E+02  0.20846933520E+02  0.33791630652E+02  0.47000000000E+01 0.  1.
          5    1    3    3  503    0  0.22722188839E+02 -0.22447128637E+02 -0.10043801261E+01  0.32299693948E+02  0.47000000000E+01 0. -1.
         -5    1    3    3    0  503 -0.62647518215E+02  0.32990665329E+02  0.15379574980E+03  0.16937626219E+03  0.47000000000E+01 0. -1.
<mgrwt>
<rscale>  0 0.13164215E+03</rscale>
<asrwt>0</asrwt>
<pdfrwt beam="1">  1        5 0.12513562E+00 0.13164426E+03</pdfrwt>
<pdfrwt beam="2">  1       -5 0.48081375E-02 0.13164426E+03</pdfrwt>
<totfact> 0.90048553E+01</totfact>
</mgrwt>
</event>
<event>
 8    1  0.1865596E-007  0.1401328E+03  0.7546771E-02  0.1213151E+00
          5   -1    0    0  501    0  0.00000000000E+00  0.00000000000E+00  0.88970459573E+02  0.89094515413E+02  0.47000000000E+01 0. -1.
         -5   -1    0    0    0  501 -0.00000000000E+00 -0.00000000000E+00 -0.22360408879E+03  0.22365347868E+03  0.47000000000E+01 0. -1.
         25    2    1    2    0    0 -0.28510295211E+02 -0.56559427358E+02 -0.48629944917E+02  0.14832826053E+03  0.12499838228E+03 0.  0.
         25    2    1    2    0    0  0.28510295211E+02  0.56559427358E+02 -0.86003684301E+02  0.16441973357E+03  0.12500163725E+03 0.  0.
          5    1    4    4  502    0 -0.45674190853E+02  0.46041432139E+02 -0.41772759960E+02  0.77285177480E+02  0.47000000000E+01 0. -1.
         -5    1    4    4    0  502  0.74184486064E+02  0.10517995219E+02 -0.44230924341E+02  0.87134556085E+02  0.47000000000E+01 0. -1.
          5    1    3    3  503    0  0.17590231359E+02 -0.83072617860E+02 -0.18530857611E+02  0.87039983692E+02  0.47000000000E+01 0.  1.
         -5    1    3    3    0  503 -0.46100526569E+02  0.26513190502E+02 -0.30099087306E+02  0.61288276833E+02  0.47000000000E+01 0.  1.
<mgrwt>
<rscale>  0 0.14013212E+03</rscale>
<asrwt>0</asrwt>
<pdfrwt beam="1">  1        5 0.13701105E-01 0.14013285E+03</pdfrwt>
<pdfrwt beam="2">  1       -5 0.34413971E-01 0.14013285E+03</pdfrwt>
<totfact> 0.27527482E+02</totfact>
</mgrwt>
</event>
<event>
 8    1  0.1865596E-007  0.1536125E+03  0.7546771E-02  0.1196103E+00
         -5   -1    0    0    0  501 -0.00000000000E+00  0.00000000000E+00  0.59309841423E+02  0.59495775393E+02  0.47000000000E+01 0. -1.
          5   -1    0    0  501    0  0.00000000000E+00 -0.00000000000E+00 -0.49111444417E+03  0.49113693332E+03  0.47000000000E+01 0. -1.
         25    2    1    2    0    0 -0.86332371390E+02 -0.22748563578E+02 -0.95425778889E+02  0.18083936499E+03  0.12500408456E+03 0.  0.
         25    2    1    2    0    0  0.86332371390E+02  0.22748563578E+02 -0.33637882386E+03  0.36979334373E+03  0.12500251370E+03 0.  0.
          5    1    3    3  502    0 -0.55892058215E+01  0.19295359073E+02 -0.86867073159E+02  0.89283416728E+02  0.47000000000E+01 0.  1.
         -5    1    3    3    0  502 -0.80743165568E+02 -0.42043922651E+02 -0.85587057301E+01  0.91555948259E+02  0.47000000000E+01 0.  1.
          5    1    4    4  503    0  0.25475640175E+02  0.70001817236E+02 -0.19347939752E+03  0.20737798804E+03  0.47000000000E+01 0. -1.
         -5    1    4    4    0  503  0.60856731215E+02 -0.47253253658E+02 -0.14289942634E+03  0.16241535569E+03  0.47000000000E+01 0. -1.
<mgrwt>
<rscale>  0 0.15361217E+03</rscale>
<asrwt>0</asrwt>
<pdfrwt beam="2">  1        5 0.75572098E-01 0.15361249E+03</pdfrwt>
<pdfrwt beam="1">  1       -5 0.91406239E-02 0.15361249E+03</pdfrwt>
<totfact> 0.10804311E+02</totfact>
</mgrwt>
</event>
<event>
 8    1  0.1865596E-007  0.1299072E+03  0.7546771E-02  0.1227594E+00
         -5   -1    0    0    0  501 -0.00000000000E+00  0.00000000000E+00  0.35667862573E+03  0.35670959064E+03  0.47000000000E+01 0.  1.
          5   -1    0    0  501    0  0.00000000000E+00 -0.00000000000E+00 -0.48746496541E+02  0.48972552772E+02  0.47000000000E+01 0.  1.
         25    2    1    2    0    0 -0.94430117413E+01 -0.34086500255E+02  0.19041686095E+03  0.23050914473E+03  0.12499929961E+03 0.  0.
         25    2    1    2    0    0  0.94430117413E+01  0.34086500255E+02  0.11751526824E+03  0.17517299868E+03  0.12499872489E+03 0.  0.
          5    1    4    4  502    0 -0.35092539263E+02 -0.33167704864E+02  0.36130916164E+02  0.60490627875E+02  0.47000000000E+01 0. -1.
         -5    1    4    4    0  502  0.44535551005E+02  0.67254205119E+02  0.81384352079E+02  0.11468237080E+03  0.47000000000E+01 0. -1.
          5    1    3    3  503    0 -0.33207882749E+02 -0.52483980533E+02  0.33601448528E+02  0.70770608535E+02  0.47000000000E+01 0.  1.
         -5    1    3    3    0  503  0.23764871008E+02  0.18397480278E+02  0.15681541242E+03  0.15973853620E+03  0.47000000000E+01 0.  1.
<mgrwt>
<rscale>  0 0.12990708E+03</rscale>
<asrwt>0</asrwt>
<pdfrwt beam="2">  1        5 0.75192319E-02 0.12990722E+03</pdfrwt>
<pdfrwt beam="1">  1       -5 0.54893405E-01 0.12990722E+03</pdfrwt>
<totfact> 0.29072549E+02</totfact>
</mgrwt>
</event>
<event>
 8    1  0.1865596E-007  0.1376175E+03  0.7546771E-02  0.1216571E+00
         -5   -1    0    0    0  501 -0.00000000000E+00  0.00000000000E+00  0.23830581834E+03  0.23835216184E+03  0.47000000000E+01 0.  1.
          5   -1    0    0  501    0  0.00000000000E+00 -0.00000000000E+00 -0.81067539104E+02  0.81203669230E+02  0.47000000000E+01 0.  1.
         25    2    1    2    0    0 -0.39983232379E+02 -0.41405766657E+02  0.10186300124E+03  0.17121517129E+03  0.12500186988E+03 0.  0.
         25    2    1    2    0    0  0.39983232379E+02  0.41405766657E+02  0.55375277996E+02  0.14834065978E+03  0.12500173418E+03 0.  0.
          5    1    3    3  502    0 -0.27545784967E+02 -0.74184658547E+02  0.19586340293E+02  0.81656895356E+02  0.47000000000E+01 0. -1.
         -5    1    3    3    0  502 -0.12437447413E+02  0.32778891890E+02  0.82276660949E+02  0.89558275935E+02  0.47000000000E+01 0. -1.
          5    1    4    4  503    0 -0.95139587953E+01  0.45107085402E+02 -0.25829991259E+02  0.53051324337E+02  0.47000000000E+01 0. -1.
         -5    1    4    4    0  503  0.49497191175E+02 -0.37013187449E+01  0.81205269255E+02  0.95289335444E+02  0.47000000000E+01 0. -1.
<mgrwt>
<rscale>  0 0.13761742E+03</rscale>
<asrwt>0</asrwt>
<pdfrwt beam="2">  1        5 0.12485965E-01 0.13761745E+03</pdfrwt>
<pdfrwt beam="1">  1       -5 0.36676470E-01 0.13761745E+03</pdfrwt>
<totfact> 0.28418203E+02</totfact>
</mgrwt>
</event>
<event>
 8    1  0.1865596E-007  0.1255337E+03  0.7546771E-02  0.1234245E+00
          5   -1    0    0  501    0  0.00000000000E+00  0.00000000000E+00  0.63004890574E+02  0.63179951220E+02  0.47000000000E+01 0. -1.
         -5   -1    0    0    0  501 -0.00000000000E+00 -0.00000000000E+00 -0.45724666175E+03  0.45727081657E+03  0.47000000000E+01 0. -1.
         25    2    1    2    0    0 -0.74836005501E+01 -0.85576873126E+01 -0.37246178595E+03  0.39304171374E+03  0.12499907381E+03 0.  0.
         25    2    1    2    0    0  0.74836005501E+01  0.85576873126E+01 -0.21779985225E+02  0.12740905405E+03  0.12501784276E+03 0.  0.
          5    1    4    4  502    0 -0.52264551836E+02 -0.21329678513E+02  0.10461464681E+01  0.56654417185E+02  0.47000000000E+01 0. -1.
         -5    1    4    4    0  502  0.59748152386E+02  0.29887365825E+02 -0.22826131693E+02  0.70754636863E+02  0.47000000000E+01 0. -1.
          5    1    3    3  503    0  0.35297220152E+02  0.24805106773E+02 -0.29603652961E+03  0.29920044107E+03  0.47000000000E+01 0.  1.
         -5    1    3    3    0  503 -0.42780820702E+02 -0.33362794086E+02 -0.76425256341E+02  0.93841272668E+02  0.47000000000E+01 0.  1.
<mgrwt>
<rscale>  0 0.12552898E+03</rscale>
<asrwt>0</asrwt>
<pdfrwt beam="1">  1        5 0.97083846E-02 0.12553366E+03</pdfrwt>
<pdfrwt beam="2">  1       -5 0.70360963E-01 0.12553366E+03</pdfrwt>
<totfact> 0.10716752E+02</totfact>
</mgrwt>
</event>
<event>
 8    1  0.1865596E-007  0.1281076E+03  0.7546771E-02  0.1230292E+00
          5   -1    0    0  501    0  0.00000000000E+00  0.00000000000E+00  0.75045198011E+01  0.88548188827E+01  0.47000000000E+01 0.  1.
         -5   -1    0    0    0  501 -0.00000000000E+00 -0.00000000000E+00 -0.20459723921E+04  0.20459777905E+04  0.47000000000E+01 0.  1.
         25    2    1    2    0    0  0.11991646219E+02  0.25350736939E+02 -0.11646160507E+04  0.11716407730E+04  0.12500038457E+03 0.  0.
         25    2    1    2    0    0 -0.11991646219E+02 -0.25350736939E+02 -0.87385182166E+03  0.88319183637E+03  0.12499741666E+03 0.  0.
          5    1    3    3  502    0 -0.44436143303E+02 -0.16785330606E+02 -0.26534144004E+03  0.26960060823E+03  0.47000000000E+01 0. -1.
         -5    1    3    3    0  502  0.56427789522E+02  0.42136067545E+02 -0.89927461061E+03  0.90204016479E+03  0.47000000000E+01 0. -1.
          5    1    4    4  503    0  0.47919197957E+02 -0.10552454955E+02 -0.61792808181E+03  0.61989096471E+03  0.47000000000E+01 0.  1.
         -5    1    4    4    0  503 -0.59910844176E+02 -0.14798281984E+02 -0.25592373985E+03  0.26330087166E+03  0.47000000000E+01 0.  1.
<mgrwt>
<rscale>  0 0.12810687E+03</rscale>
<asrwt>0</asrwt>
<pdfrwt beam="1">  1        5 0.12588276E-02 0.12810759E+03</pdfrwt>
<pdfrwt beam="2">  1       -5 0.31486886E+00 0.12810759E+03</pdfrwt>
<totfact> 0.38022089E+01</totfact>
</mgrwt>
</event>
<event>
 8    1  0.1865596E-007  0.1452892E+03  0.7546771E-02  0.1206385E+00
         -5   -1    0    0    0  501 -0.00000000000E+00  0.00000000000E+00  0.14814597091E+03  0.14822050701E+03  0.47000000000E+01 0. -1.
          5   -1    0    0  501    0  0.00000000000E+00 -0.00000000000E+00 -0.14558791286E+03  0.14566375792E+03  0.47000000000E+01 0. -1.
         25    2    1    2    0    0  0.55602924141E+02  0.48903445850E+02  0.23226923718E+02  0.14713220910E+03  0.12500065912E+03 0.  0.
         25    2    1    2    0    0 -0.55602924141E+02 -0.48903445850E+02 -0.20668865669E+02  0.14675205583E+03  0.12500292674E+03 0.  0.
          5    1    4    4  502    0  0.12070063559E+02 -0.58669672240E+02  0.24267766275E+02  0.64798390065E+02  0.47000000000E+01 0. -1.
         -5    1    4    4    0  502 -0.67672987700E+02  0.97662263905E+01 -0.44936631944E+02  0.81953665767E+02  0.47000000000E+01 0. -1.
          5    1    3    3  503    0  0.62147593884E+02  0.57902889184E+02  0.62810553127E+02  0.10574650626E+03  0.47000000000E+01 0.  1.
         -5    1    3    3    0  503 -0.65446697429E+01 -0.89994433345E+01 -0.39583629409E+02  0.41385702840E+02  0.47000000000E+01 0.  1.
<mgrwt>
<rscale>  0 0.14528875E+03</rscale>
<asrwt>0</asrwt>
<pdfrwt beam="2">  1        5 0.22409708E-01 0.14528924E+03</pdfrwt>
<pdfrwt beam="1">  1       -5 0.22803256E-01 0.14528924E+03</pdfrwt>
<totfact> 0.25088645E+02</totfact>
</mgrwt>
</event>
<event>
 8    1  0.1865596E-007  0.1717718E+03  0.7546771E-02  0.1176014E+00
          5   -1    0    0  501    0  0.00000000000E+00  0.00000000000E+00  0.52753661317E+02  0.52962616838E+02  0.47000000000E+01 0.  1.
         -5   -1    0    0    0  501 -0.00000000000E+00 -0.00000000000E+00 -0.12021087949E+04  0.12021179829E+04  0.47000000000E+01 0.  1.
         25    2    1    2    0    0 -0.95143883509E+02 -0.69465451140E+02 -0.10340098315E+04  0.10481802698E+04  0.12501095490E+03 0.  0.
         25    2    1    2    0    0  0.95143883509E+02  0.69465451140E+02 -0.11534530207E+03  0.20690032993E+03  0.12500160137E+03 0.  0.
          5    1    3    3  502    0 -0.12095273721E+03 -0.76439922215E+02 -0.81279765285E+03  0.82530887601E+03  0.47000000000E+01 0. -1.
         -5    1    3    3    0  502  0.25808853703E+02  0.69744710748E+01 -0.22121217867E+03  0.22287139379E+03  0.47000000000E+01 0. -1.
          5    1    4    4  503    0  0.10489773110E+03  0.13134490014E+02 -0.42152090930E+02  0.11390758354E+03  0.47000000000E+01 0. -1.
         -5    1    4    4    0  503 -0.97538475940E+01  0.56330961126E+02 -0.73193211139E+02  0.92992746390E+02  0.47000000000E+01 0. -1.
<mgrwt>
<rscale>  0 0.17177008E+03</rscale>
<asrwt>0</asrwt>
<pdfrwt beam="1">  1        5 0.81327291E-02 0.17177179E+03</pdfrwt>
<pdfrwt beam="2">  1       -5 0.18495657E+00 0.17177179E+03</pdfrwt>
<totfact> 0.13565278E+01</totfact>
</mgrwt>
</event>
<event>
 8    1  0.1865596E-007  0.1335894E+03  0.7546771E-02  0.1222227E+00
          5   -1    0    0  501    0  0.00000000000E+00  0.00000000000E+00  0.35480627147E+03  0.35483739977E+03  0.47000000000E+01 0. -1.
         -5   -1    0    0    0  501 -0.00000000000E+00 -0.00000000000E+00 -0.58856599926E+02  0.59043961206E+02  0.47000000000E+01 0. -1.
         25    2    1    2    0    0 -0.92325028666E+01 -0.46214578616E+02  0.68551269999E+02  0.15014634333E+03  0.12499448552E+03 0.  0.
         25    2    1    2    0    0  0.92325028666E+01  0.46214578616E+02  0.22739840154E+03  0.26373501764E+03  0.12500040048E+03 0.  0.
          5    1    4    4  502    0 -0.64311393354E+01  0.86935025477E+02  0.12641157195E+03  0.15362627942E+03  0.47000000000E+01 0.  1.
         -5    1    4    4    0  502  0.15663642202E+02 -0.40720446861E+02  0.10098682960E+03  0.11010873821E+03  0.47000000000E+01 0.  1.
          5    1    3    3  503    0  0.38964454288E+02 -0.79283611922E+01  0.78017879625E+02  0.87692457773E+02  0.47000000000E+01 0. -1.
         -5    1    3    3    0  503 -0.48196957154E+02 -0.38286217423E+02 -0.94666096262E+01  0.62453885558E+02  0.47000000000E+01 0. -1.
<mgrwt>
<rscale>  0 0.13358801E+03</rscale>
<asrwt>0</asrwt>
<pdfrwt beam="1">  1        5 0.54602386E-01 0.13358940E+03</pdfrwt>
<pdfrwt beam="2">  1       -5 0.90716686E-02 0.13358940E+03</pdfrwt>
<totfact> 0.21515240E+02</totfact>
</mgrwt>
</event>
<event>
 8    1  0.1865596E-007  0.1346522E+03  0.7546771E-02  0.1220716E+00
          5   -1    0    0  501    0  0.00000000000E+00  0.00000000000E+00  0.15899105896E+03  0.15906051310E+03  0.47000000000E+01 0. -1.
         -5   -1    0    0    0  501 -0.00000000000E+00 -0.00000000000E+00 -0.11422054337E+03  0.11431720137E+03  0.47000000000E+01 0. -1.
         25    2    1    2    0    0 -0.61803534153E+01 -0.49639251728E+02  0.14975067644E+02  0.13546838010E+03  0.12500070910E+03 0.  0.
         25    2    1    2    0    0  0.61803534153E+01  0.49639251728E+02  0.29795447941E+02  0.13790933437E+03  0.12501585383E+03 0.  0.
          5    1    3    3  502    0  0.64217142316E+01 -0.85386148648E+02 -0.14820618642E+02  0.87027429765E+02  0.47000000000E+01 0. -1.
         -5    1    3    3    0  502 -0.12602067647E+02  0.35746896920E+02  0.29795686285E+02  0.48440950337E+02  0.47000000000E+01 0. -1.
          5    1    4    4  503    0 -0.37278608484E+02 -0.60469441041E+01  0.51342508554E+02  0.63909337097E+02  0.47000000000E+01 0.  1.
         -5    1    4    4    0  503  0.43458961899E+02  0.55686195832E+02 -0.21547060613E+02  0.73999997275E+02  0.47000000000E+01 0.  1.
<mgrwt>
<rscale>  0 0.13464869E+03</rscale>
<asrwt>0</asrwt>
<pdfrwt beam="1">  1        5 0.24472941E-01 0.13465220E+03</pdfrwt>
<pdfrwt beam="2">  1       -5 0.17585169E-01 0.13465220E+03</pdfrwt>
<totfact> 0.33590916E+02</totfact>
</mgrwt>
</event>
<event>
 8    1  0.1865596E-007  0.1942456E+03  0.7546771E-02  0.1154688E+00
         -5   -1    0    0    0  501 -0.00000000000E+00  0.00000000000E+00  0.10152469816E+03  0.10163343120E+03  0.47000000000E+01 0. -1.
          5   -1    0    0  501    0  0.00000000000E+00 -0.00000000000E+00 -0.37412472371E+03  0.37415424479E+03  0.47000000000E+01 0. -1.
         25    2    1    2    0    0  0.14537236539E+03 -0.31169565464E+02 -0.11567837717E+03  0.22607633571E+03  0.12499742475E+03 0.  0.
         25    2    1    2    0    0 -0.14537236539E+03  0.31169565464E+02 -0.15692164838E+03  0.24971134027E+03  0.12500673301E+03 0.  0.
          5    1    4    4  502    0  0.85645183536E+01  0.15989708169E+02 -0.69477467701E+02  0.71959921207E+02  0.47000000000E+01 0. -1.
         -5    1    4    4    0  502 -0.15393688375E+03  0.15179857295E+02 -0.87444180683E+02  0.17775141907E+03  0.47000000000E+01 0. -1.
          5    1    3    3  503    0 -0.11179918562E+02 -0.35534871418E+02 -0.23203139091E+02  0.44138343075E+02  0.47000000000E+01 0. -1.
         -5    1    3    3    0  503  0.15655228395E+03  0.43653059547E+01 -0.92475238078E+02  0.18193799264E+03  0.47000000000E+01 0. -1.
<mgrwt>
<rscale>  0 0.19424409E+03</rscale>
<asrwt>0</asrwt>
<pdfrwt beam="2">  1        5 0.57568284E-01 0.19424559E+03</pdfrwt>
<pdfrwt beam="1">  1       -5 0.15629819E-01 0.19424559E+03</pdfrwt>
<totfact> 0.81882998E+01</totfact>
</mgrwt>
</event>
<event>
 8    1  0.1865596E-007  0.1514199E+03  0.7546771E-02  0.1198745E+00
         -5   -1    0    0    0  501 -0.00000000000E+00  0.00000000000E+00  0.56982337155E+03  0.56984275442E+03  0.47000000000E+01 0. -1.
          5   -1    0    0  501    0  0.00000000000E+00 -0.00000000000E+00 -0.48794265091E+02  0.49020101038E+02  0.47000000000E+01 0. -1.
         25    2    1    2    0    0  0.56088918571E+02 -0.64475056888E+02  0.39097512426E+03  0.41927263034E+03  0.12499996405E+03 0.  0.
         25    2    1    2    0    0 -0.56088918571E+02  0.64475056888E+02  0.13005398219E+03  0.19959022512E+03  0.12497687758E+03 0.  0.
          5    1    3    3  502    0 -0.21231717320E+02 -0.65529599472E+02  0.23780854132E+03  0.24762856570E+03  0.47000000000E+01 0. -1.
         -5    1    3    3    0  502  0.77320635891E+02  0.10545425840E+01  0.15316658294E+03  0.17164406464E+03  0.47000000000E+01 0. -1.
          5    1    4    4  503    0  0.33151758204E+02  0.28364898307E+02  0.79366859588E+02  0.90690655135E+02  0.47000000000E+01 0.  1.
         -5    1    4    4    0  503 -0.89240676775E+02  0.36110158581E+02  0.50687122606E+02  0.10889956998E+03  0.47000000000E+01 0.  1.
<mgrwt>
<rscale>  0 0.15141515E+03</rscale>
<asrwt>0</asrwt>
<pdfrwt beam="2">  1        5 0.75256725E-02 0.15141992E+03</pdfrwt>
<pdfrwt beam="1">  1       -5 0.87684003E-01 0.15141992E+03</pdfrwt>
<totfact> 0.10637261E+02</totfact>
</mgrwt>
</event>
<event>
 8    1  0.1865596E-007  0.1587911E+03  0.7546771E-02  0.1190069E+00
          5   -1    0    0  501    0  0.00000000000E+00  0.00000000000E+00  0.25811240101E+03  0.25815518890E+03  0.47000000000E+01 0.  1.
         -5   -1    0    0    0  501 -0.00000000000E+00 -0.00000000000E+00 -0.11832325821E+03  0.11841656740E+03  0.47000000000E+01 0.  1.
         25    2    1    2    0    0  0.88943917335E+02 -0.40966786478E+02 -0.88907501594E+01  0.15903977232E+03  0.12500122286E+03 0.  0.
         25    2    1    2    0    0 -0.88943917335E+02  0.40966786478E+02  0.14867989296E+03  0.21753198397E+03  0.12500062182E+03 0.  0.
          5    1    4    4  502    0  0.12084764195E+02 -0.86980280122E+01 -0.13100315090E+02  0.20381498287E+02  0.47000000000E+01 0.  1.
         -5    1    4    4    0  502 -0.10102868153E+03  0.49664814490E+02  0.16178020805E+03  0.19715048569E+03  0.47000000000E+01 0.  1.
          5    1    3    3  503    0  0.43758191661E+02 -0.41085003393E+02  0.54392705093E+02  0.81138235182E+02  0.47000000000E+01 0.  1.
         -5    1    3    3    0  503  0.45185725674E+02  0.11821691450E+00 -0.63283455252E+02  0.77901537139E+02  0.47000000000E+01 0.  1.
<mgrwt>
<rscale>  0 0.15879095E+03</rscale>
<asrwt>0</asrwt>
<pdfrwt beam="1">  1        5 0.39720069E-01 0.15879107E+03</pdfrwt>
<pdfrwt beam="2">  1       -5 0.18214047E-01 0.15879107E+03</pdfrwt>
<totfact> 0.12770408E+02</totfact>
</mgrwt>
</event>
<event>
 8    1  0.1865596E-007  0.1505351E+03  0.7546771E-02  0.1199824E+00
          5   -1    0    0  501    0  0.00000000000E+00  0.00000000000E+00  0.74337784394E+02  0.74486214756E+02  0.47000000000E+01 0. -1.
         -5   -1    0    0    0  501 -0.00000000000E+00 -0.00000000000E+00 -0.39678635321E+03  0.39681418838E+03  0.47000000000E+01 0. -1.
         25    2    1    2    0    0 -0.44453342773E+02  0.71037129275E+02 -0.27496438357E+03  0.31347445485E+03  0.12505378119E+03 0.  0.
         25    2    1    2    0    0  0.44453342773E+02 -0.71037129275E+02 -0.47484185252E+02  0.15782594829E+03  0.12502763168E+03 0.  0.
          5    1    3    3  502    0 -0.80205719729E+01  0.15619576652E+02  0.10075951770E+02  0.20782578127E+02  0.47000000000E+01 0.  1.
         -5    1    3    3    0  502 -0.36432770800E+02  0.55417552623E+02 -0.28504033534E+03  0.29269187672E+03  0.47000000000E+01 0.  1.
          5    1    4    4  503    0 -0.35874461650E+02  0.71391546099E+01 -0.21426968849E+02  0.42651489086E+02  0.47000000000E+01 0.  1.
         -5    1    4    4    0  503  0.80327804423E+02 -0.78176283885E+02 -0.26057216402E+02  0.11517445920E+03  0.47000000000E+01 0.  1.
<mgrwt>
<rscale>  0 0.15052969E+03</rscale>
<asrwt>0</asrwt>
<pdfrwt beam="1">  1        5 0.11450141E-01 0.15053512E+03</pdfrwt>
<pdfrwt beam="2">  1       -5 0.61057612E-01 0.15053512E+03</pdfrwt>
<totfact> 0.11677472E+02</totfact>
</mgrwt>
</event>
<event>
 8    1  0.1865596E-007  0.1284198E+03  0.7546771E-02  0.1229842E+00
         -5   -1    0    0    0  501 -0.00000000000E+00  0.00000000000E+00  0.19304974385E+03  0.19310694861E+03  0.47000000000E+01 0. -1.
          5   -1    0    0  501    0  0.00000000000E+00 -0.00000000000E+00 -0.85953416229E+02  0.86081820157E+02  0.47000000000E+01 0. -1.
         25    2    1    2    0    0 -0.12129191960E+02  0.26829960885E+02  0.66144796809E+02  0.14445337631E+03  0.12499871873E+03 0.  0.
         25    2    1    2    0    0  0.12129191960E+02 -0.26829960885E+02  0.40951530812E+02  0.13473539245E+03  0.12493852090E+03 0.  0.
          5    1    4    4  502    0  0.40485354678E+02 -0.16922650672E+02  0.76280200602E+02  0.88126040720E+02  0.47000000000E+01 0. -1.
         -5    1    4    4    0  502 -0.28356162718E+02 -0.99073102128E+01 -0.35328669790E+02  0.46609351732E+02  0.47000000000E+01 0. -1.
          5    1    3    3  503    0  0.12442365363E+02 -0.44071954929E+02  0.49205813869E+02  0.67382874572E+02  0.47000000000E+01 0.  1.
         -5    1    3    3    0  503 -0.24571557323E+02  0.70901915814E+02  0.16938982940E+02  0.77070501740E+02  0.47000000000E+01 0.  1.
<mgrwt>
<rscale>  0 0.12840514E+03</rscale>
<asrwt>0</asrwt>
<pdfrwt beam="2">  1        5 0.13237880E-01 0.12841980E+03</pdfrwt>
<pdfrwt beam="1">  1       -5 0.29714238E-01 0.12841980E+03</pdfrwt>
<totfact> 0.37962312E+02</totfact>
</mgrwt>
</event>
<event>
 8    1  0.1865596E-007  0.1890600E+03  0.7546771E-02  0.1159312E+00
          5   -1    0    0  501    0  0.00000000000E+00  0.00000000000E+00  0.11279074526E+03  0.11288862749E+03  0.47000000000E+01 0. -1.
         -5   -1    0    0    0  501 -0.00000000000E+00 -0.00000000000E+00 -0.60481473311E+03  0.60483299463E+03  0.47000000000E+01 0. -1.
         25    2    1    2    0    0  0.14121584416E+03  0.13281618393E+02 -0.49369221780E+03  0.52865461545E+03  0.12500152195E+03 0.  0.
         25    2    1    2    0    0 -0.14121584416E+03 -0.13281618393E+02  0.16682299449E+01  0.18906700667E+03  0.12500093596E+03 0.  0.
          5    1    3    3  502    0  0.75855522824E+02 -0.55441359817E+02 -0.24108342877E+03  0.25878777860E+03  0.47000000000E+01 0. -1.
         -5    1    3    3    0  502  0.65360321336E+02  0.68722978210E+02 -0.25260878902E+03  0.26986683685E+03  0.47000000000E+01 0. -1.
          5    1    4    4  503    0 -0.45689753255E+02 -0.54149319909E+01  0.60766658051E+02  0.76364597633E+02  0.47000000000E+01 0. -1.
         -5    1    4    4    0  503 -0.95526090905E+02 -0.78666864017E+01 -0.59098428106E+02  0.11270240904E+03  0.47000000000E+01 0. -1.
<mgrwt>
<rscale>  0 0.18905994E+03</rscale>
<asrwt>0</asrwt>
<pdfrwt beam="1">  1        5 0.17361357E-01 0.18906003E+03</pdfrwt>
<pdfrwt beam="2">  1       -5 0.93057353E-01 0.18906003E+03</pdfrwt>
<totfact> 0.22306359E+01</totfact>
</mgrwt>
</event>
<event>
 8    1  0.1865596E-007  0.1400736E+03  0.7546771E-02  0.1213233E+00
         -5   -1    0    0    0  501 -0.00000000000E+00  0.00000000000E+00  0.54910840014E+02  0.55111617205E+02  0.47000000000E+01 0. -1.
          5   -1    0    0  501    0  0.00000000000E+00 -0.00000000000E+00 -0.36093228609E+03  0.36096288610E+03  0.47000000000E+01 0. -1.
         25    2    1    2    0    0 -0.55560105524E+02 -0.30120853257E+02 -0.12978392916E+03  0.19095672683E+03  0.12500564838E+03 0.  0.
         25    2    1    2    0    0  0.55560105524E+02  0.30120853257E+02 -0.17623751691E+03  0.22511777647E+03  0.12499663911E+03 0.  0.
          5    1    4    4  502    0  0.62674658672E+02  0.72002737812E+02 -0.13736688009E+03  0.16734472456E+03  0.47000000000E+01 0. -1.
         -5    1    4    4    0  502 -0.71145531483E+01 -0.41881884555E+02 -0.38870636829E+02  0.57773051918E+02  0.47000000000E+01 0. -1.
          5    1    3    3  503    0 -0.74095884238E+02 -0.51288970782E+02 -0.13457718143E+03  0.16203044882E+03  0.47000000000E+01 0.  1.
         -5    1    3    3    0  503  0.18535778714E+02  0.21168117525E+02  0.47932522678E+01  0.28926278008E+02  0.47000000000E+01 0.  1.
<mgrwt>
<rscale>  0 0.14007155E+03</rscale>
<asrwt>0</asrwt>
<pdfrwt beam="2">  1        5 0.55545841E-01 0.14007356E+03</pdfrwt>
<pdfrwt beam="1">  1       -5 0.84656200E-02 0.14007356E+03</pdfrwt>
<totfact> 0.23740066E+02</totfact>
</mgrwt>
</event>
<event>
 8    1  0.1865596E-007  0.1254512E+03  0.7546771E-02  0.1234366E+00
         -5   -1    0    0    0  501 -0.00000000000E+00  0.00000000000E+00  0.19587320701E+02  0.20143314828E+02  0.47000000000E+01 0.  1.
          5   -1    0    0  501    0  0.00000000000E+00 -0.00000000000E+00 -0.12119347610E+04  0.12119438745E+04  0.47000000000E+01 0.  1.
         25    2    1    2    0    0  0.64873321087E+01 -0.84172526489E+01 -0.23348652914E+03  0.26505462015E+03  0.12500022701E+03 0.  0.
         25    2    1    2    0    0 -0.64873321087E+01  0.84172526489E+01 -0.95886091120E+03  0.96703256922E+03  0.12499922909E+03 0.  0.
          5    1    4    4  502    0 -0.32417055531E+02  0.57879698394E+02 -0.41548298154E+03  0.42077205578E+03  0.47000000000E+01 0.  1.
         -5    1    4    4    0  502  0.25929723422E+02 -0.49462445745E+02 -0.54337792967E+03  0.54626051344E+03  0.47000000000E+01 0.  1.
          5    1    3    3  503    0  0.38241322856E+02 -0.56026715944E+02 -0.12969609998E+03  0.14643961221E+03  0.47000000000E+01 0.  1.
         -5    1    3    3    0  503 -0.31753990747E+02  0.47609463295E+02 -0.10379042916E+03  0.11861500794E+03  0.47000000000E+01 0.  1.
<mgrwt>
<rscale>  0 0.12545091E+03</rscale>
<asrwt>0</asrwt>
<pdfrwt beam="2">  1        5 0.18649491E+00 0.12545116E+03</pdfrwt>
<pdfrwt beam="1">  1       -5 0.30569047E-02 0.12545116E+03</pdfrwt>
<totfact> 0.61921000E+01</totfact>
</mgrwt>
</event>
<event>
 8    1  0.1865596E-007  0.1376236E+03  0.7546771E-02  0.1216576E+00
         -5   -1    0    0    0  501 -0.00000000000E+00  0.00000000000E+00  0.93807936039E+02  0.93925602813E+02  0.47000000000E+01 0.  1.
          5   -1    0    0  501    0  0.00000000000E+00 -0.00000000000E+00 -0.22414418280E+03  0.22419345370E+03  0.47000000000E+01 0.  1.
         25    2    1    2    0    0 -0.56959866261E+02 -0.80727058272E+01 -0.11562599513E+03  0.17974879832E+03  0.12502265716E+03 0.  0.
         25    2    1    2    0    0  0.56959866261E+02  0.80727058272E+01 -0.14710251630E+02  0.13837025819E+03  0.12498136623E+03 0.  0.
          5    1    3    3  502    0 -0.49627166107E+02 -0.33292750180E+02 -0.13437438871E+03  0.14713880920E+03  0.47000000000E+01 0. -1.
         -5    1    3    3    0  502 -0.73327001534E+01  0.25220044353E+02  0.18748393583E+02  0.32609989124E+02  0.47000000000E+01 0. -1.
          5    1    4    4  503    0  0.34526591470E+02 -0.38865404374E+02  0.37688591451E+02  0.64382645963E+02  0.47000000000E+01 0.  1.
         -5    1    4    4    0  503  0.22433274791E+02  0.46938110201E+02 -0.52398843081E+02  0.73987612229E+02  0.47000000000E+01 0.  1.
<mgrwt>
<rscale>  0 0.13761424E+03</rscale>
<asrwt>0</asrwt>
<pdfrwt beam="2">  1        5 0.34496562E-01 0.13762362E+03</pdfrwt>
<pdfrwt beam="1">  1       -5 0.14444832E-01 0.13762362E+03</pdfrwt>
<totfact> 0.24757865E+02</totfact>
</mgrwt>
</event>
<event>
 8    1  0.1865596E-007  0.1278059E+03  0.7546771E-02  0.1230754E+00
         -5   -1    0    0    0  501 -0.00000000000E+00  0.00000000000E+00  0.71091570730E+02  0.71246764340E+02  0.47000000000E+01 0.  1.
          5   -1    0    0  501    0  0.00000000000E+00 -0.00000000000E+00 -0.22939187332E+03  0.22944001731E+03  0.47000000000E+01 0.  1.
         25    2    1    2    0    0 -0.18749287893E+02 -0.18931044131E+02 -0.81994176340E+02  0.15183455749E+03  0.12498306952E+03 0.  0.
         25    2    1    2    0    0  0.18749287893E+02  0.18931044131E+02 -0.76306126249E+02  0.14885222416E+03  0.12499775801E+03 0.  0.
          5    1    3    3  502    0  0.25903176396E+02 -0.25255088257E+02  0.18997343681E+02  0.41131290974E+02  0.47000000000E+01 0.  1.
         -5    1    3    3    0  502 -0.44652464290E+02  0.63240441265E+01 -0.10099152002E+03  0.11070326652E+03  0.47000000000E+01 0.  1.
          5    1    4    4  503    0  0.27648812797E+02  0.33141949130E+02 -0.10593411373E+03  0.11448568510E+03  0.47000000000E+01 0. -1.
         -5    1    4    4    0  503 -0.88995249032E+01 -0.14210905000E+02  0.29627987485E+02  0.34366539058E+02  0.47000000000E+01 0. -1.
<mgrwt>
<rscale>  0 0.12780235E+03</rscale>
<asrwt>0</asrwt>
<pdfrwt beam="2">  1        5 0.35306698E-01 0.12780595E+03</pdfrwt>
<pdfrwt beam="1">  1       -5 0.10952806E-01 0.12780595E+03</pdfrwt>
<totfact> 0.37669156E+02</totfact>
</mgrwt>
</event>
<event>
 8    1  0.1865596E-007  0.1330617E+03  0.7546771E-02  0.1222983E+00
          5   -1    0    0  501    0  0.00000000000E+00  0.00000000000E+00  0.11664515781E+02  0.12575807266E+02  0.47000000000E+01 0. -1.
         -5   -1    0    0    0  501 -0.00000000000E+00 -0.00000000000E+00 -0.15706819907E+04  0.15706890226E+04  0.47000000000E+01 0. -1.
         25    2    1    2    0    0  0.36696783754E+02 -0.27089743888E+02 -0.98969191642E+03  0.99859654461E+03  0.12499784524E+03 0.  0.
         25    2    1    2    0    0 -0.36696783754E+02  0.27089743888E+02 -0.56932555848E+03  0.58466828530E+03  0.12499961654E+03 0.  0.
          5    1    4    4  502    0  0.38659758777E+02 -0.15138322205E+01 -0.32544303035E+03  0.32776840092E+03  0.47000000000E+01 0. -1.
         -5    1    4    4    0  502 -0.75356542532E+02  0.28603576109E+02 -0.24388252813E+03  0.25689988438E+03  0.47000000000E+01 0. -1.
          5    1    3    3  503    0  0.44910719265E+01  0.31533746640E+02 -0.71910803819E+03  0.71982845700E+03  0.47000000000E+01 0.  1.
         -5    1    3    3    0  503  0.32205711828E+02 -0.58623490528E+02 -0.27058387823E+03  0.27876808762E+03  0.47000000000E+01 0.  1.
<mgrwt>
<rscale>  0 0.13306127E+03</rscale>
<asrwt>0</asrwt>
<pdfrwt beam="1">  1        5 0.18651824E-02 0.13306169E+03</pdfrwt>
<pdfrwt beam="2">  1       -5 0.24171386E+00 0.13306169E+03</pdfrwt>
<totfact> 0.59975473E+01</totfact>
</mgrwt>
</event>
<event>
 8    1  0.1865596E-007  0.1395487E+03  0.7546771E-02  0.1213943E+00
         -5   -1    0    0    0  501 -0.00000000000E+00  0.00000000000E+00  0.22428715469E+02  0.22915873921E+02  0.47000000000E+01 0. -1.
          5   -1    0    0  501    0  0.00000000000E+00 -0.00000000000E+00 -0.11961000613E+04  0.11961092954E+04  0.47000000000E+01 0. -1.
         25    2    1    2    0    0  0.42613658237E+02  0.45030621954E+02 -0.26302876566E+03  0.29775488922E+03  0.12502064513E+03 0.  0.
         25    2    1    2    0    0 -0.42613658237E+02 -0.45030621954E+02 -0.91064258016E+03  0.92127028013E+03  0.12500135785E+03 0.  0.
          5    1    4    4  502    0  0.46250872520E+01 -0.15321159020E+02 -0.11212091243E+02  0.20098018207E+02  0.47000000000E+01 0. -1.
         -5    1    4    4    0  502 -0.47238745489E+02 -0.29709462934E+02 -0.89943048892E+03  0.90117226192E+03  0.47000000000E+01 0. -1.
          5    1    3    3  503    0 -0.63744956678E+01 -0.37262338012E+02 -0.11712168211E+03  0.12316125385E+03  0.47000000000E+01 0. -1.
         -5    1    3    3    0  503  0.48988153905E+02  0.82292959966E+02 -0.14590708354E+03  0.17459363537E+03  0.47000000000E+01 0. -1.
<mgrwt>
<rscale>  0 0.13954439E+03</rscale>
<asrwt>0</asrwt>
<pdfrwt beam="2">  1        5 0.18405353E+00 0.13954871E+03</pdfrwt>
<pdfrwt beam="1">  1       -5 0.34887566E-02 0.13954871E+03</pdfrwt>
<totfact> 0.53672538E+01</totfact>
</mgrwt>
</event>
<event>
 8    1  0.1865596E-007  0.1268393E+03  0.7546771E-02  0.1232227E+00
         -5   -1    0    0    0  501 -0.00000000000E+00  0.00000000000E+00  0.80853419248E+02  0.80989909274E+02  0.47000000000E+01 0. -1.
          5   -1    0    0  501    0  0.00000000000E+00 -0.00000000000E+00 -0.19878810323E+03  0.19884365714E+03  0.47000000000E+01 0. -1.
         25    2    1    2    0    0  0.14245556128E+02 -0.16096228487E+02 -0.55016590393E+02  0.13824651386E+03  0.12499299555E+03 0.  0.
         25    2    1    2    0    0 -0.14245556128E+02  0.16096228487E+02 -0.62918093585E+02  0.14158705255E+03  0.12500472994E+03 0.  0.
          5    1    4    4  502    0  0.38150876588E+02 -0.15654797634E+02 -0.68282760657E+02  0.79907368098E+02  0.47000000000E+01 0. -1.
         -5    1    4    4    0  502 -0.52396432717E+02  0.31751026121E+02  0.53646670718E+01  0.61679684451E+02  0.47000000000E+01 0. -1.
          5    1    3    3  503    0  0.49614675963E+02  0.29648672613E+02 -0.55445483722E+02  0.80230614629E+02  0.47000000000E+01 0. -1.
         -5    1    3    3    0  503 -0.35369119834E+02 -0.45744901100E+02  0.42889332917E+00  0.58015899234E+02  0.47000000000E+01 0. -1.
<mgrwt>
<rscale>  0 0.12683640E+03</rscale>
<asrwt>0</asrwt>
<pdfrwt beam="2">  1        5 0.30597557E-01 0.12683930E+03</pdfrwt>
<pdfrwt beam="1">  1       -5 0.12453760E-01 0.12683930E+03</pdfrwt>
<totfact> 0.39777968E+02</totfact>
</mgrwt>
</event>
<event>
 8    1  0.1865596E-007  0.1594787E+03  0.7546771E-02  0.1189291E+00
          5   -1    0    0  501    0  0.00000000000E+00  0.00000000000E+00  0.40018056518E+02  0.40293111663E+02  0.47000000000E+01 0.  1.
         -5   -1    0    0    0  501 -0.00000000000E+00 -0.00000000000E+00 -0.73076677858E+03  0.73078189269E+03  0.47000000000E+01 0.  1.
         25    2    1    2    0    0 -0.15067221487E+02  0.97886189712E+02 -0.48635797931E+03  0.51183741851E+03  0.12499892659E+03 0.  0.
         25    2    1    2    0    0  0.15067221487E+02 -0.97886189712E+02 -0.20439074275E+03  0.25923758584E+03  0.12497928984E+03 0.  0.
          5    1    3    3  502    0  0.11112840564E+02 -0.28117852828E+02 -0.10071813937E+03  0.10526320569E+03  0.47000000000E+01 0. -1.
         -5    1    3    3    0  502 -0.26180062051E+02  0.12600404254E+03 -0.38563983994E+03  0.40657421282E+03  0.47000000000E+01 0. -1.
          5    1    4    4  503    0  0.42475757447E+02 -0.11060527552E+03 -0.11670475868E+03  0.16637249665E+03  0.47000000000E+01 0. -1.
         -5    1    4    4    0  503 -0.27408535959E+02  0.12719085807E+02 -0.87685984067E+02  0.92865089183E+02  0.47000000000E+01 0. -1.
<mgrwt>
<rscale>  0 0.15947486E+03</rscale>
<asrwt>0</asrwt>
<pdfrwt beam="1">  1        5 0.61789453E-02 0.15947871E+03</pdfrwt>
<pdfrwt beam="2">  1       -5 0.11244797E+00 0.15947871E+03</pdfrwt>
<totfact> 0.82417927E+01</totfact>
</mgrwt>
</event>
<event>
 8    1  0.1865596E-007  0.1540607E+03  0.7546771E-02  0.1195573E+00
         -5   -1    0    0    0  501 -0.00000000000E+00  0.00000000000E+00  0.44208872783E+02  0.44458007521E+02  0.47000000000E+01 0.  1.
          5   -1    0    0  501    0  0.00000000000E+00 -0.00000000000E+00 -0.56187066270E+03  0.56189031990E+03  0.47000000000E+01 0.  1.
         25    2    1    2    0    0  0.79349562560E+02  0.42587038186E+02 -0.32501194019E+03  0.35967311895E+03  0.12498792874E+03 0.  0.
         25    2    1    2    0    0 -0.79349562560E+02 -0.42587038186E+02 -0.19264984973E+03  0.24667520847E+03  0.12499873990E+03 0.  0.
          5    1    4    4  502    0 -0.67764206474E+02 -0.78402208906E+02 -0.17797665447E+03  0.20600163489E+03  0.47000000000E+01 0.  1.
         -5    1    4    4    0  502 -0.11585356086E+02  0.35815170719E+02 -0.14673195259E+02  0.40673573588E+02  0.47000000000E+01 0.  1.
          5    1    3    3  503    0  0.68164014582E+02  0.78256270525E+00 -0.59465199673E+02  0.90582256874E+02  0.47000000000E+01 0. -1.
         -5    1    3    3    0  503  0.11185547978E+02  0.41804475481E+02 -0.26554674052E+03  0.26909086207E+03  0.47000000000E+01 0. -1.
<mgrwt>
<rscale>  0 0.15405849E+03</rscale>
<asrwt>0</asrwt>
<pdfrwt beam="2">  1        5 0.86462312E-01 0.15406068E+03</pdfrwt>
<pdfrwt beam="1">  1       -5 0.68220417E-02 0.15406068E+03</pdfrwt>
<totfact> 0.13068580E+02</totfact>
</mgrwt>
</event>
<event>
 8    1  0.1865596E-007  0.1283872E+03  0.7546771E-02  0.1229878E+00
          5   -1    0    0  501    0  0.00000000000E+00  0.00000000000E+00  0.20483196588E+03  0.20488588103E+03  0.47000000000E+01 0. -1.
         -5   -1    0    0    0  501 -0.00000000000E+00 -0.00000000000E+00 -0.85252168899E+02  0.85381627426E+02  0.47000000000E+01 0. -1.
         25    2    1    2    0    0  0.29246980651E+02 -0.14660467928E+01  0.24929269231E+02  0.13076205407E+03  0.12497884281E+03 0.  0.
         25    2    1    2    0    0 -0.29246980651E+02  0.14660467928E+01  0.94650527748E+02  0.15950545438E+03  0.12500292958E+03 0.  0.
          5    1    4    4  502    0 -0.23011547343E+02 -0.31943998610E+02 -0.16674926905E+02  0.43012713767E+02  0.47000000000E+01 0.  1.
         -5    1    4    4    0  502 -0.62354333074E+01  0.33410045403E+02  0.11132545465E+03  0.11649274062E+03  0.47000000000E+01 0.  1.
          5    1    3    3  503    0  0.39839609604E+02 -0.45025698662E+02 -0.23391088632E+02  0.64681844909E+02  0.47000000000E+01 0. -1.
         -5    1    3    3    0  503 -0.10592628954E+02  0.43559651869E+02  0.48320357863E+02  0.66080209164E+02  0.47000000000E+01 0. -1.
<mgrwt>
<rscale>  0 0.12838132E+03</rscale>
<asrwt>0</asrwt>
<pdfrwt beam="1">  1        5 0.31526715E-01 0.12838718E+03</pdfrwt>
<pdfrwt beam="2">  1       -5 0.13129824E-01 0.12838718E+03</pdfrwt>
<totfact> 0.34287669E+02</totfact>
</mgrwt>
</event>
<event>
 8    1  0.1865596E-007  0.1791068E+03  0.7546771E-02  0.1168671E+00
          5   -1    0    0  501    0  0.00000000000E+00  0.00000000000E+00  0.36349703681E+03  0.36352742093E+03  0.47000000000E+01 0.  1.
         -5   -1    0    0    0  501 -0.00000000000E+00 -0.00000000000E+00 -0.93800629363E+02  0.93918305292E+02  0.47000000000E+01 0.  1.
         25    2    1    2    0    0 -0.12519576563E+03  0.27934460857E+02  0.78771710016E+02  0.19566056067E+03  0.12499503537E+03 0.  0.
         25    2    1    2    0    0  0.12519576563E+03 -0.27934460857E+02  0.19092469743E+03  0.26178516556E+03  0.12499967592E+03 0.  0.
          5    1    3    3  502    0 -0.52390357035E+02 -0.43469447609E+02  0.25964013386E+01  0.68287434317E+02  0.47000000000E+01 0. -1.
         -5    1    3    3    0  502 -0.72805408593E+02  0.71403908466E+02  0.76175308677E+02  0.12737312635E+03  0.47000000000E+01 0. -1.
          5    1    4    4  503    0  0.14605697064E+01 -0.24833373492E+02 -0.87727529119E+01  0.26793299470E+02  0.47000000000E+01 0. -1.
         -5    1    4    4    0  503  0.12373519592E+03 -0.31010873648E+01  0.19969745034E+03  0.23499186609E+03  0.47000000000E+01 0. -1.
<mgrwt>
<rscale>  0 0.17910595E+03</rscale>
<asrwt>0</asrwt>
<pdfrwt beam="1">  1        5 0.55934011E-01 0.17910676E+03</pdfrwt>
<pdfrwt beam="2">  1       -5 0.14442255E-01 0.17910676E+03</pdfrwt>
<totfact> 0.98370683E+01</totfact>
</mgrwt>
</event>
<event>
 8    1  0.1865596E-007  0.1380731E+03  0.7546771E-02  0.1215947E+00
          5   -1    0    0  501    0  0.00000000000E+00  0.00000000000E+00  0.63688280668E+02  0.63861467995E+02  0.47000000000E+01 0. -1.
         -5   -1    0    0    0  501 -0.00000000000E+00 -0.00000000000E+00 -0.30061194768E+03  0.30064868716E+03  0.47000000000E+01 0. -1.
         25    2    1    2    0    0  0.53237437228E+02  0.24563588512E+02 -0.13288447274E+03  0.19163103205E+03  0.12500629883E+03 0.  0.
         25    2    1    2    0    0 -0.53237437228E+02 -0.24563588512E+02 -0.10403919428E+03  0.17287912310E+03  0.12500177061E+03 0.  0.
          5    1    3    3  502    0  0.32805727750E+02 -0.10673354260E+02 -0.14480433594E+03  0.14893126593E+03  0.47000000000E+01 0.  1.
         -5    1    3    3    0  502  0.20431709477E+02  0.35236942772E+02  0.11919863204E+02  0.42699766122E+02  0.47000000000E+01 0.  1.
          5    1    4    4  503    0 -0.15727055353E+02 -0.52609363706E+02  0.37726078590E+01  0.55239550955E+02  0.47000000000E+01 0.  1.
         -5    1    4    4    0  503 -0.37510381875E+02  0.28045775194E+02 -0.10781180214E+03  0.11763957214E+03  0.47000000000E+01 0.  1.
<mgrwt>
<rscale>  0 0.13807203E+03</rscale>
<asrwt>0</asrwt>
<pdfrwt beam="1">  1        5 0.98143454E-02 0.13807306E+03</pdfrwt>
<pdfrwt beam="2">  1       -5 0.46264139E-01 0.13807306E+03</pdfrwt>
<totfact> 0.26970866E+02</totfact>
</mgrwt>
</event>
<event>
 8    1  0.1865596E-007  0.1356436E+03  0.7546771E-02  0.1219328E+00
         -5   -1    0    0    0  501 -0.00000000000E+00  0.00000000000E+00  0.20510608708E+03  0.20515993019E+03  0.47000000000E+01 0. -1.
          5   -1    0    0  501    0  0.00000000000E+00 -0.00000000000E+00 -0.11148806396E+03  0.11158708888E+03  0.47000000000E+01 0. -1.
         25    2    1    2    0    0  0.51810327556E+02  0.89330435917E+01  0.11701180349E+03  0.17913944104E+03  0.12504026501E+03 0.  0.
         25    2    1    2    0    0 -0.51810327556E+02 -0.89330435917E+01 -0.23393780371E+02  0.13760757803E+03  0.12499786903E+03 0.  0.
          5    1    4    4  502    0 -0.78649648786E+02 -0.70629738883E+01  0.24208023645E+02  0.82727089053E+02  0.47000000000E+01 0.  1.
         -5    1    4    4    0  502  0.26839321230E+02 -0.18700697034E+01 -0.47601804016E+02  0.54880488977E+02  0.47000000000E+01 0.  1.
          5    1    3    3  503    0  0.14150559569E+02  0.75320575652E+01 -0.26147554768E+02  0.31028291084E+02  0.47000000000E+01 0.  1.
         -5    1    3    3    0  503  0.37659767987E+02  0.14009860266E+01  0.14315935825E+03  0.14811114996E+03  0.47000000000E+01 0.  1.
<mgrwt>
<rscale>  0 0.13563380E+03</rscale>
<asrwt>0</asrwt>
<pdfrwt beam="2">  1        5 0.17163769E-01 0.13564357E+03</pdfrwt>
<pdfrwt beam="1">  1       -5 0.31566542E-01 0.13564357E+03</pdfrwt>
<totfact> 0.21477412E+02</totfact>
</mgrwt>
</event>
<event>
 8    1  0.1865596E-007  0.1274145E+03  0.7546771E-02  0.1231355E+00
          5   -1    0    0  501    0  0.00000000000E+00  0.00000000000E+00  0.53683612504E+02  0.53888962242E+02  0.47000000000E+01 0. -1.
         -5   -1    0    0    0  501 -0.00000000000E+00 -0.00000000000E+00 -0.46709948445E+03  0.46712312978E+03  0.47000000000E+01 0. -1.
         25    2    1    2    0    0 -0.17947901568E+02 -0.16975542915E+02 -0.36177829465E+03  0.38355963045E+03  0.12499663757E+03 0.  0.
         25    2    1    2    0    0  0.17947901568E+02  0.16975542915E+02 -0.51637577293E+02  0.13745246157E+03  0.12496576961E+03 0.  0.
          5    1    4    4  502    0 -0.43408445698E+01  0.37542028705E+02  0.31124108516E+02  0.49183808126E+02  0.47000000000E+01 0.  1.
         -5    1    4    4    0  502  0.22288746138E+02 -0.20566485791E+02 -0.82761685809E+02  0.88268653440E+02  0.47000000000E+01 0.  1.
          5    1    3    3  503    0  0.17678233751E+02  0.48852484573E+02 -0.16039878074E+03  0.16866814773E+03  0.47000000000E+01 0.  1.
         -5    1    3    3    0  503 -0.35626135319E+02 -0.65828027488E+02 -0.20137951392E+03  0.21489148272E+03  0.47000000000E+01 0.  1.
<mgrwt>
<rscale>  0 0.12740693E+03</rscale>
<asrwt>0</asrwt>
<pdfrwt beam="1">  1        5 0.82766326E-02 0.12741450E+03</pdfrwt>
<pdfrwt beam="2">  1       -5 0.71879071E-01 0.12741450E+03</pdfrwt>
<totfact> 0.13523054E+02</totfact>
</mgrwt>
</event>
<event>
 8    1  0.1865596E-007  0.1402112E+03  0.7546771E-02  0.1213059E+00
          5   -1    0    0  501    0  0.00000000000E+00  0.00000000000E+00  0.26256631941E+02  0.26673970850E+02  0.47000000000E+01 0. -1.
         -5   -1    0    0    0  501 -0.00000000000E+00 -0.00000000000E+00 -0.96706551331E+03  0.96707693440E+03  0.47000000000E+01 0. -1.
         25    2    1    2    0    0  0.50000467635E+02 -0.39173965531E+02 -0.71000438164E+03  0.72371638815E+03  0.12499816877E+03 0.  0.
         25    2    1    2    0    0 -0.50000467635E+02  0.39173965531E+02 -0.23080449973E+03  0.27003451709E+03  0.12495309914E+03 0.  0.
          5    1    4    4  502    0  0.19334139002E+02 -0.30593796482E+02 -0.98959273041E+02  0.10547424821E+03  0.47000000000E+01 0. -1.
         -5    1    4    4    0  502 -0.69334606637E+02  0.69767762013E+02 -0.13184522669E+03  0.16456026889E+03  0.47000000000E+01 0. -1.
          5    1    3    3  503    0 -0.39021026240E+02 -0.94262144162E+01 -0.32033230016E+03  0.32287205908E+03  0.47000000000E+01 0. -1.
         -5    1    3    3    0  503  0.89021493875E+02 -0.29747751115E+02 -0.38967208148E+03  0.40084432907E+03  0.47000000000E+01 0. -1.
<mgrwt>
<rscale>  0 0.14020118E+03</rscale>
<asrwt>0</asrwt>
<pdfrwt beam="1">  1        5 0.40724641E-02 0.14021123E+03</pdfrwt>
<pdfrwt beam="2">  1       -5 0.14881226E+00 0.14021123E+03</pdfrwt>
<totfact> 0.76361981E+01</totfact>
</mgrwt>
</event>
<event>
 8    1  0.1865596E-007  0.1469135E+03  0.7546771E-02  0.1204318E+00
         -5   -1    0    0    0  501 -0.00000000000E+00  0.00000000000E+00  0.89295291765E+02  0.89418896948E+02  0.47000000000E+01 0.  1.
          5   -1    0    0  501    0  0.00000000000E+00 -0.00000000000E+00 -0.31707374845E+03  0.31710858070E+03  0.47000000000E+01 0.  1.
         25    2    1    2    0    0 -0.41659416870E+02  0.64988790664E+02 -0.14610222458E+02  0.14763814395E+03  0.12499805208E+03 0.  0.
         25    2    1    2    0    0  0.41659416870E+02 -0.64988790664E+02 -0.21316823422E+03  0.25888933370E+03  0.12499576430E+03 0.  0.
          5    1    3    3  502    0  0.14885528688E+02 -0.24171841332E+02 -0.29149547382E+02  0.40959040397E+02  0.47000000000E+01 0. -1.
         -5    1    3    3    0  502 -0.56544945558E+02  0.89160631997E+02  0.14539324924E+02  0.10667910356E+03  0.47000000000E+01 0. -1.
          5    1    4    4  503    0  0.76451993207E+02 -0.12215680078E+02 -0.15278706917E+03  0.17134791686E+03  0.47000000000E+01 0. -1.
         -5    1    4    4    0  503 -0.34792576337E+02 -0.52773110586E+02 -0.60381165054E+02  0.87541416840E+02  0.47000000000E+01 0. -1.
<mgrwt>
<rscale>  0 0.14691297E+03</rscale>
<asrwt>0</asrwt>
<pdfrwt beam="2">  1        5 0.48792764E-01 0.14691345E+03</pdfrwt>
<pdfrwt beam="1">  1       -5 0.13749925E-01 0.14691345E+03</pdfrwt>
<totfact> 0.13557503E+02</totfact>
</mgrwt>
</event>
<event>
 8    1  0.1865596E-007  0.1632665E+03  0.7546771E-02  0.1185060E+00
         -5   -1    0    0    0  501 -0.00000000000E+00  0.00000000000E+00  0.11786158207E+03  0.11795525647E+03  0.47000000000E+01 0. -1.
          5   -1    0    0  501    0  0.00000000000E+00 -0.00000000000E+00 -0.22754969351E+03  0.22759822718E+03  0.47000000000E+01 0. -1.
         25    2    1    2    0    0  0.79958270179E+02  0.68112955098E+02 -0.69361801692E+02  0.17738048090E+03  0.12498030184E+03 0.  0.
         25    2    1    2    0    0 -0.79958270179E+02 -0.68112955098E+02 -0.40326309748E+02  0.16817300275E+03  0.12499299170E+03 0.  0.
          5    1    3    3  502    0  0.64954359622E+02 -0.55730127125E+01  0.12039299682E+02  0.66461733663E+02  0.47000000000E+01 0.  1.
         -5    1    3    3    0  502  0.15003910557E+02  0.73685967811E+02 -0.81401101374E+02  0.11091874724E+03  0.47000000000E+01 0.  1.
          5    1    4    4  503    0 -0.55682429853E+02 -0.30104952016E+02 -0.83954680989E+02  0.10524884603E+03  0.47000000000E+01 0.  1.
         -5    1    4    4    0  503 -0.24275840326E+02 -0.38008003082E+02  0.43628371241E+02  0.62924156721E+02  0.47000000000E+01 0.  1.
<mgrwt>
<rscale>  0 0.16326406E+03</rscale>
<asrwt>0</asrwt>
<pdfrwt beam="2">  1        5 0.35018584E-01 0.16326649E+03</pdfrwt>
<pdfrwt beam="1">  1       -5 0.18143490E-01 0.16326649E+03</pdfrwt>
<totfact> 0.16752069E+02</totfact>
</mgrwt>
</event>
<event>
 8    1  0.1865596E-007  0.1254882E+03  0.7546771E-02  0.1234309E+00
         -5   -1    0    0    0  501 -0.00000000000E+00  0.00000000000E+00  0.77387717965E+02  0.77530309504E+02  0.47000000000E+01 0.  1.
          5   -1    0    0  501    0  0.00000000000E+00 -0.00000000000E+00 -0.37977424639E+03  0.37980332834E+03  0.47000000000E+01 0.  1.
         25    2    1    2    0    0  0.11015718627E+02  0.15688951410E+00  0.47218467599E+01  0.12557699109E+03  0.12500365668E+03 0.  0.
         25    2    1    2    0    0 -0.11015718627E+02 -0.15688951410E+00 -0.30710837518E+03  0.33175664676E+03  0.12500219154E+03 0.  0.
          5    1    3    3  502    0 -0.38342979240E+02  0.22727378630E+02 -0.36060656777E+02  0.57525461872E+02  0.47000000000E+01 0. -1.
         -5    1    3    3    0  502  0.49358697867E+02 -0.22570489116E+02  0.40782503537E+02  0.68051529217E+02  0.47000000000E+01 0. -1.
          5    1    4    4  503    0 -0.46306915177E+02 -0.53738599754E+01 -0.28646746556E+03  0.29027384930E+03  0.47000000000E+01 0. -1.
         -5    1    4    4    0  503  0.35291196550E+02  0.52169704613E+01 -0.20640909627E+02  0.41482797458E+02  0.47000000000E+01 0. -1.
<mgrwt>
<rscale>  0 0.12548782E+03</rscale>
<asrwt>0</asrwt>
<pdfrwt beam="2">  1        5 0.58440012E-01 0.12548819E+03</pdfrwt>
<pdfrwt beam="1">  1       -5 0.11919009E-01 0.12548819E+03</pdfrwt>
<totfact> 0.11275457E+02</totfact>
</mgrwt>
</event>
<event>
 8    1  0.1865596E-007  0.1381401E+03  0.7546771E-02  0.1215855E+00
          5   -1    0    0  501    0  0.00000000000E+00  0.00000000000E+00  0.27069741557E+03  0.27073821451E+03  0.47000000000E+01 0.  1.
         -5   -1    0    0    0  501 -0.00000000000E+00 -0.00000000000E+00 -0.15931926730E+03  0.15938857842E+03  0.47000000000E+01 0.  1.
         25    2    1    2    0    0  0.58676028295E+02 -0.37800614540E+01 -0.10493110515E+03  0.17347066109E+03  0.12499747306E+03 0.  0.
         25    2    1    2    0    0 -0.58676028295E+02  0.37800614540E+01  0.21630925342E+03  0.25665613184E+03  0.12500204693E+03 0.  0.
          5    1    3    3  502    0  0.42665003388E+02 -0.45735626163E+02 -0.11141329368E+03  0.12785562961E+03  0.47000000000E+01 0. -1.
         -5    1    3    3    0  502  0.16011024906E+02  0.41955564709E+02  0.64821885347E+01  0.45615031478E+02  0.47000000000E+01 0. -1.
          5    1    4    4  503    0 -0.47411378062E+02 -0.43511668363E+02  0.45372992167E+02  0.78879036959E+02  0.47000000000E+01 0.  1.
         -5    1    4    4    0  503 -0.11264650233E+02  0.47291729817E+02  0.17093626125E+03  0.17777709488E+03  0.47000000000E+01 0.  1.
<mgrwt>
<rscale>  0 0.13813903E+03</rscale>
<asrwt>0</asrwt>
<pdfrwt beam="1">  1        5 0.41654226E-01 0.13814006E+03</pdfrwt>
<pdfrwt beam="2">  1       -5 0.24519127E-01 0.13814006E+03</pdfrwt>
<totfact> 0.63368377E+01</totfact>
</mgrwt>
</event>
<event>
 8    1  0.1865596E-007  0.1292675E+03  0.7546771E-02  0.1228551E+00
          5   -1    0    0  501    0  0.00000000000E+00  0.00000000000E+00  0.14517394322E+03  0.14525000444E+03  0.47000000000E+01 0. -1.
         -5   -1    0    0    0  501 -0.00000000000E+00 -0.00000000000E+00 -0.12371807653E+03  0.12380731989E+03  0.47000000000E+01 0. -1.
         25    2    1    2    0    0 -0.31635023321E+02  0.90275042342E+01 -0.25081364202E+02  0.13166812608E+03  0.12500060025E+03 0.  0.
         25    2    1    2    0    0  0.31635023321E+02 -0.90275042342E+01  0.46537230894E+02  0.13738919825E+03  0.12501122911E+03 0.  0.
          5    1    4    4  502    0  0.62907537027E+02  0.27913701432E+02 -0.15496237192E+01  0.69000175914E+02  0.47000000000E+01 0.  1.
         -5    1    4    4    0  502 -0.31272513706E+02 -0.36941205666E+02  0.48086854613E+02  0.68389022336E+02  0.47000000000E+01 0.  1.
          5    1    3    3  503    0 -0.15058135503E+02 -0.57820123638E+02 -0.72531543643E+01  0.60370625229E+02  0.47000000000E+01 0. -1.
         -5    1    3    3    0  503 -0.16576887819E+02  0.66847627872E+02 -0.17828209838E+02  0.71297500853E+02  0.47000000000E+01 0. -1.
<mgrwt>
<rscale>  0 0.12926490E+03</rscale>
<asrwt>0</asrwt>
<pdfrwt beam="1">  1        5 0.22347169E-01 0.12926747E+03</pdfrwt>
<pdfrwt beam="2">  1       -5 0.19046266E-01 0.12926747E+03</pdfrwt>
<totfact> 0.33947705E+02</totfact>
</mgrwt>
</event>
<event>
 8    1  0.1865596E-007  0.1306516E+03  0.7546771E-02  0.1226508E+00
          5   -1    0    0  501    0  0.00000000000E+00  0.00000000000E+00  0.59701027936E+02  0.59885747358E+02  0.47000000000E+01 0.  1.
         -5   -1    0    0    0  501 -0.00000000000E+00 -0.00000000000E+00 -0.29232349923E+03  0.29236128027E+03  0.47000000000E+01 0.  1.
         25    2    1    2    0    0 -0.26707461214E+02  0.26787318924E+02 -0.14381227150E+03  0.19426885637E+03  0.12501028030E+03 0.  0.
         25    2    1    2    0    0  0.26707461214E+02 -0.26787318924E+02 -0.88810199792E+02  0.15797817126E+03  0.12505599573E+03 0.  0.
          5    1    3    3  502    0 -0.30856427297E+02  0.42285643854E+02 -0.16155581380E+03  0.16988986360E+03  0.47000000000E+01 0. -1.
         -5    1    3    3    0  502  0.41489660830E+01 -0.15498324930E+02  0.17743542298E+02  0.24378992769E+02  0.47000000000E+01 0. -1.
          5    1    4    4  503    0 -0.13967819822E+01 -0.48257660239E+02 -0.10732859152E+03  0.11778059827E+03  0.47000000000E+01 0. -1.
         -5    1    4    4    0  503  0.28104243196E+02  0.21470341315E+02  0.18518391729E+02  0.40197572987E+02  0.47000000000E+01 0. -1.
<mgrwt>
<rscale>  0 0.13064070E+03</rscale>
<asrwt>0</asrwt>
<pdfrwt beam="1">  1        5 0.92018891E-02 0.13065164E+03</pdfrwt>
<pdfrwt beam="2">  1       -5 0.44989961E-01 0.13065164E+03</pdfrwt>
<totfact> 0.31367801E+02</totfact>
</mgrwt>
</event>
<event>
 8    1  0.1865596E-007  0.1266315E+03  0.7546771E-02  0.1232554E+00
         -5   -1    0    0    0  501 -0.00000000000E+00  0.00000000000E+00  0.50578082327E+03  0.50580266032E+03  0.47000000000E+01 0.  1.
          5   -1    0    0  501    0  0.00000000000E+00 -0.00000000000E+00 -0.35090824165E+02  0.35404179705E+02  0.47000000000E+01 0.  1.
         25    2    1    2    0    0  0.18908997506E+02 -0.66890077984E+01  0.32145347186E+03  0.34548491900E+03  0.12500080670E+03 0.  0.
         25    2    1    2    0    0 -0.18908997506E+02  0.66890077984E+01  0.14923652725E+03  0.19572192102E+03  0.12503294083E+03 0.  0.
          5    1    3    3  502    0  0.64674040659E+02  0.22721505474E+02  0.13931122109E+03  0.15533417096E+03  0.47000000000E+01 0.  1.
         -5    1    3    3    0  502 -0.45765043153E+02 -0.29410513273E+02  0.18214225077E+03  0.19015074805E+03  0.47000000000E+01 0.  1.
          5    1    4    4  503    0 -0.72446049292E+02  0.12275003084E+01  0.86236958664E+02  0.11273349039E+03  0.47000000000E+01 0.  1.
         -5    1    4    4    0  503  0.53537051787E+02  0.54615074900E+01  0.62999568581E+02  0.82988430636E+02  0.47000000000E+01 0.  1.
<mgrwt>
<rscale>  0 0.12662354E+03</rscale>
<asrwt>0</asrwt>
<pdfrwt beam="2">  1        5 0.54243723E-02 0.12663147E+03</pdfrwt>
<pdfrwt beam="1">  1       -5 0.77838219E-01 0.12663147E+03</pdfrwt>
<totfact> 0.22994439E+02</totfact>
</mgrwt>
</event>
<event>
 8    1  0.1865596E-007  0.1302735E+03  0.7546771E-02  0.1227051E+00
          5   -1    0    0  501    0  0.00000000000E+00  0.00000000000E+00  0.14523515613E+03  0.14531118531E+03  0.47000000000E+01 0.  1.
         -5   -1    0    0    0  501 -0.00000000000E+00 -0.00000000000E+00 -0.14825149076E+03  0.14832597383E+03  0.47000000000E+01 0.  1.
         25    2    1    2    0    0  0.27347587695E+02 -0.24440527819E+02 -0.69204711493E+02  0.14751435739E+03  0.12500385430E+03 0.  0.
         25    2    1    2    0    0 -0.27347587695E+02  0.24440527819E+02  0.66188376870E+02  0.14612280175E+03  0.12500296799E+03 0.  0.
          5    1    3    3  502    0 -0.11919776840E+02  0.34016477506E+02 -0.67791992912E+02  0.76922338270E+02  0.47000000000E+01 0.  1.
         -5    1    3    3    0  502  0.39267364536E+02 -0.58457005325E+02 -0.14127185803E+01  0.70592019116E+02  0.47000000000E+01 0.  1.
          5    1    4    4  503    0 -0.29549959188E+02 -0.29700638917E+02  0.79625681039E+02  0.90098097211E+02  0.47000000000E+01 0. -1.
         -5    1    4    4    0  503  0.22023714927E+01  0.54141166736E+02 -0.13437304169E+02  0.56024704543E+02  0.47000000000E+01 0. -1.
<mgrwt>
<rscale>  0 0.13027332E+03</rscale>
<asrwt>0</asrwt>
<pdfrwt beam="1">  1        5 0.22355448E-01 0.13027353E+03</pdfrwt>
<pdfrwt beam="2">  1       -5 0.22819500E-01 0.13027353E+03</pdfrwt>
<totfact> 0.24248492E+02</totfact>
</mgrwt>
</event>
<event>
 8    1  0.1865596E-007  0.1583341E+03  0.7546771E-02  0.1190591E+00
         -5   -1    0    0    0  501 -0.00000000000E+00  0.00000000000E+00  0.29689140619E+03  0.29692860601E+03  0.47000000000E+01 0. -1.
          5   -1    0    0  501    0  0.00000000000E+00 -0.00000000000E+00 -0.93143991117E+02  0.93262495576E+02  0.47000000000E+01 0. -1.
         25    2    1    2    0    0 -0.15029463872E+01  0.97173534742E+02  0.16182966894E+03  0.22640343884E+03  0.12499888266E+03 0.  0.
         25    2    1    2    0    0  0.15029463872E+01 -0.97173534742E+02  0.41917746129E+02  0.16378766275E+03  0.12499738528E+03 0.  0.
          5    1    3    3  502    0 -0.26178637912E+02  0.95229141851E+02  0.48167259976E+02  0.10998220526E+03  0.47000000000E+01 0. -1.
         -5    1    3    3    0  502  0.24675691525E+02  0.19443928908E+01  0.11366240896E+03  0.11642123358E+03  0.47000000000E+01 0. -1.
          5    1    4    4  503    0 -0.70842908885E+00 -0.68562931337E+02 -0.38148102731E+02  0.78604994544E+02  0.47000000000E+01 0.  1.
         -5    1    4    4    0  503  0.22113754761E+01 -0.28610603405E+02  0.80065848860E+02  0.85182668204E+02  0.47000000000E+01 0.  1.
<mgrwt>
<rscale>  0 0.15833377E+03</rscale>
<asrwt>0</asrwt>
<pdfrwt beam="2">  1        5 0.14341822E-01 0.15833406E+03</pdfrwt>
<pdfrwt beam="1">  1       -5 0.45687577E-01 0.15833406E+03</pdfrwt>
<totfact> 0.14782012E+02</totfact>
</mgrwt>
</event>
<event>
 8    1  0.1865596E-007  0.1256141E+03  0.7546771E-02  0.1234114E+00
         -5   -1    0    0    0  501 -0.00000000000E+00  0.00000000000E+00  0.24943422913E+03  0.24947850541E+03  0.47000000000E+01 0. -1.
          5   -1    0    0  501    0  0.00000000000E+00 -0.00000000000E+00 -0.63151117941E+02  0.63325774352E+02  0.47000000000E+01 0. -1.
         25    2    1    2    0    0  0.93835201084E+00 -0.12355131971E+02  0.96612363113E+02  0.15846783112E+03  0.12499830000E+03 0.  0.
         25    2    1    2    0    0 -0.93835201084E+00  0.12355131971E+02  0.89670748077E+02  0.15433644864E+03  0.12500146611E+03 0.  0.
          5    1    3    3  502    0  0.22408818616E+02  0.54543631697E+01  0.11967611233E+03  0.12196871358E+03  0.47000000000E+01 0.  1.
         -5    1    3    3    0  502 -0.21470466605E+02 -0.17809495140E+02 -0.23063749217E+02  0.36499117542E+02  0.47000000000E+01 0.  1.
          5    1    4    4  503    0 -0.40819475143E+02 -0.38327076029E+02  0.20928448423E+02  0.59960689299E+02  0.47000000000E+01 0. -1.
         -5    1    4    4    0  503  0.39881123132E+02  0.50682207999E+02  0.68742299654E+02  0.94375759344E+02  0.47000000000E+01 0. -1.
<mgrwt>
<rscale>  0 0.12561329E+03</rscale>
<asrwt>0</asrwt>
<pdfrwt beam="2">  1        5 0.97323975E-02 0.12561408E+03</pdfrwt>
<pdfrwt beam="1">  1       -5 0.38391338E-01 0.12561408E+03</pdfrwt>
<totfact> 0.38859473E+02</totfact>
</mgrwt>
</event>
<event>
 8    1  0.1865596E-007  0.1384378E+03  0.7546771E-02  0.1215448E+00
          5   -1    0    0  501    0  0.00000000000E+00  0.00000000000E+00  0.50569111518E+02  0.50787055828E+02  0.47000000000E+01 0. -1.
         -5   -1    0    0    0  501 -0.00000000000E+00 -0.00000000000E+00 -0.45606727096E+03  0.45609148824E+03  0.47000000000E+01 0. -1.
         25    2    1    2    0    0 -0.71817433938E+01 -0.59053989064E+02 -0.30762768308E+03  0.33734228972E+03  0.12500431183E+03 0.  0.
         25    2    1    2    0    0  0.71817433938E+01  0.59053989064E+02 -0.97870476365E+02  0.16953625434E+03  0.12499984132E+03 0.  0.
          5    1    4    4  502    0 -0.10538114264E+02  0.70215073223E+01 -0.11181962566E+03  0.11263246468E+03  0.47000000000E+01 0. -1.
         -5    1    4    4    0  502  0.17719857658E+02  0.52032481741E+02  0.13949149296E+02  0.56903789660E+02  0.47000000000E+01 0. -1.
          5    1    3    3  503    0 -0.35312014563E+02  0.16434743892E+02 -0.19429089467E+03  0.19821221186E+03  0.47000000000E+01 0. -1.
         -5    1    3    3    0  503  0.28130271170E+02 -0.75488732955E+02 -0.11333678841E+03  0.13913007786E+03  0.47000000000E+01 0. -1.
<mgrwt>
<rscale>  0 0.13843681E+03</rscale>
<asrwt>0</asrwt>
<pdfrwt beam="1">  1        5 0.77984914E-02 0.13843782E+03</pdfrwt>
<pdfrwt beam="2">  1       -5 0.70182821E-01 0.13843782E+03</pdfrwt>
<totfact> 0.16254130E+02</totfact>
</mgrwt>
</event>
<event>
 8    1  0.1865596E-007  0.1780287E+03  0.7546771E-02  0.1169725E+00
          5   -1    0    0  501    0  0.00000000000E+00  0.00000000000E+00  0.17458929842E+03  0.17465254971E+03  0.47000000000E+01 0. -1.
         -5   -1    0    0    0  501 -0.00000000000E+00 -0.00000000000E+00 -0.19303449238E+03  0.19309170166E+03  0.47000000000E+01 0. -1.
         25    2    1    2    0    0  0.10661281477E+03  0.68561575948E+02 -0.54335546546E+02  0.18613585395E+03  0.12500888984E+03 0.  0.
         25    2    1    2    0    0 -0.10661281477E+03 -0.68561575948E+02  0.35890352581E+02  0.18160839742E+03  0.12500604239E+03 0.  0.
          5    1    4    4  502    0 -0.37366186024E+02 -0.80973878194E+02 -0.20143589712E+02  0.91547009859E+02  0.47000000000E+01 0. -1.
         -5    1    4    4    0  502 -0.69246628746E+02  0.12412302245E+02  0.56033942293E+02  0.90061387557E+02  0.47000000000E+01 0. -1.
          5    1    3    3  503    0  0.83994462781E+02  0.10512925082E+03 -0.44154682904E+02  0.14170022999E+03  0.47000000000E+01 0. -1.
         -5    1    3    3    0  503  0.22618351990E+02 -0.36567674875E+02 -0.10180863642E+02  0.44435623963E+02  0.47000000000E+01 0. -1.
<mgrwt>
<rscale>  0 0.17802816E+03</rscale>
<asrwt>0</asrwt>
<pdfrwt beam="1">  1        5 0.26869158E-01 0.17802866E+03</pdfrwt>
<pdfrwt beam="2">  1       -5 0.29706881E-01 0.17802866E+03</pdfrwt>
<totfact> 0.11329240E+02</totfact>
</mgrwt>
</event>
<event>
 8    1  0.1865596E-007  0.1475432E+03  0.7546771E-02  0.1203528E+00
         -5   -1    0    0    0  501 -0.00000000000E+00  0.00000000000E+00  0.42662882101E+02  0.42920991475E+02  0.47000000000E+01 0.  1.
          5   -1    0    0  501    0  0.00000000000E+00 -0.00000000000E+00 -0.55322443084E+03  0.55324439525E+03  0.47000000000E+01 0.  1.
         25    2    1    2    0    0 -0.78364764309E+02  0.12850241545E+01 -0.17047743174E+03  0.22545853481E+03  0.12500523434E+03 0.  0.
         25    2    1    2    0    0  0.78364764309E+02 -0.12850241545E+01 -0.34008411701E+03  0.37070685192E+03  0.12499470329E+03 0.  0.
          5    1    4    4  502    0  0.61117225782E+02 -0.35577799081E+02 -0.31876134866E+03  0.32654552894E+03  0.47000000000E+01 0. -1.
         -5    1    4    4    0  502  0.17247538527E+02  0.34292774927E+02 -0.21322768349E+02  0.44161322981E+02  0.47000000000E+01 0. -1.
          5    1    3    3  503    0 -0.91912233987E+01  0.57317052680E+01  0.19711374830E+02  0.22977365613E+02  0.47000000000E+01 0.  1.
         -5    1    3    3    0  503 -0.69173540910E+02 -0.44466811135E+01 -0.19018880657E+03  0.20248116919E+03  0.47000000000E+01 0.  1.
<mgrwt>
<rscale>  0 0.14754097E+03</rscale>
<asrwt>0</asrwt>
<pdfrwt beam="2">  1        5 0.85132836E-01 0.14754320E+03</pdfrwt>
<pdfrwt beam="1">  1       -5 0.65849110E-02 0.14754320E+03</pdfrwt>
<totfact> 0.14194957E+02</totfact>
</mgrwt>
</event>
<event>
 8    1  0.1865596E-007  0.1350060E+03  0.7546771E-02  0.1220215E+00
         -5   -1    0    0    0  501 -0.00000000000E+00  0.00000000000E+00  0.45481887242E+03  0.45484315617E+03  0.47000000000E+01 0.  1.
          5   -1    0    0  501    0  0.00000000000E+00 -0.00000000000E+00 -0.40762311056E+02  0.41032377492E+02  0.47000000000E+01 0.  1.
         25    2    1    2    0    0 -0.48976455096E+02 -0.14178819580E+02  0.24279628056E+03  0.27780687242E+03  0.12500756951E+03 0.  0.
         25    2    1    2    0    0  0.48976455096E+02  0.14178819580E+02  0.17126028081E+03  0.21806866123E+03  0.12499650056E+03 0.  0.
          5    1    3    3  502    0 -0.30131636921E+02  0.11979750361E+02 -0.70315016815E-01  0.32764689934E+02  0.47000000000E+01 0.  1.
         -5    1    3    3    0  502 -0.18844818176E+02 -0.26158569941E+02  0.24286659557E+03  0.24504218249E+03  0.47000000000E+01 0.  1.
          5    1    4    4  503    0  0.54937072468E+01 -0.16322809781E+02 -0.15625647824E+02  0.23724793116E+02  0.47000000000E+01 0. -1.
         -5    1    4    4    0  503  0.43482747850E+02  0.30501629362E+02  0.18688592863E+03  0.19434386812E+03  0.47000000000E+01 0. -1.
<mgrwt>
<rscale>  0 0.13500345E+03</rscale>
<asrwt>0</asrwt>
<pdfrwt beam="2">  1        5 0.62937669E-02 0.13500602E+03</pdfrwt>
<pdfrwt beam="1">  1       -5 0.69994778E-01 0.13500602E+03</pdfrwt>
<totfact> 0.23338429E+02</totfact>
</mgrwt>
</event>
<event>
 8    1  0.1865596E-007  0.1507197E+03  0.7546771E-02  0.1199594E+00
         -5   -1    0    0    0  501 -0.00000000000E+00  0.00000000000E+00  0.11919934566E+04  0.11920027226E+04  0.47000000000E+01 0.  1.
          5   -1    0    0  501    0  0.00000000000E+00 -0.00000000000E+00 -0.18993733601E+02  0.19566602059E+02  0.47000000000E+01 0.  1.
         25    2    1    2    0    0 -0.52115550702E+02  0.66153584179E+02  0.51993680467E+03  0.54134159617E+03  0.12499646223E+03 0.  0.
         25    2    1    2    0    0  0.52115550702E+02 -0.66153584179E+02  0.65306291838E+03  0.67022772849E+03  0.12498682072E+03 0.  0.
          5    1    4    4  502    0  0.23650570216E+02 -0.48944601732E+02  0.62226827437E+03  0.62465576024E+03  0.47000000000E+01 0. -1.
         -5    1    4    4    0  502  0.28464980485E+02 -0.17208982448E+02  0.30794644008E+02  0.45571968254E+02  0.47000000000E+01 0. -1.
          5    1    3    3  503    0  0.13238684744E+02 -0.30474309415E+02  0.10013683273E+03  0.10560976081E+03  0.47000000000E+01 0.  1.
         -5    1    3    3    0  503 -0.65354235445E+02  0.96627893595E+02  0.41979997194E+03  0.43573183536E+03  0.47000000000E+01 0.  1.
<mgrwt>
<rscale>  0 0.15071775E+03</rscale>
<asrwt>0</asrwt>
<pdfrwt beam="2">  1        5 0.29668911E-02 0.15071975E+03</pdfrwt>
<pdfrwt beam="1">  1       -5 0.18342847E+00 0.15071975E+03</pdfrwt>
<totfact> 0.72096292E+01</totfact>
</mgrwt>
</event>
<event>
 8    1  0.1865596E-007  0.2232512E+03  0.7546771E-02  0.1131483E+00
          5   -1    0    0  501    0  0.00000000000E+00  0.00000000000E+00  0.12534112541E+03  0.12542921398E+03  0.47000000000E+01 0.  1.
         -5   -1    0    0    0  501 -0.00000000000E+00 -0.00000000000E+00 -0.44154769801E+03  0.44157271158E+03  0.47000000000E+01 0.  1.
         25    2    1    2    0    0 -0.18437845836E+03 -0.14783319135E+02 -0.24774489896E+03  0.33349455905E+03  0.12500849381E+03 0.  0.
         25    2    1    2    0    0  0.18437845836E+03  0.14783319135E+02 -0.68461673638E+02  0.23350736651E+03  0.12499890809E+03 0.  0.
          5    1    4    4  502    0  0.59697399109E+02 -0.59838329310E+00 -0.87837050617E+02  0.10630886597E+03  0.47000000000E+01 0.  1.
         -5    1    4    4    0  502  0.12468105926E+03  0.15381702428E+02  0.19375376978E+02  0.12719850054E+03  0.47000000000E+01 0.  1.
          5    1    3    3  503    0 -0.69989707823E+02  0.47086995175E+02 -0.54575483683E+02  0.10057990721E+03  0.47000000000E+01 0.  1.
         -5    1    3    3    0  503 -0.11438875054E+03 -0.61870314309E+02 -0.19316941528E+03  0.23291465184E+03  0.47000000000E+01 0.  1.
<mgrwt>
<rscale>  0 0.22324983E+03</rscale>
<asrwt>0</asrwt>
<pdfrwt beam="1">  1        5 0.19291950E-01 0.22325117E+03</pdfrwt>
<pdfrwt beam="2">  1       -5 0.67939114E-01 0.22325117E+03</pdfrwt>
<totfact> 0.39777993E+01</totfact>
</mgrwt>
</event>
<event>
 8    1  0.1865596E-007  0.1387727E+03  0.7546771E-02  0.1214992E+00
         -5   -1    0    0    0  501 -0.00000000000E+00  0.00000000000E+00  0.24519514156E+03  0.24524018317E+03  0.47000000000E+01 0. -1.
          5   -1    0    0  501    0  0.00000000000E+00 -0.00000000000E+00 -0.81654206106E+02  0.81789359789E+02  0.47000000000E+01 0. -1.
         25    2    1    2    0    0 -0.56428564010E+02 -0.21141369058E+02  0.11429958922E+03  0.17977950522E+03  0.12500053632E+03 0.  0.
         25    2    1    2    0    0  0.56428564010E+02  0.21141369058E+02  0.49241346230E+02  0.14725003774E+03  0.12500689227E+03 0.  0.
          5    1    4    4  502    0  0.87347619304E+02 -0.14213806834E+02  0.46222429043E+02  0.99951197339E+02  0.47000000000E+01 0. -1.
         -5    1    4    4    0  502 -0.30919055294E+02  0.35355175891E+02  0.30189171869E+01  0.47298840404E+02  0.47000000000E+01 0. -1.
          5    1    3    3  503    0 -0.75727560492E+02 -0.57397920848E+02  0.93924298818E+02  0.13369012172E+03  0.47000000000E+01 0. -1.
         -5    1    3    3    0  503  0.19298996482E+02  0.36256551791E+02  0.20375290403E+02  0.46089383506E+02  0.47000000000E+01 0. -1.
<mgrwt>
<rscale>  0 0.13877127E+03</rscale>
<asrwt>0</asrwt>
<pdfrwt beam="2">  1        5 0.12576047E-01 0.13877270E+03</pdfrwt>
<pdfrwt beam="1">  1       -5 0.37736191E-01 0.13877270E+03</pdfrwt>
<totfact> 0.26561639E+02</totfact>
</mgrwt>
</event>
<event>
 8    1  0.1865596E-007  0.1541938E+03  0.7546771E-02  0.1195414E+00
          5   -1    0    0  501    0  0.00000000000E+00  0.00000000000E+00  0.33339789678E+03  0.33343102372E+03  0.47000000000E+01 0.  1.
         -5   -1    0    0    0  501 -0.00000000000E+00 -0.00000000000E+00 -0.12501147905E+03  0.12509979974E+03  0.47000000000E+01 0.  1.
         25    2    1    2    0    0 -0.48896650151E+02 -0.75889813892E+02 -0.46135276027E+02  0.16094777167E+03  0.12500230103E+03 0.  0.
         25    2    1    2    0    0  0.48896650151E+02  0.75889813892E+02  0.25452169375E+03  0.29758305179E+03  0.12499693545E+03 0.  0.
          5    1    3    3  502    0 -0.74931524287E+02 -0.21007946925E+02  0.93775456457E+01  0.78524489991E+02  0.47000000000E+01 0.  1.
         -5    1    3    3    0  502  0.26034874136E+02 -0.54881866966E+02 -0.55512821672E+02  0.82423281681E+02  0.47000000000E+01 0.  1.
          5    1    4    4  503    0  0.16599018244E+02  0.10311867500E+03  0.13515194317E+03  0.17087166612E+03  0.47000000000E+01 0. -1.
         -5    1    4    4    0  503  0.32297631907E+02 -0.27228861105E+02  0.11936975058E+03  0.12671138566E+03  0.47000000000E+01 0. -1.
<mgrwt>
<rscale>  0 0.15419269E+03</rscale>
<asrwt>0</asrwt>
<pdfrwt beam="1">  1        5 0.51301327E-01 0.15419378E+03</pdfrwt>
<pdfrwt beam="2">  1       -5 0.19241877E-01 0.15419378E+03</pdfrwt>
<totfact> 0.66944137E+01</totfact>
</mgrwt>
</event>
<event>
 8    1  0.1865596E-007  0.1265945E+03  0.7546771E-02  0.1232608E+00
         -5   -1    0    0    0  501 -0.00000000000E+00  0.00000000000E+00  0.17700636422E+03  0.17706875211E+03  0.47000000000E+01 0. -1.
          5   -1    0    0  501    0  0.00000000000E+00 -0.00000000000E+00 -0.90508852771E+02  0.90630802876E+02  0.47000000000E+01 0. -1.
         25    2    1    2    0    0 -0.12067871166E+02  0.15770198608E+02  0.48250543357E+02  0.13545362025E+03  0.12500094250E+03 0.  0.
         25    2    1    2    0    0  0.12067871166E+02 -0.15770198608E+02  0.38246968093E+02  0.13224593474E+03  0.12502729305E+03 0.  0.
          5    1    4    4  502    0  0.22108116549E+02 -0.51797469150E+02 -0.22439260409E+02  0.60805896387E+02  0.47000000000E+01 0. -1.
         -5    1    4    4    0  502 -0.10040245383E+02  0.36027270542E+02  0.60686228502E+02  0.71440038353E+02  0.47000000000E+01 0. -1.
          5    1    3    3  503    0  0.43397785970E+02 -0.30645325342E+02  0.13189120725E+02  0.54941302296E+02  0.47000000000E+01 0.  1.
         -5    1    3    3    0  503 -0.55465657136E+02  0.46415523950E+02  0.35061422632E+02  0.80512317953E+02  0.47000000000E+01 0.  1.
<mgrwt>
<rscale>  0 0.12658795E+03</rscale>
<asrwt>0</asrwt>
<pdfrwt beam="2">  1        5 0.13938619E-01 0.12659446E+03</pdfrwt>
<pdfrwt beam="1">  1       -5 0.27245928E-01 0.12659446E+03</pdfrwt>
<totfact> 0.40758821E+02</totfact>
</mgrwt>
</event>
<event>
 8    1  0.1865596E-007  0.1545467E+03  0.7546771E-02  0.1195001E+00
          5   -1    0    0  501    0  0.00000000000E+00  0.00000000000E+00  0.35999816445E+03  0.36002884385E+03  0.47000000000E+01 0.  1.
         -5   -1    0    0    0  501 -0.00000000000E+00 -0.00000000000E+00 -0.66478097031E+02  0.66644034878E+02  0.47000000000E+01 0.  1.
         25    2    1    2    0    0  0.67022996272E+02 -0.61362665977E+02  0.15998936378E+03  0.22243002535E+03  0.12498424241E+03 0.  0.
         25    2    1    2    0    0 -0.67022996272E+02  0.61362665977E+02  0.13353070364E+03  0.20424285338E+03  0.12500894183E+03 0.  0.
          5    1    4    4  502    0  0.35477351346E+02  0.23559431501E+02  0.54487714522E+02  0.69315873398E+02  0.47000000000E+01 0.  1.
         -5    1    4    4    0  502 -0.10250034762E+03  0.37803234476E+02  0.79042989116E+02  0.13492697998E+03  0.47000000000E+01 0.  1.
          5    1    3    3  503    0 -0.90761690733E+01 -0.12386539594E+02 -0.17126652724E+02  0.23477977802E+02  0.47000000000E+01 0.  1.
         -5    1    3    3    0  503  0.76099165346E+02 -0.48976126384E+02  0.17711601650E+03  0.19895204755E+03  0.47000000000E+01 0.  1.
<mgrwt>
<rscale>  0 0.15454174E+03</rscale>
<asrwt>0</asrwt>
<pdfrwt beam="1">  1        5 0.55399455E-01 0.15454674E+03</pdfrwt>
<pdfrwt beam="2">  1       -5 0.10242524E-01 0.15454674E+03</pdfrwt>
<totfact> 0.17713423E+02</totfact>
</mgrwt>
</event>
<event>
 8    1  0.1865596E-007  0.1594327E+03  0.7546771E-02  0.1189341E+00
         -5   -1    0    0    0  501 -0.00000000000E+00  0.00000000000E+00  0.11947917796E+03  0.11957158511E+03  0.47000000000E+01 0.  1.
          5   -1    0    0  501    0  0.00000000000E+00 -0.00000000000E+00 -0.21309340244E+03  0.21314522787E+03  0.47000000000E+01 0.  1.
         25    2    1    2    0    0 -0.97946122364E+02  0.14062291050E+02 -0.55311342280E+02  0.16875467216E+03  0.12501041506E+03 0.  0.
         25    2    1    2    0    0  0.97946122364E+02 -0.14062291050E+02 -0.38302882200E+02  0.16396214082E+03  0.12500112768E+03 0.  0.
          5    1    4    4  502    0  0.99322580154E+01  0.49095172003E+02 -0.19263884808E+02  0.53871819360E+02  0.47000000000E+01 0.  1.
         -5    1    4    4    0  502  0.88013864349E+02 -0.63157463053E+02 -0.19038997392E+02  0.11009032146E+03  0.47000000000E+01 0.  1.
          5    1    3    3  503    0  0.19424599712E+02  0.29606345095E+02  0.45399296656E+01  0.36007661757E+02  0.47000000000E+01 0.  1.
         -5    1    3    3    0  503 -0.11737072208E+03 -0.15544054045E+02 -0.59851271946E+02  0.13274701040E+03  0.47000000000E+01 0.  1.
<mgrwt>
<rscale>  0 0.15943091E+03</rscale>
<asrwt>0</asrwt>
<pdfrwt beam="2">  1        5 0.32794695E-01 0.15943273E+03</pdfrwt>
<pdfrwt beam="1">  1       -5 0.18392507E-01 0.15943273E+03</pdfrwt>
<totfact> 0.18490349E+02</totfact>
</mgrwt>
</event>
<event>
 8    1  0.1865596E-007  0.1396308E+03  0.7546771E-02  0.1213827E+00
          5   -1    0    0  501    0  0.00000000000E+00  0.00000000000E+00  0.90921710917E+02  0.91043108010E+02  0.47000000000E+01 0.  1.
         -5   -1    0    0    0  501 -0.00000000000E+00 -0.00000000000E+00 -0.21851432591E+03  0.21856486595E+03  0.47000000000E+01 0.  1.
         25    2    1    2    0    0  0.24887822869E+01  0.62169178193E+02 -0.85687753902E+02  0.16382463937E+03  0.12499968217E+03 0.  0.
         25    2    1    2    0    0 -0.24887822869E+01 -0.62169178193E+02 -0.41904861094E+02  0.14578333459E+03  0.12500225001E+03 0.  0.
          5    1    3    3  502    0 -0.89709377009E+01  0.99385124614E+02 -0.55121324463E+02  0.11409790151E+03  0.47000000000E+01 0.  1.
         -5    1    3    3    0  502  0.11459719988E+02 -0.37215946421E+02 -0.30566429438E+02  0.49726737866E+02  0.47000000000E+01 0.  1.
          5    1    4    4  503    0  0.34962572977E+02 -0.54003446474E+02 -0.72113570888E+02  0.96753350569E+02  0.47000000000E+01 0.  1.
         -5    1    4    4    0  503 -0.37451355264E+02 -0.81657317190E+01  0.30208709794E+02  0.49029984020E+02  0.47000000000E+01 0.  1.
<mgrwt>
<rscale>  0 0.13963024E+03</rscale>
<asrwt>0</asrwt>
<pdfrwt beam="1">  1        5 0.14001182E-01 0.13963081E+03</pdfrwt>
<pdfrwt beam="2">  1       -5 0.33630814E-01 0.13963081E+03</pdfrwt>
<totfact> 0.27688298E+02</totfact>
</mgrwt>
</event>
<event>
 8    1  0.1865596E-007  0.1646166E+03  0.7546771E-02  0.1183581E+00
          5   -1    0    0  501    0  0.00000000000E+00  0.00000000000E+00  0.67946913389E+03  0.67948538903E+03  0.47000000000E+01 0.  1.
         -5   -1    0    0    0  501 -0.00000000000E+00 -0.00000000000E+00 -0.42149672770E+02  0.42410905610E+02  0.47000000000E+01 0.  1.
         25    2    1    2    0    0  0.72937481558E+02  0.78453025830E+02  0.23241219043E+03  0.28480530756E+03  0.12499553384E+03 0.  0.
         25    2    1    2    0    0 -0.72937481558E+02 -0.78453025830E+02  0.40490727069E+03  0.43709098708E+03  0.12499551851E+03 0.  0.
          5    1    4    4  502    0 -0.85319707334E+02 -0.85183398763E+02  0.40462598974E+03  0.42223209904E+03  0.47000000000E+01 0. -1.
         -5    1    4    4    0  502  0.12382225776E+02  0.67303729336E+01  0.28128095673E+00  0.14858888046E+02  0.47000000000E+01 0. -1.
          5    1    3    3  503    0 -0.11789798037E+02  0.20312336748E+02  0.15297401496E+03  0.15483775255E+03  0.47000000000E+01 0.  1.
         -5    1    3    3    0  503  0.84727279595E+02  0.58140689082E+02  0.79438175467E+02  0.12996755501E+03  0.47000000000E+01 0.  1.
<mgrwt>
<rscale>  0 0.16461663E+03</rscale>
<asrwt>0</asrwt>
<pdfrwt beam="1">  1        5 0.10455504E+00 0.16461664E+03</pdfrwt>
<pdfrwt beam="2">  1       -5 0.65059113E-02 0.16461664E+03</pdfrwt>
<totfact> 0.91377264E+01</totfact>
</mgrwt>
</event>
<event>
 8    1  0.1865596E-007  0.1326093E+03  0.7546771E-02  0.1223635E+00
         -5   -1    0    0    0  501 -0.00000000000E+00  0.00000000000E+00  0.11374494607E+03  0.11384200787E+03  0.47000000000E+01 0. -1.
          5   -1    0    0  501    0  0.00000000000E+00 -0.00000000000E+00 -0.25685881042E+03  0.25690180710E+03  0.47000000000E+01 0. -1.
         25    2    1    2    0    0  0.94341203666E+00 -0.44266421691E+02  0.45483586211E+02  0.14019268008E+03  0.12499929927E+03 0.  0.
         25    2    1    2    0    0 -0.94341203666E+00  0.44266421691E+02 -0.18859745057E+03  0.23055113490E+03  0.12499768528E+03 0.  0.
          5    1    4    4  502    0 -0.60980104698E+02  0.88804906842E+01 -0.74812640081E+02  0.97038432591E+02  0.47000000000E+01 0. -1.
         -5    1    4    4    0  502  0.60036692661E+02  0.35385931007E+02 -0.11378481049E+03  0.13351270230E+03  0.47000000000E+01 0. -1.
          5    1    3    3  503    0 -0.33732074910E+02  0.79327651054E+01 -0.27058420212E+02  0.44215718294E+02  0.47000000000E+01 0.  1.
         -5    1    3    3    0  503  0.34675486946E+02 -0.52199186797E+02  0.72542006423E+02  0.95976961783E+02  0.47000000000E+01 0.  1.
<mgrwt>
<rscale>  0 0.13260894E+03</rscale>
<asrwt>0</asrwt>
<pdfrwt beam="2">  1        5 0.39527514E-01 0.13260932E+03</pdfrwt>
<pdfrwt beam="1">  1       -5 0.17509996E-01 0.13260932E+03</pdfrwt>
<totfact> 0.13085183E+02</totfact>
</mgrwt>
</event>
<event>
 8    1  0.1865596E-007  0.1295890E+03  0.7546771E-02  0.1228073E+00
         -5   -1    0    0    0  501 -0.00000000000E+00  0.00000000000E+00  0.27932573294E+02  0.28325229935E+02  0.47000000000E+01 0.  1.
          5   -1    0    0  501    0  0.00000000000E+00 -0.00000000000E+00 -0.62555302310E+03  0.62557067923E+03  0.47000000000E+01 0.  1.
         25    2    1    2    0    0  0.33095283763E+02  0.83010123459E+01 -0.22843401822E+03  0.26263168171E+03  0.12501637870E+03 0.  0.
         25    2    1    2    0    0 -0.33095283763E+02 -0.83010123459E+01 -0.36918643159E+03  0.39126422746E+03  0.12499947922E+03 0.  0.
          5    1    4    4  502    0 -0.71643339459E+02 -0.37391189083E+02 -0.22326605029E+03  0.23748829092E+03  0.47000000000E+01 0. -1.
         -5    1    4    4    0  502  0.38548055697E+02  0.29090176737E+02 -0.14592038130E+03  0.15377593654E+03  0.47000000000E+01 0. -1.
          5    1    3    3  503    0  0.28882071500E+02  0.59463760796E+02 -0.18033164034E+03  0.19212418747E+03  0.47000000000E+01 0. -1.
         -5    1    3    3    0  503  0.42132122629E+01 -0.51162748450E+02 -0.48102377878E+02  0.70507494240E+02  0.47000000000E+01 0. -1.
<mgrwt>
<rscale>  0 0.12958489E+03</rscale>
<asrwt>0</asrwt>
<pdfrwt beam="2">  1        5 0.96270479E-01 0.12958896E+03</pdfrwt>
<pdfrwt beam="1">  1       -5 0.43288820E-02 0.12958896E+03</pdfrwt>
<totfact> 0.20446318E+02</totfact>
</mgrwt>
</event>
<event>
 8    1  0.1865596E-007  0.1615406E+03  0.7546771E-02  0.1186968E+00
         -5   -1    0    0    0  501 -0.00000000000E+00  0.00000000000E+00  0.43795447845E+02  0.44046921027E+02  0.47000000000E+01 0.  1.
          5   -1    0    0  501    0  0.00000000000E+00 -0.00000000000E+00 -0.59802970113E+03  0.59804816983E+03  0.47000000000E+01 0.  1.
         25    2    1    2    0    0 -0.71212389916E+02  0.73480252230E+02 -0.25037449225E+03  0.29796435803E+03  0.12499928136E+03 0.  0.
         25    2    1    2    0    0  0.71212389916E+02 -0.73480252230E+02 -0.30385976104E+03  0.34413073283E+03  0.12499861980E+03 0.  0.
          5    1    3    3  502    0 -0.83946435419E+02  0.11626723696E+01 -0.10076929662E+03  0.13124365496E+03  0.47000000000E+01 0. -1.
         -5    1    3    3    0  502  0.12734045503E+02  0.72317579861E+02 -0.14960519563E+03  0.16672070307E+03  0.47000000000E+01 0. -1.
          5    1    4    4  503    0  0.27740555411E+02  0.10365559373E+02 -0.46614127658E+01  0.30344719551E+02  0.47000000000E+01 0. -1.
         -5    1    4    4    0  503  0.43471834505E+02 -0.83845811604E+02 -0.29919834828E+03  0.31378601328E+03  0.47000000000E+01 0. -1.
<mgrwt>
<rscale>  0 0.16154049E+03</rscale>
<asrwt>0</asrwt>
<pdfrwt beam="2">  1        5 0.92025328E-01 0.16154062E+03</pdfrwt>
<pdfrwt beam="1">  1       -5 0.67585264E-02 0.16154062E+03</pdfrwt>
<totfact> 0.11620317E+02</totfact>
</mgrwt>
</event>
<event>
 8    1  0.1865596E-007  0.1583204E+03  0.7546771E-02  0.1190607E+00
         -5   -1    0    0    0  501 -0.00000000000E+00  0.00000000000E+00  0.15748890567E+03  0.15755902198E+03  0.47000000000E+01 0.  1.
          5   -1    0    0  501    0  0.00000000000E+00 -0.00000000000E+00 -0.15926221001E+03  0.15933154596E+03  0.47000000000E+01 0.  1.
         25    2    1    2    0    0  0.63487880775E+02  0.73554354456E+02  0.53663247352E+01  0.15841136823E+03  0.12499764029E+03 0.  0.
         25    2    1    2    0    0 -0.63487880775E+02 -0.73554354456E+02 -0.71396290806E+01  0.15847919971E+03  0.12499491339E+03 0.  0.
          5    1    4    4  502    0 -0.12858504703E+02 -0.42870919625E+02  0.55970937925E+02  0.71819863443E+02  0.47000000000E+01 0. -1.
         -5    1    4    4    0  502 -0.50629376072E+02 -0.30683434831E+02 -0.63110567006E+02  0.86659336267E+02  0.47000000000E+01 0. -1.
          5    1    3    3  503    0 -0.14264594049E+02  0.78525150070E+02  0.77409410623E+01  0.80322412846E+02  0.47000000000E+01 0. -1.
         -5    1    3    3    0  503  0.77752474824E+02 -0.49707956135E+01 -0.23746163271E+01  0.78088955384E+02  0.47000000000E+01 0. -1.
<mgrwt>
<rscale>  0 0.15831991E+03</rscale>
<asrwt>0</asrwt>
<pdfrwt beam="2">  1        5 0.24512606E-01 0.15832045E+03</pdfrwt>
<pdfrwt beam="1">  1       -5 0.24239789E-01 0.15832045E+03</pdfrwt>
<totfact> 0.19368196E+02</totfact>
</mgrwt>
</event>
<event>
 8    1  0.1865596E-007  0.1411541E+03  0.7546771E-02  0.1211785E+00
          5   -1    0    0  501    0  0.00000000000E+00  0.00000000000E+00  0.23805025685E+02  0.24264567745E+02  0.47000000000E+01 0.  1.
         -5   -1    0    0    0  501 -0.00000000000E+00 -0.00000000000E+00 -0.92626971645E+03  0.92628164055E+03  0.47000000000E+01 0.  1.
         25    2    1    2    0    0  0.46266241600E+02  0.46451480226E+02 -0.60559798283E+03  0.62183003989E+03  0.12500150629E+03 0.  0.
         25    2    1    2    0    0 -0.46266241600E+02 -0.46451480226E+02 -0.29686670793E+03  0.32871616840E+03  0.12500468776E+03 0.  0.
          5    1    4    4  502    0 -0.91760470294E+00 -0.79963600625E+02 -0.21282204993E+03  0.22739906412E+03  0.47000000000E+01 0.  1.
         -5    1    4    4    0  502 -0.45348636897E+02  0.33512120399E+02 -0.84044657999E+02  0.10131710428E+03  0.47000000000E+01 0.  1.
          5    1    3    3  503    0  0.71468243612E+02  0.71010047744E+02 -0.50944022993E+03  0.51932800290E+03  0.47000000000E+01 0.  1.
         -5    1    3    3    0  503 -0.25202002012E+02 -0.24558567519E+02 -0.96157752899E+02  0.10250203699E+03  0.47000000000E+01 0.  1.
<mgrwt>
<rscale>  0 0.14115339E+03</rscale>
<asrwt>0</asrwt>
<pdfrwt beam="1">  1        5 0.36985790E-02 0.14115409E+03</pdfrwt>
<pdfrwt beam="2">  1       -5 0.14253927E+00 0.14115409E+03</pdfrwt>
<totfact> 0.10065160E+02</totfact>
</mgrwt>
</event>
<event>
 8    1  0.1865596E-007  0.1260020E+03  0.7546771E-02  0.1233512E+00
          5   -1    0    0  501    0  0.00000000000E+00  0.00000000000E+00  0.19717058618E+03  0.19722659571E+03  0.47000000000E+01 0. -1.
         -5   -1    0    0    0  501 -0.00000000000E+00 -0.00000000000E+00 -0.90906916986E+02  0.91028333809E+02  0.47000000000E+01 0. -1.
         25    2    1    2    0    0  0.38293355296E+01 -0.15376695343E+02  0.41469772508E+01  0.12606884901E+03  0.12500020280E+03 0.  0.
         25    2    1    2    0    0 -0.38293355296E+01  0.15376695343E+02  0.10211669195E+03  0.16218608051E+03  0.12500159745E+03 0.  0.
          5    1    4    4  502    0 -0.27973764409E+02  0.50905502968E+02  0.10369110874E+03  0.11894468361E+03  0.47000000000E+01 0.  1.
         -5    1    4    4    0  502  0.24144428879E+02 -0.35528807625E+02 -0.15744167950E+01  0.43241396895E+02  0.47000000000E+01 0.  1.
          5    1    3    3  503    0 -0.36333971077E+02 -0.13144808746E+02  0.50988512695E+02  0.64147189167E+02  0.47000000000E+01 0.  1.
         -5    1    3    3    0  503  0.40163306606E+02 -0.22318865975E+01 -0.46841535444E+02  0.61921659846E+02  0.47000000000E+01 0.  1.
<mgrwt>
<rscale>  0 0.12600166E+03</rscale>
<asrwt>0</asrwt>
<pdfrwt beam="1">  1        5 0.30347584E-01 0.12600201E+03</pdfrwt>
<pdfrwt beam="2">  1       -5 0.13999328E-01 0.12600201E+03</pdfrwt>
<totfact> 0.32723442E+02</totfact>
</mgrwt>
</event>
<event>
 8    1  0.1865596E-007  0.1434212E+03  0.7546771E-02  0.1208820E+00
          5   -1    0    0  501    0  0.00000000000E+00  0.00000000000E+00  0.98269533700E+02  0.98381864455E+02  0.47000000000E+01 0.  1.
         -5   -1    0    0    0  501 -0.00000000000E+00 -0.00000000000E+00 -0.23587829685E+03  0.23592511720E+03  0.47000000000E+01 0.  1.
         25    2    1    2    0    0 -0.62514641798E+02  0.32217593618E+02 -0.12523628237E+03  0.19035306389E+03  0.12491640698E+03 0.  0.
         25    2    1    2    0    0  0.62514641798E+02 -0.32217593618E+02 -0.12372480783E+02  0.14395391777E+03  0.12499439340E+03 0.  0.
          5    1    3    3  502    0  0.38292489553E+02  0.11234633227E+02 -0.38292938771E+02  0.55506494211E+02  0.47000000000E+01 0.  1.
         -5    1    3    3    0  502 -0.10080713135E+03  0.20982960391E+02 -0.86943343598E+02  0.13484656968E+03  0.47000000000E+01 0.  1.
          5    1    4    4  503    0  0.74437062841E+01 -0.72786751782E+02  0.41313303469E+01  0.73433492962E+02  0.47000000000E+01 0.  1.
         -5    1    4    4    0  503  0.55070935514E+02  0.40569158164E+02 -0.16503811130E+02  0.70520424803E+02  0.47000000000E+01 0.  1.
<mgrwt>
<rscale>  0 0.14340425E+03</rscale>
<asrwt>0</asrwt>
<pdfrwt beam="1">  1        5 0.15130632E-01 0.14342124E+03</pdfrwt>
<pdfrwt beam="2">  1       -5 0.36301211E-01 0.14342124E+03</pdfrwt>
<totfact> 0.20836218E+02</totfact>
</mgrwt>
</event>
<event>
 8    1  0.1865596E-007  0.1499962E+03  0.7546771E-02  0.1200478E+00
          5   -1    0    0  501    0  0.00000000000E+00  0.00000000000E+00  0.79363396880E+02  0.79502445021E+02  0.47000000000E+01 0. -1.
         -5   -1    0    0    0  501 -0.00000000000E+00 -0.00000000000E+00 -0.33019813081E+03  0.33023157873E+03  0.47000000000E+01 0. -1.
         25    2    1    2    0    0 -0.68452434045E+02 -0.46761657924E+02 -0.20278285350E+03  0.25222954225E+03  0.12500587159E+03 0.  0.
         25    2    1    2    0    0  0.68452434045E+02  0.46761657924E+02 -0.48051880435E+02  0.15750448151E+03  0.12500516030E+03 0.  0.
          5    1    3    3  502    0 -0.93605781846E+02 -0.55771145568E+02 -0.10740979499E+03  0.15307324107E+03  0.47000000000E+01 0.  1.
         -5    1    3    3    0  502  0.25153347802E+02  0.90094876447E+01 -0.95373058512E+02  0.99156301177E+02  0.47000000000E+01 0.  1.
          5    1    4    4  503    0  0.10062547779E+03  0.19830515427E+02 -0.14730740296E+02  0.10371991531E+03  0.47000000000E+01 0.  1.
         -5    1    4    4    0  503 -0.32173043748E+02  0.26931142497E+02 -0.33321140139E+02  0.53784566191E+02  0.47000000000E+01 0.  1.
<mgrwt>
<rscale>  0 0.14999604E+03</rscale>
<asrwt>0</asrwt>
<pdfrwt beam="1">  1        5 0.12223022E-01 0.14999619E+03</pdfrwt>
<pdfrwt beam="2">  1       -5 0.50812981E-01 0.14999619E+03</pdfrwt>
<totfact> 0.15456453E+02</totfact>
</mgrwt>
</event>
<event>
 8    1  0.1865596E-007  0.1302210E+03  0.7546771E-02  0.1227128E+00
          5   -1    0    0  501    0  0.00000000000E+00  0.00000000000E+00  0.63129720671E+03  0.63131470218E+03  0.47000000000E+01 0. -1.
         -5   -1    0    0    0  501 -0.00000000000E+00 -0.00000000000E+00 -0.43048603493E+02  0.43304413894E+02  0.47000000000E+01 0. -1.
         25    2    1    2    0    0 -0.16959518396E+02  0.32324380556E+02  0.86704402534E+02  0.15644540526E+03  0.12500008226E+03 0.  0.
         25    2    1    2    0    0  0.16959518396E+02 -0.32324380556E+02  0.50154420068E+03  0.51817371082E+03  0.12499967402E+03 0.  0.
          5    1    4    4  502    0 -0.26476094687E+02 -0.46704238355E+01  0.42456542479E+03  0.42544175438E+03  0.47000000000E+01 0.  1.
         -5    1    4    4    0  502  0.43435613083E+02 -0.27653956720E+02  0.76978775891E+02  0.92731956433E+02  0.47000000000E+01 0.  1.
          5    1    3    3  503    0 -0.50030004779E+02  0.25764801381E+02 -0.68556160088E+01  0.56885110874E+02  0.47000000000E+01 0. -1.
         -5    1    3    3    0  503  0.33070486383E+02  0.65595791749E+01  0.93560018543E+02  0.99560294387E+02  0.47000000000E+01 0. -1.
<mgrwt>
<rscale>  0 0.13022091E+03</rscale>
<asrwt>0</asrwt>
<pdfrwt beam="1">  1        5 0.97143667E-01 0.13022101E+03</pdfrwt>
<pdfrwt beam="2">  1       -5 0.66438859E-02 0.13022101E+03</pdfrwt>
<totfact> 0.98121311E+01</totfact>
</mgrwt>
</event>
<event>
 8    1  0.1865596E-007  0.1453556E+03  0.7546771E-02  0.1206300E+00
          5   -1    0    0  501    0  0.00000000000E+00  0.00000000000E+00  0.18682757427E+03  0.18688668360E+03  0.47000000000E+01 0. -1.
         -5   -1    0    0    0  501 -0.00000000000E+00 -0.00000000000E+00 -0.12295305104E+03  0.12304284929E+03  0.47000000000E+01 0. -1.
         25    2    1    2    0    0  0.65612535784E+01  0.73885421111E+02 -0.12212432654E+02  0.14586774834E+03  0.12500460389E+03 0.  0.
         25    2    1    2    0    0 -0.65612535784E+01 -0.73885421111E+02  0.76086955878E+02  0.16406178454E+03  0.12499975516E+03 0.  0.
          5    1    4    4  502    0  0.17085046935E+02 -0.95535844401E+02  0.19872028893E+02  0.99176529111E+02  0.47000000000E+01 0.  1.
         -5    1    4    4    0  502 -0.23646300513E+02  0.21650423290E+02  0.56214926985E+02  0.64885255432E+02  0.47000000000E+01 0.  1.
          5    1    3    3  503    0  0.15892099319E+00  0.84655922104E+02  0.38718028979E+02  0.93208509114E+02  0.47000000000E+01 0. -1.
         -5    1    3    3    0  503  0.64023325852E+01 -0.10770500994E+02 -0.50930461633E+02  0.52659239230E+02  0.47000000000E+01 0. -1.
<mgrwt>
<rscale>  0 0.14535458E+03</rscale>
<asrwt>0</asrwt>
<pdfrwt beam="1">  1        5 0.28754158E-01 0.14535562E+03</pdfrwt>
<pdfrwt beam="2">  1       -5 0.18927309E-01 0.14535562E+03</pdfrwt>
<totfact> 0.22043083E+02</totfact>
</mgrwt>
</event>
<event>
 8    1  0.1865596E-007  0.1472808E+03  0.7546771E-02  0.1203855E+00
         -5   -1    0    0    0  501 -0.00000000000E+00  0.00000000000E+00  0.29761846118E+03  0.29765557014E+03  0.47000000000E+01 0.  1.
          5   -1    0    0  501    0  0.00000000000E+00 -0.00000000000E+00 -0.77383767328E+02  0.77526366134E+02  0.47000000000E+01 0.  1.
         25    2    1    2    0    0  0.77856046264E+02  0.21078449712E+01  0.15589003233E+03  0.21445896411E+03  0.12499975263E+03 0.  0.
         25    2    1    2    0    0 -0.77856046264E+02 -0.21078449712E+01  0.64344661517E+02  0.16072297216E+03  0.12500252543E+03 0.  0.
          5    1    3    3  502    0  0.19418724782E+02 -0.51189389497E+01  0.15398332063E+03  0.15535843537E+03  0.47000000000E+01 0. -1.
         -5    1    3    3    0  502  0.58437321482E+02  0.72267839209E+01  0.19067117011E+01  0.59100528740E+02  0.47000000000E+01 0. -1.
          5    1    4    4  503    0 -0.62544723820E+02  0.43921850851E+02 -0.41221775644E+01  0.76681508904E+02  0.47000000000E+01 0.  1.
         -5    1    4    4    0  503 -0.15311322445E+02 -0.46029695823E+02  0.68466839081E+02  0.84041463257E+02  0.47000000000E+01 0.  1.
<mgrwt>
<rscale>  0 0.14728023E+03</rscale>
<asrwt>0</asrwt>
<pdfrwt beam="2">  1        5 0.11919018E-01 0.14728081E+03</pdfrwt>
<pdfrwt beam="1">  1       -5 0.45801280E-01 0.14728081E+03</pdfrwt>
<totfact> 0.20003202E+02</totfact>
</mgrwt>
</event>
<event>
 8    1  0.1865596E-007  0.1444777E+03  0.7546771E-02  0.1207428E+00
          5   -1    0    0  501    0  0.00000000000E+00  0.00000000000E+00  0.24225887907E+03  0.24230446651E+03  0.47000000000E+01 0. -1.
         -5   -1    0    0    0  501 -0.00000000000E+00 -0.00000000000E+00 -0.86464546968E+02  0.86592192964E+02  0.47000000000E+01 0. -1.
         25    2    1    2    0    0  0.64449867932E+02  0.33071542560E+02  0.66458067988E+02  0.15902969896E+03  0.12500503169E+03 0.  0.
         25    2    1    2    0    0 -0.64449867932E+02 -0.33071542560E+02  0.89336264119E+02  0.16986696051E+03  0.12500521502E+03 0.  0.
          5    1    4    4  502    0 -0.87973427427E+02  0.10776940881E+02  0.33345251331E+02  0.94812774320E+02  0.47000000000E+01 0. -1.
         -5    1    4    4    0  502  0.23523559495E+02 -0.43848483441E+02  0.55991012788E+02  0.75054186189E+02  0.47000000000E+01 0. -1.
          5    1    3    3  503    0  0.58085540122E+02  0.62758904204E+02  0.86992774027E+02  0.12207556169E+03  0.47000000000E+01 0. -1.
         -5    1    3    3    0  503  0.63643278102E+01 -0.29687361644E+02 -0.20534706039E+02  0.36954137278E+02  0.47000000000E+01 0. -1.
<mgrwt>
<rscale>  0 0.14447770E+03</rscale>
<asrwt>0</asrwt>
<pdfrwt beam="1">  1        5 0.37283922E-01 0.14447774E+03</pdfrwt>
<pdfrwt beam="2">  1       -5 0.13315564E-01 0.14447774E+03</pdfrwt>
<totfact> 0.24914786E+02</totfact>
</mgrwt>
</event>
<event>
 8    1  0.1865596E-007  0.1252817E+03  0.7546771E-02  0.1234634E+00
         -5   -1    0    0    0  501 -0.00000000000E+00  0.00000000000E+00  0.29966126655E+03  0.29969812257E+03  0.47000000000E+01 0.  1.
          5   -1    0    0  501    0  0.00000000000E+00 -0.00000000000E+00 -0.56187356701E+02  0.56383588508E+02  0.47000000000E+01 0.  1.
         25    2    1    2    0    0 -0.46088574692E+01 -0.69794081997E+01  0.16889778177E+03  0.21028352730E+03  0.12499098952E+03 0.  0.
         25    2    1    2    0    0  0.46088574692E+01  0.69794081997E+01  0.74576128076E+02  0.14579818378E+03  0.12500223121E+03 0.  0.
          5    1    4    4  502    0  0.49916342421E+01 -0.44412464727E+02 -0.10632776330E+02  0.46179317535E+02  0.47000000000E+01 0.  1.
         -5    1    4    4    0  502 -0.38277677299E+00  0.51391872927E+02  0.85208904405E+02  0.99618866240E+02  0.47000000000E+01 0.  1.
          5    1    3    3  503    0 -0.27174863572E+02 -0.18817998907E+02  0.17928448187E+03  0.18236667934E+03  0.47000000000E+01 0. -1.
         -5    1    3    3    0  503  0.22566006103E+02  0.11838590707E+02 -0.10386700096E+02  0.27916847964E+02  0.47000000000E+01 0. -1.
<mgrwt>
<rscale>  0 0.12527892E+03</rscale>
<asrwt>0</asrwt>
<pdfrwt beam="2">  1        5 0.86621386E-02 0.12528173E+03</pdfrwt>
<pdfrwt beam="1">  1       -5 0.46119663E-01 0.12528173E+03</pdfrwt>
<totfact> 0.32561416E+02</totfact>
</mgrwt>
</event>
<event>
 8    1  0.1865596E-007  0.1302390E+03  0.7546771E-02  0.1227105E+00
          5   -1    0    0  501    0  0.00000000000E+00  0.00000000000E+00  0.70547656723E+03  0.70549222314E+03  0.47000000000E+01 0. -1.
         -5   -1    0    0    0  501 -0.00000000000E+00 -0.00000000000E+00 -0.23844626793E+02  0.24303420066E+02  0.47000000000E+01 0. -1.
         25    2    1    2    0    0 -0.81242024902E+01  0.35663093918E+02  0.32453109736E+03  0.34968933719E+03  0.12499736180E+03 0.  0.
         25    2    1    2    0    0  0.81242024902E+01 -0.35663093918E+02  0.35710084308E+03  0.38010630602E+03  0.12498773065E+03 0.  0.
          5    1    4    4  502    0 -0.33371833435E+02  0.32317271692E+02  0.90671274071E+02  0.10198752501E+03  0.47000000000E+01 0.  1.
         -5    1    4    4    0  502  0.41496035925E+02 -0.67980365610E+02  0.26642956901E+03  0.27811878101E+03  0.47000000000E+01 0.  1.
          5    1    3    3  503    0 -0.37117328141E+02  0.34439442815E+02  0.31456521212E+03  0.31864891957E+03  0.47000000000E+01 0.  1.
         -5    1    3    3    0  503  0.28993125650E+02  0.12236511028E+01  0.99658852365E+01  0.31040417612E+02  0.47000000000E+01 0.  1.
<mgrwt>
<rscale>  0 0.13023670E+03</rscale>
<asrwt>0</asrwt>
<pdfrwt beam="1">  1        5 0.10857136E+00 0.13023901E+03</pdfrwt>
<pdfrwt beam="2">  1       -5 0.37049000E-02 0.13023901E+03</pdfrwt>
<totfact> 0.19697431E+02</totfact>
</mgrwt>
</event>
<event>
 8    1  0.1865596E-007  0.1256920E+03  0.7546771E-02  0.1233995E+00
          5   -1    0    0  501    0  0.00000000000E+00  0.00000000000E+00  0.20392837679E+03  0.20398253078E+03  0.47000000000E+01 0. -1.
         -5   -1    0    0    0  501 -0.00000000000E+00 -0.00000000000E+00 -0.77719739611E+02  0.77861723107E+02  0.47000000000E+01 0. -1.
         25    2    1    2    0    0 -0.12334642860E+02  0.45761870437E+01  0.73078779039E+02  0.14538451982E+03  0.12499226278E+03 0.  0.
         25    2    1    2    0    0  0.12334642860E+02 -0.45761870437E+01  0.53129858143E+02  0.13645973406E+03  0.12500156916E+03 0.  0.
          5    1    4    4  502    0 -0.39832318615E+02  0.22595328374E+01  0.70256027336E+02  0.80930330977E+02  0.47000000000E+01 0. -1.
         -5    1    4    4    0  502  0.52166961475E+02 -0.68357198811E+01 -0.17126169193E+02  0.55529403086E+02  0.47000000000E+01 0. -1.
          5    1    3    3  503    0 -0.12679930616E+02  0.56452727224E+02  0.30809061522E+01  0.58131514982E+02  0.47000000000E+01 0. -1.
         -5    1    3    3    0  503  0.34528775619E+00 -0.51876540180E+02  0.69997872887E+02  0.87253004839E+02  0.47000000000E+01 0. -1.
<mgrwt>
<rscale>  0 0.12568968E+03</rscale>
<asrwt>0</asrwt>
<pdfrwt beam="1">  1        5 0.31388683E-01 0.12569199E+03</pdfrwt>
<pdfrwt beam="2">  1       -5 0.11971971E-01 0.12569199E+03</pdfrwt>
<totfact> 0.40432356E+02</totfact>
</mgrwt>
</event>
<event>
 8    1  0.1865596E-007  0.1327826E+03  0.7546771E-02  0.1223389E+00
          5   -1    0    0  501    0  0.00000000000E+00  0.00000000000E+00  0.13447786858E+02  0.14245454411E+02  0.47000000000E+01 0.  1.
         -5   -1    0    0    0  501 -0.00000000000E+00 -0.00000000000E+00 -0.12728062259E+04  0.12728149036E+04  0.47000000000E+01 0.  1.
         25    2    1    2    0    0 -0.28404617043E+02  0.34612059590E+02 -0.64107171934E+03  0.65467621860E+03  0.12499273948E+03 0.  0.
         25    2    1    2    0    0  0.28404617043E+02 -0.34612059590E+02 -0.61828671974E+03  0.63238413940E+03  0.12500565993E+03 0.  0.
          5    1    4    4  502    0 -0.15044577249E+02  0.40421846678E+02 -0.26836804034E+03  0.27185246011E+03  0.47000000000E+01 0.  1.
         -5    1    4    4    0  502  0.43449194292E+02 -0.75033906268E+02 -0.34991867940E+03  0.36053167928E+03  0.47000000000E+01 0.  1.
          5    1    3    3  503    0 -0.53590429324E+02  0.24397286778E+02 -0.12921189632E+03  0.14207380430E+03  0.47000000000E+01 0. -1.
         -5    1    3    3    0  503  0.25185812281E+02  0.10214772812E+02 -0.51185982302E+03  0.51260241430E+03  0.47000000000E+01 0. -1.
<mgrwt>
<rscale>  0 0.13277961E+03</rscale>
<asrwt>0</asrwt>
<pdfrwt beam="1">  1        5 0.21309178E-02 0.13278265E+03</pdfrwt>
<pdfrwt beam="2">  1       -5 0.19587828E+00 0.13278265E+03</pdfrwt>
<totfact> 0.96799681E+01</totfact>
</mgrwt>
</event>
<event>
 8    1  0.1865596E-007  0.1450728E+03  0.7546771E-02  0.1206665E+00
         -5   -1    0    0    0  501 -0.00000000000E+00  0.00000000000E+00  0.22636329248E+03  0.22641208047E+03  0.47000000000E+01 0. -1.
          5   -1    0    0  501    0  0.00000000000E+00 -0.00000000000E+00 -0.93456836096E+02  0.93574944366E+02  0.47000000000E+01 0. -1.
         25    2    1    2    0    0 -0.55593039447E+02 -0.48268366893E+02  0.79341934371E+02  0.16535192948E+03  0.12500278700E+03 0.  0.
         25    2    1    2    0    0  0.55593039447E+02  0.48268366893E+02  0.53564522015E+02  0.15463509535E+03  0.12498973325E+03 0.  0.
          5    1    4    4  502    0 -0.98508173576E+01 -0.24045303888E+02  0.50448715181E+02  0.56941883575E+02  0.47000000000E+01 0.  1.
         -5    1    4    4    0  502  0.65443856805E+02  0.72313670781E+02  0.31158068340E+01  0.97693211778E+02  0.47000000000E+01 0.  1.
          5    1    3    3  503    0 -0.74016357577E+02 -0.79209388172E+02  0.55207381014E+02  0.12174766233E+03  0.47000000000E+01 0. -1.
         -5    1    3    3    0  503  0.18423318129E+02  0.30941021279E+02  0.24134553357E+02  0.43604267158E+02  0.47000000000E+01 0. -1.
<mgrwt>
<rscale>  0 0.14506999E+03</rscale>
<asrwt>0</asrwt>
<pdfrwt beam="2">  1        5 0.14390813E-01 0.14507280E+03</pdfrwt>
<pdfrwt beam="1">  1       -5 0.34837960E-01 0.14507280E+03</pdfrwt>
<totfact> 0.24877137E+02</totfact>
</mgrwt>
</event>
<event>
 8    1  0.1865596E-007  0.1358269E+03  0.7546771E-02  0.1219059E+00
         -5   -1    0    0    0  501 -0.00000000000E+00  0.00000000000E+00  0.38117746096E+02  0.38406413103E+02  0.47000000000E+01 0.  1.
          5   -1    0    0  501    0  0.00000000000E+00 -0.00000000000E+00 -0.52534932835E+03  0.52537035203E+03  0.47000000000E+01 0.  1.
         25    2    1    2    0    0 -0.53056939920E+02  0.29875957589E+01 -0.16253680391E+03  0.21181872634E+03  0.12499998241E+03 0.  0.
         25    2    1    2    0    0  0.53056939920E+02 -0.29875957589E+01 -0.32469477834E+03  0.35195803879E+03  0.12499518945E+03 0.  0.
          5    1    3    3  502    0 -0.93845762662E+02 -0.30185854206E+01 -0.11931053066E+03  0.15189875494E+03  0.47000000000E+01 0. -1.
         -5    1    3    3    0  502  0.40788822742E+02  0.60061811795E+01 -0.43226273248E+02  0.59919971394E+02  0.47000000000E+01 0. -1.
          5    1    4    4  503    0 -0.37324813158E+02 -0.20931791353E+02 -0.89594228171E+02  0.99400690582E+02  0.47000000000E+01 0. -1.
         -5    1    4    4    0  503  0.90381753079E+02  0.17944195594E+02 -0.23510055017E+03  0.25255734821E+03  0.47000000000E+01 0. -1.
<mgrwt>
<rscale>  0 0.13582585E+03</rscale>
<asrwt>0</asrwt>
<pdfrwt beam="2">  1        5 0.80846791E-01 0.13582695E+03</pdfrwt>
<pdfrwt beam="1">  1       -5 0.58880914E-02 0.13582695E+03</pdfrwt>
<totfact> 0.18819929E+02</totfact>
</mgrwt>
</event>
<event>
 8    1  0.1865596E-007  0.2243293E+03  0.7546771E-02  0.1130696E+00
         -5   -1    0    0    0  501 -0.00000000000E+00  0.00000000000E+00  0.12384063657E+04  0.12384152844E+04  0.47000000000E+01 0. -1.
          5   -1    0    0  501    0  0.00000000000E+00 -0.00000000000E+00 -0.50541171888E+02  0.50759236162E+02  0.47000000000E+01 0. -1.
         25    2    1    2    0    0  0.18376872848E+03  0.30458073542E+02  0.88065631830E+03  0.90877878240E+03  0.12499873825E+03 0.  0.
         25    2    1    2    0    0 -0.18376872848E+03 -0.30458073542E+02  0.30720887555E+03  0.38039573819E+03  0.12499993841E+03 0.  0.
          5    1    4    4  502    0 -0.61352654977E+02 -0.21318930380E+02  0.22080074542E+03  0.23020361475E+03  0.47000000000E+01 0.  1.
         -5    1    4    4    0  502 -0.12241607351E+03 -0.91391431622E+01  0.86408130130E+02  0.15019212344E+03  0.47000000000E+01 0.  1.
          5    1    3    3  503    0  0.68858025271E+02  0.13075368938E+02  0.61208547971E+03  0.61610317106E+03  0.47000000000E+01 0.  1.
         -5    1    3    3    0  503  0.11491070321E+03  0.17382704604E+02  0.26857083859E+03  0.29267561134E+03  0.47000000000E+01 0.  1.
<mgrwt>
<rscale>  0 0.22432911E+03</rscale>
<asrwt>0</asrwt>
<pdfrwt beam="2">  1        5 0.77930259E-02 0.22432928E+03</pdfrwt>
<pdfrwt beam="1">  1       -5 0.19054150E+00 0.22432928E+03</pdfrwt>
<totfact> 0.14153529E+01</totfact>
</mgrwt>
</event>
<event>
 8    1  0.1865596E-007  0.1493649E+03  0.7546771E-02  0.1201256E+00
         -5   -1    0    0    0  501 -0.00000000000E+00  0.00000000000E+00  0.27639309088E+02  0.28036073314E+02  0.47000000000E+01 0.  1.
          5   -1    0    0  501    0  0.00000000000E+00 -0.00000000000E+00 -0.85278643225E+03  0.85279938381E+03  0.47000000000E+01 0.  1.
         25    2    1    2    0    0  0.17467926535E+02 -0.79876769123E+02 -0.30408394040E+03  0.33878682502E+03  0.12499617312E+03 0.  0.
         25    2    1    2    0    0 -0.17467926535E+02  0.79876769123E+02 -0.52106318276E+03  0.54204863211E+03  0.12499780972E+03 0.  0.
          5    1    3    3  502    0  0.15049813683E+02 -0.10195723166E+03 -0.14424169907E+03  0.17734015825E+03  0.47000000000E+01 0.  1.
         -5    1    3    3    0  502  0.24181128520E+01  0.22080462537E+02 -0.15984224133E+03  0.16144666676E+03  0.47000000000E+01 0.  1.
          5    1    4    4  503    0  0.11882106208E+02  0.21722815011E+02 -0.10461934575E+02  0.27287491914E+02  0.47000000000E+01 0. -1.
         -5    1    4    4    0  503 -0.29350032742E+02  0.58153954112E+02 -0.51060124819E+03  0.51476114019E+03  0.47000000000E+01 0. -1.
<mgrwt>
<rscale>  0 0.14936458E+03</rscale>
<asrwt>0</asrwt>
<pdfrwt beam="2">  1        5 0.13122941E+00 0.14936492E+03</pdfrwt>
<pdfrwt beam="1">  1       -5 0.42837187E-02 0.14936492E+03</pdfrwt>
<totfact> 0.10018853E+02</totfact>
</mgrwt>
</event>
<event>
 8    1  0.1865596E-007  0.1436380E+03  0.7546771E-02  0.1208519E+00
         -5   -1    0    0    0  501 -0.00000000000E+00  0.00000000000E+00  0.39964211973E+03  0.39966975600E+03  0.47000000000E+01 0. -1.
          5   -1    0    0  501    0  0.00000000000E+00 -0.00000000000E+00 -0.54189511550E+02  0.54392951400E+02  0.47000000000E+01 0. -1.
         25    2    1    2    0    0 -0.70477840662E+02  0.60088791986E+01  0.22333635185E+03  0.26553905744E+03  0.12501452841E+03 0.  0.
         25    2    1    2    0    0  0.70477840662E+02 -0.60088791986E+01  0.12211625633E+03  0.18852364996E+03  0.12500221551E+03 0.  0.
          5    1    3    3  502    0 -0.34666246997E+02 -0.57637411319E+02  0.80164491324E+02  0.10474853476E+03  0.47000000000E+01 0. -1.
         -5    1    3    3    0  502 -0.35811593665E+02  0.63646290517E+02  0.14317186053E+03  0.16079052268E+03  0.47000000000E+01 0. -1.
          5    1    4    4  503    0  0.88476803494E+02  0.37319143853E+02  0.75792501977E+02  0.12242326826E+03  0.47000000000E+01 0. -1.
         -5    1    4    4    0  503 -0.17998962832E+02 -0.43328023052E+02  0.46323754351E+02  0.66100381707E+02  0.47000000000E+01 0. -1.
<mgrwt>
<rscale>  0 0.14363529E+03</rscale>
<asrwt>0</asrwt>
<pdfrwt beam="2">  1        5 0.83546228E-02 0.14363796E+03</pdfrwt>
<pdfrwt beam="1">  1       -5 0.61501179E-01 0.14363796E+03</pdfrwt>
<totfact> 0.19615014E+02</totfact>
</mgrwt>
</event>
<event>
 8    1  0.1865596E-007  0.1290639E+03  0.7546771E-02  0.1228858E+00
          5   -1    0    0  501    0  0.00000000000E+00  0.00000000000E+00  0.13724247002E+03  0.13732292444E+03  0.47000000000E+01 0.  1.
         -5   -1    0    0    0  501 -0.00000000000E+00 -0.00000000000E+00 -0.12385006892E+03  0.12393921725E+03  0.47000000000E+01 0.  1.
         25    2    1    2    0    0 -0.31438019338E+02  0.63160204754E+01 -0.12414255954E+02  0.12965960066E+03  0.12501702732E+03 0.  0.
         25    2    1    2    0    0  0.31438019338E+02 -0.63160204754E+01  0.25806657050E+02  0.13160254103E+03  0.12500001633E+03 0.  0.
          5    1    3    3  502    0 -0.44342198377E+02 -0.57248672338E+00 -0.62777846062E+02  0.77004585929E+02  0.47000000000E+01 0. -1.
         -5    1    3    3    0  502  0.12904179038E+02  0.68885071987E+01  0.50363590108E+02  0.52655014735E+02  0.47000000000E+01 0. -1.
          5    1    4    4  503    0  0.44574409478E+02  0.32442876919E+02  0.57371767041E+02  0.79705883701E+02  0.47000000000E+01 0. -1.
         -5    1    4    4    0  503 -0.13136390140E+02 -0.38758897394E+02 -0.31565109991E+02  0.51896657328E+02  0.47000000000E+01 0. -1.
<mgrwt>
<rscale>  0 0.12905981E+03</rscale>
<asrwt>0</asrwt>
<pdfrwt beam="1">  1        5 0.21127273E-01 0.12906393E+03</pdfrwt>
<pdfrwt beam="2">  1       -5 0.19066903E-01 0.12906393E+03</pdfrwt>
<totfact> 0.37632757E+02</totfact>
</mgrwt>
</event>
<event>
 8    1  0.1865596E-007  0.1766360E+03  0.7546771E-02  0.1171102E+00
         -5   -1    0    0    0  501 -0.00000000000E+00  0.00000000000E+00  0.89443803453E+02  0.89567203686E+02  0.47000000000E+01 0.  1.
          5   -1    0    0  501    0  0.00000000000E+00 -0.00000000000E+00 -0.38813398423E+03  0.38816243985E+03  0.47000000000E+01 0.  1.
         25    2    1    2    0    0  0.23215467254E+02 -0.12261998058E+03 -0.72958972058E+02  0.19111071375E+03  0.12500270297E+03 0.  0.
         25    2    1    2    0    0 -0.23215467254E+02  0.12261998058E+03 -0.22573120872E+03  0.28661892978E+03  0.12498485815E+03 0.  0.
          5    1    4    4  502    0  0.49235630031E+02  0.66232303054E+02 -0.85358985759E+02  0.11882386832E+03  0.47000000000E+01 0.  1.
         -5    1    4    4    0  502 -0.72451097285E+02  0.56387677524E+02 -0.14037222296E+03  0.16779506147E+03  0.47000000000E+01 0.  1.
          5    1    3    3  503    0  0.41151247309E+02 -0.14194483116E+03 -0.71619411000E+02  0.16429604463E+03  0.47000000000E+01 0. -1.
         -5    1    3    3    0  503 -0.17935780054E+02  0.19324850586E+02 -0.13395610574E+01  0.26814669123E+02  0.47000000000E+01 0. -1.
<mgrwt>
<rscale>  0 0.17663289E+03</rscale>
<asrwt>0</asrwt>
<pdfrwt beam="2">  1        5 0.59724601E-01 0.17663605E+03</pdfrwt>
<pdfrwt beam="1">  1       -5 0.13772267E-01 0.17663605E+03</pdfrwt>
<totfact> 0.92513232E+01</totfact>
</mgrwt>
</event>
<event>
 8    1  0.1865596E-007  0.1388403E+03  0.7546771E-02  0.1214899E+00
          5   -1    0    0  501    0  0.00000000000E+00  0.00000000000E+00  0.59145149324E+03  0.59147016734E+03  0.47000000000E+01 0.  1.
         -5   -1    0    0    0  501 -0.00000000000E+00 -0.00000000000E+00 -0.32475413472E+02  0.32813754436E+02  0.47000000000E+01 0.  1.
         25    2    1    2    0    0  0.20572774344E+02 -0.56810784829E+02  0.26478960136E+03  0.29898188271E+03  0.12500371546E+03 0.  0.
         25    2    1    2    0    0 -0.20572774344E+02  0.56810784829E+02  0.29418647840E+03  0.32530203907E+03  0.12500011292E+03 0.  0.
          5    1    3    3  502    0 -0.82298465762E+01 -0.51791071377E+02  0.26416737976E+03  0.26936321199E+03  0.47000000000E+01 0.  1.
         -5    1    3    3    0  502  0.28802620920E+02 -0.50197134515E+01  0.62222160755E+00  0.29618670712E+02  0.47000000000E+01 0.  1.
          5    1    4    4  503    0 -0.22139191774E+02 -0.31584499011E+02  0.38410150672E+02  0.54636563443E+02  0.47000000000E+01 0.  1.
         -5    1    4    4    0  503  0.15664174296E+01  0.88395283840E+02  0.25577632773E+03  0.27066547563E+03  0.47000000000E+01 0.  1.
<mgrwt>
<rscale>  0 0.13883950E+03</rscale>
<asrwt>0</asrwt>
<pdfrwt beam="1">  1        5 0.91019996E-01 0.13884032E+03</pdfrwt>
<pdfrwt beam="2">  1       -5 0.50236804E-02 0.13884032E+03</pdfrwt>
<totfact> 0.18709462E+02</totfact>
</mgrwt>
</event>
<event>
 8    1  0.1865596E-007  0.1260844E+03  0.7546771E-02  0.1233385E+00
         -5   -1    0    0    0  501 -0.00000000000E+00  0.00000000000E+00  0.34407443416E+03  0.34410653327E+03  0.47000000000E+01 0.  1.
          5   -1    0    0  501    0  0.00000000000E+00 -0.00000000000E+00 -0.51399613704E+02  0.51614051274E+02  0.47000000000E+01 0.  1.
         25    2    1    2    0    0 -0.37127672202E+01 -0.16087517031E+02  0.21001727874E+03  0.24495825277E+03  0.12499878154E+03 0.  0.
         25    2    1    2    0    0  0.37127672202E+01  0.16087517031E+02  0.82657541713E+02  0.15076233178E+03  0.12499767452E+03 0.  0.
          5    1    4    4  502    0 -0.61281516933E+01  0.66402869640E+02  0.71881846655E+02  0.98163054242E+02  0.47000000000E+01 0.  1.
         -5    1    4    4    0  502  0.98409189135E+01 -0.50315352609E+02  0.10775695059E+02  0.52599277536E+02  0.47000000000E+01 0.  1.
          5    1    3    3  503    0 -0.56582416351E+01 -0.69626478069E+02  0.14132927148E+03  0.15772100407E+03  0.47000000000E+01 0. -1.
         -5    1    3    3    0  503  0.19454744149E+01  0.53538961039E+02  0.68688007257E+02  0.87237248700E+02  0.47000000000E+01 0. -1.
<mgrwt>
<rscale>  0 0.12608417E+03</rscale>
<asrwt>0</asrwt>
<pdfrwt beam="2">  1        5 0.79265969E-02 0.12608445E+03</pdfrwt>
<pdfrwt beam="1">  1       -5 0.52953495E-01 0.12608445E+03</pdfrwt>
<totfact> 0.28388090E+02</totfact>
</mgrwt>
</event>
<event>
 8    1  0.1865596E-007  0.2849070E+03  0.7546771E-02  0.1093039E+00
          5   -1    0    0  501    0  0.00000000000E+00  0.00000000000E+00  0.17891465658E+03  0.17897637928E+03  0.47000000000E+01 0.  1.
         -5   -1    0    0    0  501 -0.00000000000E+00 -0.00000000000E+00 -0.52509393378E+03  0.52511496769E+03  0.47000000000E+01 0.  1.
         25    2    1    2    0    0 -0.25166083407E+03 -0.47032053445E+02 -0.30303980686E+03  0.41593685460E+03  0.12500061207E+03 0.  0.
         25    2    1    2    0    0  0.25166083407E+03  0.47032053445E+02 -0.43139470335E+02  0.28815449236E+03  0.12500723224E+03 0.  0.
          5    1    4    4  502    0  0.18822991380E+03 -0.23648111751E+02 -0.31373747367E+02  0.19234379549E+03  0.47000000000E+01 0. -1.
         -5    1    4    4    0  502  0.63430920268E+02  0.70680165196E+02 -0.11765722968E+02  0.95810696872E+02  0.47000000000E+01 0. -1.
          5    1    3    3  503    0 -0.12978000801E+03 -0.17786848231E+02 -0.24471901689E+03  0.27761251715E+03  0.47000000000E+01 0.  1.
         -5    1    3    3    0  503 -0.12188082606E+03 -0.29245205214E+02 -0.58320789968E+02  0.13832433745E+03  0.47000000000E+01 0.  1.
<mgrwt>
<rscale>  0 0.28490627E+03</rscale>
<asrwt>0</asrwt>
<pdfrwt beam="1">  1        5 0.27531698E-01 0.28490700E+03</pdfrwt>
<pdfrwt beam="2">  1       -5 0.80790047E-01 0.28490700E+03</pdfrwt>
<totfact> 0.14242195E+01</totfact>
</mgrwt>
</event>
<event>
 8    1  0.1865596E-007  0.1481906E+03  0.7546771E-02  0.1202715E+00
         -5   -1    0    0    0  501 -0.00000000000E+00  0.00000000000E+00  0.18210060909E+04  0.18210121562E+04  0.47000000000E+01 0.  1.
          5   -1    0    0  501    0  0.00000000000E+00 -0.00000000000E+00 -0.13052503762E+02  0.13872918023E+02  0.47000000000E+01 0.  1.
         25    2    1    2    0    0 -0.79136333502E+02 -0.85012906774E+01  0.12007683903E+04  0.12098781719E+04  0.12500252961E+03 0.  0.
         25    2    1    2    0    0  0.79136333502E+02  0.85012906774E+01  0.60718519679E+03  0.62500690232E+03  0.12499973409E+03 0.  0.
          5    1    4    4  502    0 -0.25681769148E+02  0.14788559035E+01  0.37622713565E+02  0.45818106218E+02  0.47000000000E+01 0.  1.
         -5    1    4    4    0  502  0.10481810265E+03  0.70224347739E+01  0.56956248322E+03  0.57918879610E+03  0.47000000000E+01 0.  1.
          5    1    3    3  503    0 -0.49126651265E+02  0.12208773778E+02  0.11198095439E+04  0.11209629729E+04  0.47000000000E+01 0. -1.
         -5    1    3    3    0  503 -0.30009682237E+02 -0.20710064455E+02  0.80958846470E+02  0.88915199035E+02  0.47000000000E+01 0. -1.
<mgrwt>
<rscale>  0 0.14819004E+03</rscale>
<asrwt>0</asrwt>
<pdfrwt beam="2">  1        5 0.20716524E-02 0.14819063E+03</pdfrwt>
<pdfrwt beam="1">  1       -5 0.28021843E+00 0.14819063E+03</pdfrwt>
<totfact> 0.29840040E+01</totfact>
</mgrwt>
</event>
<event>
 8    1  0.1865596E-007  0.1274647E+03  0.7546771E-02  0.1231268E+00
          5   -1    0    0  501    0  0.00000000000E+00  0.00000000000E+00  0.17179702171E+04  0.17179766461E+04  0.47000000000E+01 0.  1.
         -5   -1    0    0    0  501 -0.00000000000E+00 -0.00000000000E+00 -0.12642955356E+02  0.13488303086E+02  0.47000000000E+01 0.  1.
         25    2    1    2    0    0  0.24930432377E+02 -0.64397364005E+00  0.39738525489E+03  0.41732661958E+03  0.12499810177E+03 0.  0.
         25    2    1    2    0    0 -0.24930432377E+02  0.64397364005E+00  0.13079420068E+04  0.13141383296E+04  0.12500126044E+03 0.  0.
          5    1    4    4  502    0 -0.19615120421E+02  0.56072379908E+02  0.94935316546E+03  0.95122152389E+03  0.47000000000E+01 0. -1.
         -5    1    4    4    0  502 -0.53153119564E+01 -0.55428406268E+02  0.35858884135E+03  0.36291680576E+03  0.47000000000E+01 0. -1.
          5    1    3    3  503    0 -0.31862941588E+01  0.31892770471E+02  0.21317781516E+02  0.38779364197E+02  0.47000000000E+01 0. -1.
         -5    1    3    3    0  503  0.28116726536E+02 -0.32536744111E+02  0.37606747338E+03  0.37854725538E+03  0.47000000000E+01 0. -1.
<mgrwt>
<rscale>  0 0.12746395E+03</rscale>
<asrwt>0</asrwt>
<pdfrwt beam="1">  1        5 0.26436860E+00 0.12746473E+03</pdfrwt>
<pdfrwt beam="2">  1       -5 0.20105916E-02 0.12746473E+03</pdfrwt>
<totfact> 0.37868390E+01</totfact>
</mgrwt>
</event>
<event>
 8    1  0.1865596E-007  0.1753757E+03  0.7546771E-02  0.1172355E+00
         -5   -1    0    0    0  501 -0.00000000000E+00  0.00000000000E+00  0.99039648131E+03  0.99040763335E+03  0.47000000000E+01 0. -1.
          5   -1    0    0  501    0  0.00000000000E+00 -0.00000000000E+00 -0.34317097362E+02  0.34637453303E+02  0.47000000000E+01 0. -1.
         25    2    1    2    0    0 -0.11925762143E+02  0.12242940403E+03  0.63976121634E+03  0.66336316507E+03  0.12500036824E+03 0.  0.
         25    2    1    2    0    0  0.11925762143E+02 -0.12242940403E+03  0.31631816760E+03  0.36168192158E+03  0.12500178585E+03 0.  0.
          5    1    4    4  502    0 -0.33541292145E+02 -0.12112772530E+03  0.19511864735E+03  0.23214288845E+03  0.47000000000E+01 0.  1.
         -5    1    4    4    0  502  0.45467054288E+02 -0.13016787318E+01  0.12119952026E+03  0.12953903313E+03  0.47000000000E+01 0.  1.
          5    1    3    3  503    0  0.44436092900E+02  0.69805198939E+02  0.19408888951E+03  0.21104482742E+03  0.47000000000E+01 0.  1.
         -5    1    3    3    0  503 -0.56361855043E+02  0.52624205096E+02  0.44567232683E+03  0.45231833765E+03  0.47000000000E+01 0.  1.
<mgrwt>
<rscale>  0 0.17537543E+03</rscale>
<asrwt>0</asrwt>
<pdfrwt beam="2">  1        5 0.53050544E-02 0.17537568E+03</pdfrwt>
<pdfrwt beam="1">  1       -5 0.15239418E+00 0.17537568E+03</pdfrwt>
<totfact> 0.49189076E+01</totfact>
</mgrwt>
</event>
<event>
 8    1  0.1865596E-007  0.1318399E+03  0.7546771E-02  0.1224751E+00
          5   -1    0    0  501    0  0.00000000000E+00  0.00000000000E+00  0.55247810693E+03  0.55249809831E+03  0.47000000000E+01 0.  1.
         -5   -1    0    0    0  501 -0.00000000000E+00 -0.00000000000E+00 -0.37434374883E+02  0.37728270871E+02  0.47000000000E+01 0.  1.
         25    2    1    2    0    0  0.41849948829E+02  0.22567023769E+01  0.13826018850E+03  0.19104270062E+03  0.12499969126E+03 0.  0.
         25    2    1    2    0    0 -0.41849948829E+02 -0.22567023769E+01  0.37678354355E+03  0.39918366856E+03  0.12500100653E+03 0.  0.
          5    1    4    4  502    0  0.27968130198E+00 -0.58170070987E+02  0.21623262829E+03  0.22396980805E+03  0.47000000000E+01 0.  1.
         -5    1    4    4    0  502 -0.42129630131E+02  0.55913368610E+02  0.16055091526E+03  0.17521386051E+03  0.47000000000E+01 0.  1.
          5    1    3    3  503    0  0.91570922535E+00 -0.54293209861E+02  0.92738951896E+02  0.10756948619E+03  0.47000000000E+01 0.  1.
         -5    1    3    3    0  503  0.40934239603E+02  0.56549912238E+02  0.45521236602E+02  0.83473214433E+02  0.47000000000E+01 0.  1.
<mgrwt>
<rscale>  0 0.13183960E+03</rscale>
<asrwt>0</asrwt>
<pdfrwt beam="1">  1        5 0.85020773E-01 0.13183991E+03</pdfrwt>
<pdfrwt beam="2">  1       -5 0.57832800E-02 0.13183991E+03</pdfrwt>
<totfact> 0.17078382E+02</totfact>
</mgrwt>
</event>
<event>
 8    1  0.1865596E-007  0.1256905E+03  0.7546771E-02  0.1233995E+00
          5   -1    0    0  501    0  0.00000000000E+00  0.00000000000E+00  0.29936579474E+03  0.29940268713E+03  0.47000000000E+01 0. -1.
         -5   -1    0    0    0  501 -0.00000000000E+00 -0.00000000000E+00 -0.58945053973E+02  0.59132134985E+02  0.47000000000E+01 0. -1.
         25    2    1    2    0    0 -0.13162753311E+02  0.24162329308E+00  0.61632940586E+02  0.13998829298E+03  0.12499914540E+03 0.  0.
         25    2    1    2    0    0  0.13162753311E+02 -0.24162329308E+00  0.17878780019E+03  0.21854652914E+03  0.12499676574E+03 0.  0.
          5    1    4    4  502    0  0.31440249586E+02  0.52351172132E+01  0.19211825505E+03  0.19480094884E+03  0.47000000000E+01 0. -1.
         -5    1    4    4    0  502 -0.18277496276E+02 -0.54767405063E+01 -0.13330454863E+02  0.23745580295E+02  0.47000000000E+01 0. -1.
          5    1    3    3  503    0 -0.43716402888E+02  0.28588829410E+02  0.78809338406E+02  0.94664918890E+02  0.47000000000E+01 0.  1.
         -5    1    3    3    0  503  0.30553649577E+02 -0.28347206117E+02 -0.17176397820E+02  0.45323374093E+02  0.47000000000E+01 0.  1.
<mgrwt>
<rscale>  0 0.12568991E+03</rscale>
<asrwt>0</asrwt>
<pdfrwt beam="1">  1        5 0.46073504E-01 0.12569050E+03</pdfrwt>
<pdfrwt beam="2">  1       -5 0.90856987E-02 0.12569050E+03</pdfrwt>
<totfact> 0.30085482E+02</totfact>
</mgrwt>
</event>
<event>
 8    1  0.1865596E-007  0.1689354E+03  0.7546771E-02  0.1178964E+00
          5   -1    0    0  501    0  0.00000000000E+00  0.00000000000E+00  0.48255089282E+02  0.48483436777E+02  0.47000000000E+01 0. -1.
         -5   -1    0    0    0  501 -0.00000000000E+00 -0.00000000000E+00 -0.59442379196E+03  0.59444237269E+03  0.47000000000E+01 0. -1.
         25    2    1    2    0    0  0.10069138925E+03 -0.52679203337E+02 -0.30150076631E+03  0.34560181642E+03  0.12499619631E+03 0.  0.
         25    2    1    2    0    0 -0.10069138925E+03  0.52679203337E+02 -0.24466793637E+03  0.29732399305E+03  0.12500121369E+03 0.  0.
          5    1    4    4  502    0 -0.46514339506E+02  0.86177232820E+02 -0.10450694054E+03  0.14329651028E+03  0.47000000000E+01 0. -1.
         -5    1    4    4    0  502 -0.54177049743E+02 -0.33498029483E+02 -0.14016099583E+03  0.15402748277E+03  0.47000000000E+01 0. -1.
          5    1    3    3  503    0 -0.11821261872E+02 -0.51179224734E+02 -0.13150418421E+03  0.14168449366E+03  0.47000000000E+01 0. -1.
         -5    1    3    3    0  503  0.11251265112E+03 -0.14999786028E+01 -0.16999658210E+03  0.20391732276E+03  0.47000000000E+01 0. -1.
<mgrwt>
<rscale>  0 0.16893444E+03</rscale>
<asrwt>0</asrwt>
<pdfrwt beam="1">  1        5 0.74428548E-02 0.16893537E+03</pdfrwt>
<pdfrwt beam="2">  1       -5 0.91468803E-01 0.16893537E+03</pdfrwt>
<totfact> 0.10133820E+02</totfact>
</mgrwt>
</event>
<event>
 8    1  0.1865596E-007  0.1427612E+03  0.7546771E-02  0.1209663E+00
         -5   -1    0    0    0  501 -0.00000000000E+00  0.00000000000E+00  0.36334548114E+02  0.36637267729E+02  0.47000000000E+01 0.  1.
          5   -1    0    0  501    0  0.00000000000E+00 -0.00000000000E+00 -0.66914926579E+03  0.66916577162E+03  0.47000000000E+01 0.  1.
         25    2    1    2    0    0 -0.68646946392E+02 -0.65487712963E+01 -0.17277835260E+03  0.22412450737E+03  0.12499658404E+03 0.  0.
         25    2    1    2    0    0  0.68646946392E+02  0.65487712963E+01 -0.46003636508E+03  0.48167853198E+03  0.12500184527E+03 0.  0.
          5    1    4    4  502    0  0.88477698178E+02  0.44399770589E+02 -0.34140108762E+03  0.35549463475E+03  0.47000000000E+01 0. -1.
         -5    1    4    4    0  502 -0.19830751786E+02 -0.37850999293E+02 -0.11863527746E+03  0.12618389724E+03  0.47000000000E+01 0. -1.
          5    1    3    3  503    0 -0.57449091055E+02 -0.10959364145E+02 -0.19211136754E+03  0.20087153422E+03  0.47000000000E+01 0.  1.
         -5    1    3    3    0  503 -0.11197855338E+02  0.44105928482E+01  0.19333014939E+02  0.23252973144E+02  0.47000000000E+01 0.  1.
<mgrwt>
<rscale>  0 0.14276002E+03</rscale>
<asrwt>0</asrwt>
<pdfrwt beam="2">  1        5 0.10297059E+00 0.14276117E+03</pdfrwt>
<pdfrwt beam="1">  1       -5 0.56144868E-02 0.14276117E+03</pdfrwt>
<totfact> 0.11641375E+02</totfact>
</mgrwt>
</event>
<event>
 8    1  0.1865596E-007  0.1777516E+03  0.7546771E-02  0.1169998E+00
          5   -1    0    0  501    0  0.00000000000E+00  0.00000000000E+00  0.13050498231E+03  0.13058958767E+03  0.47000000000E+01 0. -1.
         -5   -1    0    0    0  501 -0.00000000000E+00 -0.00000000000E+00 -0.24362448201E+03  0.24366981395E+03  0.47000000000E+01 0. -1.
         25    2    1    2    0    0  0.10255299744E+03  0.73843927000E+02 -0.72255017183E+02  0.19187600756E+03  0.12500228770E+03 0.  0.
         25    2    1    2    0    0 -0.10255299744E+03 -0.73843927000E+02 -0.40864482515E+02  0.18238339406E+03  0.12499501453E+03 0.  0.
          5    1    4    4  502    0 -0.82931023069E+02 -0.10194945240E+03 -0.58056300119E+02  0.14374932840E+03  0.47000000000E+01 0.  1.
         -5    1    4    4    0  502 -0.19621974373E+02  0.28105525404E+02  0.17191817604E+02  0.38634065655E+02  0.47000000000E+01 0.  1.
          5    1    3    3  503    0  0.12441147526E+01  0.52195030663E+02  0.16941410310E+02  0.55090565714E+02  0.47000000000E+01 0.  1.
         -5    1    3    3    0  503  0.10130888269E+03  0.21648896337E+02 -0.89196427493E+02  0.13678544185E+03  0.47000000000E+01 0.  1.
<mgrwt>
<rscale>  0 0.17775027E+03</rscale>
<asrwt>0</asrwt>
<pdfrwt beam="1">  1        5 0.20087685E-01 0.17775155E+03</pdfrwt>
<pdfrwt beam="2">  1       -5 0.37490685E-01 0.17775155E+03</pdfrwt>
<totfact> 0.12383056E+02</totfact>
</mgrwt>
</event>
<event>
 8    1  0.1865596E-007  0.1328376E+03  0.7546771E-02  0.1223312E+00
          5   -1    0    0  501    0  0.00000000000E+00  0.00000000000E+00  0.14676324857E+03  0.14683848654E+03  0.47000000000E+01 0. -1.
         -5   -1    0    0    0  501 -0.00000000000E+00 -0.00000000000E+00 -0.26759537773E+03  0.26763664955E+03  0.47000000000E+01 0. -1.
         25    2    1    2    0    0 -0.11141067074E+02  0.43512184206E+02 -0.21424930810E+03  0.25207874241E+03  0.12499397107E+03 0.  0.
         25    2    1    2    0    0  0.11141067074E+02 -0.43512184206E+02  0.93417178945E+02  0.16239639368E+03  0.12501354250E+03 0.  0.
          5    1    3    3  502    0 -0.22077090852E+02  0.51659362894E+01 -0.21048123000E+03  0.21175108741E+03  0.47000000000E+01 0.  1.
         -5    1    3    3    0  502  0.10936023777E+02  0.38346247917E+02 -0.37680781069E+01  0.40327655002E+02  0.47000000000E+01 0.  1.
          5    1    4    4  503    0  0.48379686834E+02  0.24737230865E+02  0.44783353057E+02  0.70570272778E+02  0.47000000000E+01 0.  1.
         -5    1    4    4    0  503 -0.37238619759E+02 -0.68249415071E+02  0.48633825888E+02  0.91826120901E+02  0.47000000000E+01 0.  1.
<mgrwt>
<rscale>  0 0.13283296E+03</rscale>
<asrwt>0</asrwt>
<pdfrwt beam="1">  1        5 0.22587924E-01 0.13283757E+03</pdfrwt>
<pdfrwt beam="2">  1       -5 0.41177482E-01 0.13283757E+03</pdfrwt>
<totfact> 0.74907608E+01</totfact>
</mgrwt>
</event>
<event>
 8    1  0.1865596E-007  0.1705180E+03  0.7546771E-02  0.1177309E+00
          5   -1    0    0  501    0  0.00000000000E+00  0.00000000000E+00  0.42086821350E+03  0.42089445605E+03  0.47000000000E+01 0. -1.
         -5   -1    0    0    0  501 -0.00000000000E+00 -0.00000000000E+00 -0.69732284588E+02  0.69890496592E+02  0.47000000000E+01 0. -1.
         25    2    1    2    0    0 -0.56627844388E+02 -0.10121485382E+03  0.15007362156E+03  0.22715298658E+03  0.12500091212E+03 0.  0.
         25    2    1    2    0    0  0.56627844388E+02  0.10121485382E+03  0.20106230736E+03  0.26363196606E+03  0.12499841077E+03 0.  0.
          5    1    3    3  502    0 -0.84577964475E+01 -0.85308940898E+02  0.20996918634E+02  0.88386143201E+02  0.47000000000E+01 0.  1.
         -5    1    3    3    0  502 -0.48170047941E+02 -0.15905912926E+02  0.12907670292E+03  0.13876684338E+03  0.47000000000E+01 0.  1.
          5    1    4    4  503    0  0.72731213519E+02  0.60860233634E+01  0.74265693230E+02  0.10423220371E+03  0.47000000000E+01 0.  1.
         -5    1    4    4    0  503 -0.16103369131E+02  0.95128830461E+02  0.12679661413E+03  0.15939976235E+03  0.47000000000E+01 0.  1.
<mgrwt>
<rscale>  0 0.17051754E+03</rscale>
<asrwt>0</asrwt>
<pdfrwt beam="1">  1        5 0.64763143E-01 0.17051800E+03</pdfrwt>
<pdfrwt beam="2">  1       -5 0.10742233E-01 0.17051800E+03</pdfrwt>
<totfact> 0.11917974E+02</totfact>
</mgrwt>
</event>
<event>
 8    1  0.1865596E-007  0.1475491E+03  0.7546771E-02  0.1203545E+00
         -5   -1    0    0    0  501 -0.00000000000E+00  0.00000000000E+00  0.20926839572E+03  0.20932116818E+03  0.47000000000E+01 0.  1.
          5   -1    0    0  501    0  0.00000000000E+00 -0.00000000000E+00 -0.10561518033E+03  0.10571970638E+03  0.47000000000E+01 0.  1.
         25    2    1    2    0    0 -0.17963826458E+02  0.76292252213E+02  0.72180829343E+02  0.16425836847E+03  0.12501013030E+03 0.  0.
         25    2    1    2    0    0  0.17963826458E+02 -0.76292252213E+02  0.31472386045E+02  0.15078250609E+03  0.12490655007E+03 0.  0.
          5    1    3    3  502    0 -0.23149000492E+02  0.65847821702E+02  0.10666205469E+03  0.12755663745E+03  0.47000000000E+01 0.  1.
         -5    1    3    3    0  502  0.51851740336E+01  0.10444430512E+02 -0.34481225347E+02  0.36701731021E+02  0.47000000000E+01 0.  1.
          5    1    4    4  503    0 -0.41796839189E+02  0.58823663133E+01  0.24025784082E+02  0.48794531460E+02  0.47000000000E+01 0.  1.
         -5    1    4    4    0  503  0.59760665647E+02 -0.82174618527E+02  0.74466019639E+01  0.10198797463E+03  0.47000000000E+01 0.  1.
<mgrwt>
<rscale>  0 0.14752717E+03</rscale>
<asrwt>0</asrwt>
<pdfrwt beam="2">  1        5 0.16260589E-01 0.14754911E+03</pdfrwt>
<pdfrwt beam="1">  1       -5 0.32207238E-01 0.14754911E+03</pdfrwt>
<totfact> 0.23439050E+02</totfact>
</mgrwt>
</event>
<event>
 8    1  0.1865596E-007  0.1573971E+03  0.7546771E-02  0.1191673E+00
          5   -1    0    0  501    0  0.00000000000E+00  0.00000000000E+00  0.61810659665E+03  0.61812446548E+03  0.47000000000E+01 0. -1.
         -5   -1    0    0    0  501 -0.00000000000E+00 -0.00000000000E+00 -0.41204554540E+02  0.41471741160E+02  0.47000000000E+01 0. -1.
         25    2    1    2    0    0  0.95171829546E+02  0.92215797662E+01  0.23040599635E+03  0.27903544752E+03  0.12502457017E+03 0.  0.
         25    2    1    2    0    0 -0.95171829546E+02 -0.92215797662E+01  0.34649604576E+03  0.38056075912E+03  0.12499706789E+03 0.  0.
          5    1    4    4  502    0  0.30499486708E+02 -0.65842602204E+01  0.66349035415E+02  0.73470100535E+02  0.47000000000E+01 0. -1.
         -5    1    4    4    0  502 -0.12567131625E+03 -0.26373195458E+01  0.28014701035E+03  0.30709065858E+03  0.47000000000E+01 0. -1.
          5    1    3    3  503    0  0.59195970589E+02 -0.45530397456E+02  0.18394342356E+03  0.19858109954E+03  0.47000000000E+01 0. -1.
         -5    1    3    3    0  503  0.35975858957E+02  0.54751977222E+02  0.46462572792E+02  0.80454347974E+02  0.47000000000E+01 0. -1.
<mgrwt>
<rscale>  0 0.15739167E+03</rscale>
<asrwt>0</asrwt>
<pdfrwt beam="1">  1        5 0.95115248E-01 0.15739713E+03</pdfrwt>
<pdfrwt beam="2">  1       -5 0.63610897E-02 0.15739713E+03</pdfrwt>
<totfact> 0.11801915E+02</totfact>
</mgrwt>
</event>
<event>
 8    1  0.1865596E-007  0.1257508E+03  0.7546771E-02  0.1233901E+00
         -5   -1    0    0    0  501 -0.00000000000E+00  0.00000000000E+00  0.66106637984E+02  0.66273505909E+02  0.47000000000E+01 0.  1.
          5   -1    0    0  501    0  0.00000000000E+00 -0.00000000000E+00 -0.25047617919E+03  0.25052027132E+03  0.47000000000E+01 0.  1.
         25    2    1    2    0    0 -0.10433183973E+02 -0.89258278530E+01 -0.57876596439E+02  0.13843034557E+03  0.12499895371E+03 0.  0.
         25    2    1    2    0    0  0.10433183973E+02  0.89258278530E+01 -0.12649294477E+03  0.17836343166E+03  0.12499810778E+03 0.  0.
          5    1    3    3  502    0  0.12167180736E+02  0.23459799473E+02 -0.85757679312E+02  0.89860291783E+02  0.47000000000E+01 0.  1.
         -5    1    3    3    0  502 -0.22600364709E+02 -0.32385627326E+02  0.27881082873E+02  0.48570053783E+02  0.47000000000E+01 0.  1.
          5    1    4    4  503    0 -0.32006077695E+02  0.16514347553E+01  0.11000818331E+02  0.34208540602E+02  0.47000000000E+01 0. -1.
         -5    1    4    4    0  503  0.42439261668E+02  0.72743930976E+01 -0.13749376310E+03  0.14415489106E+03  0.47000000000E+01 0. -1.
<mgrwt>
<rscale>  0 0.12575058E+03</rscale>
<asrwt>0</asrwt>
<pdfrwt beam="2">  1        5 0.38551024E-01 0.12575079E+03</pdfrwt>
<pdfrwt beam="1">  1       -5 0.10186480E-01 0.12575079E+03</pdfrwt>
<totfact> 0.35605830E+02</totfact>
</mgrwt>
</event>
<event>
 8    1  0.1865596E-007  0.1290084E+03  0.7546771E-02  0.1228936E+00
         -5   -1    0    0    0  501 -0.00000000000E+00  0.00000000000E+00  0.71443149248E+03  0.71444695216E+03  0.47000000000E+01 0.  1.
          5   -1    0    0  501    0  0.00000000000E+00 -0.00000000000E+00 -0.48397129725E+02  0.48624810186E+02  0.47000000000E+01 0.  1.
         25    2    1    2    0    0 -0.91002218073E+01 -0.30586199065E+02  0.60813270172E+03  0.62166537680E+03  0.12499651276E+03 0.  0.
         25    2    1    2    0    0  0.91002218073E+01  0.30586199065E+02  0.57901661038E+02  0.14140638555E+03  0.12499933565E+03 0.  0.
          5    1    3    3  502    0 -0.58838735982E+02  0.51800142093E+01  0.18949865467E+03  0.19854636617E+03  0.47000000000E+01 0.  1.
         -5    1    3    3    0  502  0.49738514174E+02 -0.35766213274E+02  0.41863404706E+03  0.42311901063E+03  0.47000000000E+01 0.  1.
          5    1    4    4  503    0  0.29616766027E+02  0.55328562814E+02 -0.12236539185E+02  0.64111041048E+02  0.47000000000E+01 0.  1.
         -5    1    4    4    0  503 -0.20516544219E+02 -0.24742363749E+02  0.70138200223E+02  0.77295344499E+02  0.47000000000E+01 0.  1.
<mgrwt>
<rscale>  0 0.12900770E+03</rscale>
<asrwt>0</asrwt>
<pdfrwt beam="2">  1        5 0.74644163E-02 0.12900839E+03</pdfrwt>
<pdfrwt beam="1">  1       -5 0.10993123E+00 0.12900839E+03</pdfrwt>
<totfact> 0.59282296E+01</totfact>
</mgrwt>
</event>
<event>
 8    1  0.1865596E-007  0.1549666E+03  0.7546771E-02  0.1194501E+00
         -5   -1    0    0    0  501 -0.00000000000E+00  0.00000000000E+00  0.64950506985E+03  0.64952207488E+03  0.47000000000E+01 0. -1.
          5   -1    0    0  501    0  0.00000000000E+00 -0.00000000000E+00 -0.36842133534E+02  0.37140716247E+02  0.47000000000E+01 0. -1.
         25    2    1    2    0    0 -0.90937134972E+02 -0.10901208589E+02  0.31712292745E+03  0.35295850908E+03  0.12499743659E+03 0.  0.
         25    2    1    2    0    0  0.90937134972E+02  0.10901208589E+02  0.29554000887E+03  0.33370428205E+03  0.12500500850E+03 0.  0.
          5    1    3    3  502    0 -0.11323781325E+02 -0.12119162636E+02 -0.74124820527E+01  0.18765314191E+02  0.47000000000E+01 0.  1.
         -5    1    3    3    0  502 -0.79613353648E+02  0.12179540470E+01  0.32453540950E+03  0.33419319489E+03  0.47000000000E+01 0.  1.
          5    1    4    4  503    0  0.47169936591E+02  0.67509753595E+02  0.17454206271E+03  0.19305333823E+03  0.47000000000E+01 0.  1.
         -5    1    4    4    0  503  0.43767198381E+02 -0.56608545006E+02  0.12099794616E+03  0.14065094382E+03  0.47000000000E+01 0.  1.
<mgrwt>
<rscale>  0 0.15496509E+03</rscale>
<asrwt>0</asrwt>
<pdfrwt beam="2">  1        5 0.56922971E-02 0.15496661E+03</pdfrwt>
<pdfrwt beam="1">  1       -5 0.99948122E-01 0.15496661E+03</pdfrwt>
<totfact> 0.12559000E+02</totfact>
</mgrwt>
</event>
<event>
 8    1  0.1865596E-007  0.1388681E+03  0.7546771E-02  0.1214861E+00
         -5   -1    0    0    0  501 -0.00000000000E+00  0.00000000000E+00  0.12186309291E+03  0.12195369373E+03  0.47000000000E+01 0. -1.
          5   -1    0    0  501    0  0.00000000000E+00 -0.00000000000E+00 -0.15873475304E+03  0.15880431929E+03  0.47000000000E+01 0. -1.
         25    2    1    2    0    0  0.60357570776E+02  0.41913601408E+01 -0.92715035314E+01  0.13917724390E+03  0.12499496227E+03 0.  0.
         25    2    1    2    0    0 -0.60357570776E+02 -0.41913601408E+01 -0.27600156601E+02  0.14158076911E+03  0.12499096642E+03 0.  0.
          5    1    3    3  502    0  0.39445136787E+02  0.63222562202E+02  0.47904170017E+01  0.74820112821E+02  0.47000000000E+01 0.  1.
         -5    1    3    3    0  502  0.20912433988E+02 -0.59031202061E+02 -0.14061920533E+02  0.64357131082E+02  0.47000000000E+01 0.  1.
          5    1    4    4  503    0  0.16691329332E+02  0.14440693711E+02 -0.53492251855E+02  0.58057257239E+02  0.47000000000E+01 0. -1.
         -5    1    4    4    0  503 -0.77048900107E+02 -0.18632053851E+02  0.25892095253E+02  0.83523511870E+02  0.47000000000E+01 0. -1.
<mgrwt>
<rscale>  0 0.13886718E+03</rscale>
<asrwt>0</asrwt>
<pdfrwt beam="2">  1        5 0.24433052E-01 0.13886808E+03</pdfrwt>
<pdfrwt beam="1">  1       -5 0.18760489E-01 0.13886808E+03</pdfrwt>
<totfact> 0.30221652E+02</totfact>
</mgrwt>
</event>
<event>
 8    1  0.1865596E-007  0.1497137E+03  0.7546771E-02  0.1200827E+00
          5   -1    0    0  501    0  0.00000000000E+00  0.00000000000E+00  0.59398594656E+02  0.59584251670E+02  0.47000000000E+01 0.  1.
         -5   -1    0    0    0  501 -0.00000000000E+00 -0.00000000000E+00 -0.47999653503E+03  0.48001954506E+03  0.47000000000E+01 0.  1.
         25    2    1    2    0    0  0.90314024374E+01 -0.81896598919E+02 -0.33552016407E+03  0.36740502034E+03  0.12499619728E+03 0.  0.
         25    2    1    2    0    0 -0.90314024374E+01  0.81896598919E+02 -0.85077776313E+02  0.17219877639E+03  0.12500228568E+03 0.  0.
          5    1    4    4  502    0  0.21391040954E+02  0.97099654610E+02 -0.93804014500E+02  0.13677427644E+03  0.47000000000E+01 0.  1.
         -5    1    4    4    0  502 -0.30422443391E+02 -0.15203055691E+02  0.87262381874E+01  0.35424499956E+02  0.47000000000E+01 0.  1.
          5    1    3    3  503    0 -0.30940530769E+02  0.10182253512E+02 -0.25882276389E+02  0.41868567708E+02  0.47000000000E+01 0. -1.
         -5    1    3    3    0  503  0.39971933206E+02 -0.92078852430E+02 -0.30963788768E+03  0.32553645263E+03  0.47000000000E+01 0. -1.
<mgrwt>
<rscale>  0 0.14971242E+03</rscale>
<asrwt>0</asrwt>
<pdfrwt beam="1">  1        5 0.91542969E-02 0.14971370E+03</pdfrwt>
<pdfrwt beam="2">  1       -5 0.73861670E-01 0.14971370E+03</pdfrwt>
<totfact> 0.11263581E+02</totfact>
</mgrwt>
</event>
<event>
 8    1  0.1865596E-007  0.1345082E+03  0.7546771E-02  0.1220918E+00
         -5   -1    0    0    0  501 -0.00000000000E+00  0.00000000000E+00  0.24679970320E+03  0.24684445203E+03  0.47000000000E+01 0. -1.
          5   -1    0    0  501    0  0.00000000000E+00 -0.00000000000E+00 -0.73790662076E+02  0.73940190760E+02  0.47000000000E+01 0. -1.
         25    2    1    2    0    0  0.27745688972E+02 -0.41193886385E+02  0.10109378424E+03  0.16825837536E+03  0.12499667249E+03 0.  0.
         25    2    1    2    0    0 -0.27745688972E+02  0.41193886385E+02  0.71915256878E+02  0.15252626744E+03  0.12500279419E+03 0.  0.
          5    1    3    3  502    0 -0.35395737314E+02 -0.29195150325E+02  0.92347145949E+02  0.10322451447E+03  0.47000000000E+01 0. -1.
         -5    1    3    3    0  502  0.63141426286E+02 -0.11998736061E+02  0.87466382960E+01  0.65033860888E+02  0.47000000000E+01 0. -1.
          5    1    4    4  503    0 -0.18581962152E+02 -0.26697735897E+02  0.76948954968E+02  0.83673712061E+02  0.47000000000E+01 0. -1.
         -5    1    4    4    0  503 -0.91637268201E+01  0.67891622282E+02 -0.50336980892E+01  0.68852555376E+02  0.47000000000E+01 0. -1.
<mgrwt>
<rscale>  0 0.13450679E+03</rscale>
<asrwt>0</asrwt>
<pdfrwt beam="2">  1        5 0.11367354E-01 0.13450821E+03</pdfrwt>
<pdfrwt beam="1">  1       -5 0.37984130E-01 0.13450821E+03</pdfrwt>
<totfact> 0.31017022E+02</totfact>
</mgrwt>
</event>
<event>
 8    1  0.1865596E-007  0.1368986E+03  0.7546771E-02  0.1217566E+00
         -5   -1    0    0    0  501 -0.00000000000E+00  0.00000000000E+00  0.58295169779E+02  0.58484329692E+02  0.47000000000E+01 0. -1.
          5   -1    0    0  501    0  0.00000000000E+00 -0.00000000000E+00 -0.32851080322E+03  0.32854442292E+03  0.47000000000E+01 0. -1.
         25    2    1    2    0    0 -0.42648566466E+02 -0.36002227541E+02 -0.10537876762E+03  0.17275968022E+03  0.12500464725E+03 0.  0.
         25    2    1    2    0    0  0.42648566466E+02  0.36002227541E+02 -0.16483686582E+03  0.21426907239E+03  0.12499992976E+03 0.  0.
          5    1    3    3  502    0  0.12343639449E+02 -0.26004559346E+02 -0.11249925926E+03  0.11621865545E+03  0.47000000000E+01 0. -1.
         -5    1    3    3    0  502 -0.54992205915E+02 -0.99976681953E+01  0.71204916356E+01  0.56541024769E+02  0.47000000000E+01 0. -1.
          5    1    4    4  503    0 -0.34976061560E+02  0.64684391669E+01 -0.80340627835E+01  0.36766856710E+02  0.47000000000E+01 0.  1.
         -5    1    4    4    0  503  0.77624628027E+02  0.29533788374E+02 -0.15680280303E+03  0.17750221568E+03  0.47000000000E+01 0.  1.
<mgrwt>
<rscale>  0 0.13689751E+03</rscale>
<asrwt>0</asrwt>
<pdfrwt beam="2">  1        5 0.50557260E-01 0.13689858E+03</pdfrwt>
<pdfrwt beam="1">  1       -5 0.89856247E-02 0.13689858E+03</pdfrwt>
<totfact> 0.25997142E+02</totfact>
</mgrwt>
</event>
<event>
 8    1  0.1865596E-007  0.1285635E+03  0.7546771E-02  0.1229604E+00
         -5   -1    0    0    0  501 -0.00000000000E+00  0.00000000000E+00  0.11613040638E+03  0.11622547606E+03  0.47000000000E+01 0.  1.
          5   -1    0    0  501    0  0.00000000000E+00 -0.00000000000E+00 -0.21112546001E+03  0.21117776840E+03  0.47000000000E+01 0.  1.
         25    2    1    2    0    0 -0.28472202465E+02 -0.96336763509E+01  0.46047377277E+02  0.13656112391E+03  0.12500042231E+03 0.  0.
         25    2    1    2    0    0  0.28472202465E+02  0.96336763509E+01 -0.14104243091E+03  0.19084212055E+03  0.12499709448E+03 0.  0.
          5    1    3    3  502    0 -0.51892828042E+02  0.10490795839E+01 -0.27195052570E+02  0.58784581775E+02  0.47000000000E+01 0.  1.
         -5    1    3    3    0  502  0.23420625577E+02 -0.10682755935E+02  0.73242429847E+02  0.77776542136E+02  0.47000000000E+01 0.  1.
          5    1    4    4  503    0 -0.15325857267E+02  0.33463497427E+02  0.40727798095E+01  0.37327805942E+02  0.47000000000E+01 0. -1.
         -5    1    4    4    0  503  0.43798059733E+02 -0.23829821076E+02 -0.14511521072E+03  0.15351431461E+03  0.47000000000E+01 0. -1.
<mgrwt>
<rscale>  0 0.12856271E+03</rscale>
<asrwt>0</asrwt>
<pdfrwt beam="2">  1        5 0.32492177E-01 0.12856352E+03</pdfrwt>
<pdfrwt beam="1">  1       -5 0.17877553E-01 0.12856352E+03</pdfrwt>
<totfact> 0.18472868E+02</totfact>
</mgrwt>
</event>
<event>
 8    1  0.1865596E-007  0.1251239E+03  0.7546771E-02  0.1234877E+00
         -5   -1    0    0    0  501 -0.00000000000E+00  0.00000000000E+00  0.77259642714E+03  0.77261072295E+03  0.47000000000E+01 0. -1.
          5   -1    0    0  501    0  0.00000000000E+00 -0.00000000000E+00 -0.28784777951E+02  0.29165963754E+02  0.47000000000E+01 0. -1.
         25    2    1    2    0    0 -0.54462230100E+01 -0.26480895514E+00  0.59184901152E+03  0.60492998638E+03  0.12500121804E+03 0.  0.
         25    2    1    2    0    0  0.54462230100E+01  0.26480895514E+00  0.15196263766E+03  0.19684670033E+03  0.12500499476E+03 0.  0.
          5    1    4    4  502    0  0.57298047141E+02 -0.29864586091E+02  0.73436955393E+02  0.97928729829E+02  0.47000000000E+01 0.  1.
         -5    1    4    4    0  502 -0.51851824131E+02  0.30129395046E+02  0.78525682270E+02  0.98917970498E+02  0.47000000000E+01 0.  1.
          5    1    3    3  503    0 -0.16423540731E+02 -0.53552477063E+02  0.15887676096E+03  0.16852749231E+03  0.47000000000E+01 0. -1.
         -5    1    3    3    0  503  0.10977317721E+02  0.53287668108E+02  0.43297225056E+03  0.43640249407E+03  0.47000000000E+01 0. -1.
<mgrwt>
<rscale>  0 0.12512292E+03</rscale>
<asrwt>0</asrwt>
<pdfrwt beam="2">  1        5 0.44588496E-02 0.12512386E+03</pdfrwt>
<pdfrwt beam="1">  1       -5 0.11889140E+00 0.12512386E+03</pdfrwt>
<totfact> 0.11430216E+02</totfact>
</mgrwt>
</event>
<event>
 8    1  0.1865596E-007  0.1489100E+03  0.7546771E-02  0.1201819E+00
          5   -1    0    0  501    0  0.00000000000E+00  0.00000000000E+00  0.11732599543E+03  0.11742009710E+03  0.47000000000E+01 0.  1.
         -5   -1    0    0    0  501 -0.00000000000E+00 -0.00000000000E+00 -0.22184136266E+03  0.22189114490E+03  0.47000000000E+01 0.  1.
         25    2    1    2    0    0  0.55862193764E+02  0.58557612090E+02 -0.11771539789E+03  0.18981863289E+03  0.12499847947E+03 0.  0.
         25    2    1    2    0    0 -0.55862193764E+02 -0.58557612090E+02  0.13200030653E+02  0.14949260911E+03  0.12499688293E+03 0.  0.
          5    1    4    4  502    0 -0.78097314218E+02 -0.50560263581E+01  0.36983402548E+02  0.86686884559E+02  0.47000000000E+01 0.  1.
         -5    1    4    4    0  502  0.22235120454E+02 -0.53501585732E+02 -0.23783371895E+02  0.62805724549E+02  0.47000000000E+01 0.  1.
          5    1    3    3  503    0  0.79542288129E+01 -0.39022387943E+02 -0.31375572043E+02  0.50916922902E+02  0.47000000000E+01 0. -1.
         -5    1    3    3    0  503  0.47907964951E+02  0.97580000033E+02 -0.86339825843E+02  0.13890170999E+03  0.47000000000E+01 0. -1.
<mgrwt>
<rscale>  0 0.14890970E+03</rscale>
<asrwt>0</asrwt>
<pdfrwt beam="1">  1        5 0.18061221E-01 0.14891003E+03</pdfrwt>
<pdfrwt beam="2">  1       -5 0.34140508E-01 0.14891003E+03</pdfrwt>
<totfact> 0.17259189E+02</totfact>
</mgrwt>
</event>
<event>
 8    1  0.1865596E-007  0.1379722E+03  0.7546771E-02  0.1216084E+00
         -5   -1    0    0    0  501 -0.00000000000E+00  0.00000000000E+00  0.43256043153E+03  0.43258596478E+03  0.47000000000E+01 0. -1.
          5   -1    0    0  501    0  0.00000000000E+00 -0.00000000000E+00 -0.44015864177E+02  0.44266085204E+02  0.47000000000E+01 0. -1.
         25    2    1    2    0    0  0.39766922149E+02  0.42779015803E+02  0.20861380535E+03  0.25011121756E+03  0.12499779629E+03 0.  0.
         25    2    1    2    0    0 -0.39766922149E+02 -0.42779015803E+02  0.17993076200E+03  0.22674083242E+03  0.12499949473E+03 0.  0.
          5    1    4    4  502    0 -0.60541159054E+02  0.61513996901E+00  0.27194357487E+02  0.66537458742E+02  0.47000000000E+01 0.  1.
         -5    1    4    4    0  502  0.20774236905E+02 -0.43394155772E+02  0.15273640451E+03  0.16020337367E+03  0.47000000000E+01 0.  1.
          5    1    3    3  503    0  0.77339433186E+02  0.48397045365E+02  0.10249314341E+03  0.13729747402E+03  0.47000000000E+01 0.  1.
         -5    1    3    3    0  503 -0.37572511037E+02 -0.56180295611E+01  0.10612066194E+03  0.11281374355E+03  0.47000000000E+01 0.  1.
<mgrwt>
<rscale>  0 0.13797181E+03</rscale>
<asrwt>0</asrwt>
<pdfrwt beam="2">  1        5 0.67928831E-02 0.13797219E+03</pdfrwt>
<pdfrwt beam="1">  1       -5 0.66568972E-01 0.13797219E+03</pdfrwt>
<totfact> 0.23124685E+02</totfact>
</mgrwt>
</event>
<event>
 8    1  0.1865596E-007  0.1672182E+03  0.7546771E-02  0.1180781E+00
         -5   -1    0    0    0  501 -0.00000000000E+00  0.00000000000E+00  0.11298075549E+03  0.11307847324E+03  0.47000000000E+01 0.  1.
          5   -1    0    0  501    0  0.00000000000E+00 -0.00000000000E+00 -0.26171967369E+03  0.26176187193E+03  0.47000000000E+01 0.  1.
         25    2    1    2    0    0  0.10064501269E+03 -0.46981836740E+02 -0.30326904677E+02  0.16994199962E+03  0.12499540202E+03 0.  0.
         25    2    1    2    0    0 -0.10064501269E+03  0.46981836740E+02 -0.11841201353E+03  0.20489834555E+03  0.12500086200E+03 0.  0.
          5    1    3    3  502    0  0.28625574808E+02  0.11516700308E+02  0.41913200124E+02  0.52257671816E+02  0.47000000000E+01 0.  1.
         -5    1    3    3    0  502  0.72019437886E+02 -0.58498537048E+02 -0.72240104800E+02  0.11768432781E+03  0.47000000000E+01 0.  1.
          5    1    4    4  503    0 -0.16110575272E+02  0.62984001329E+02 -0.95703849575E+02  0.11579227903E+03  0.47000000000E+01 0.  1.
         -5    1    4    4    0  503 -0.84534437422E+02 -0.16002164590E+02 -0.22708163951E+02  0.89106066526E+02  0.47000000000E+01 0.  1.
<mgrwt>
<rscale>  0 0.16721718E+03</rscale>
<asrwt>0</asrwt>
<pdfrwt beam="2">  1        5 0.40275328E-01 0.16721820E+03</pdfrwt>
<pdfrwt beam="1">  1       -5 0.17392417E-01 0.16721820E+03</pdfrwt>
<totfact> 0.13730320E+02</totfact>
</mgrwt>
</event>
<event>
 8    1  0.1865596E-007  0.1296051E+03  0.7546771E-02  0.1228045E+00
          5   -1    0    0  501    0  0.00000000000E+00  0.00000000000E+00  0.30354348026E+03  0.30357986496E+03  0.47000000000E+01 0. -1.
         -5   -1    0    0    0  501 -0.00000000000E+00 -0.00000000000E+00 -0.55199818183E+02  0.55399548080E+02  0.47000000000E+01 0. -1.
         25    2    1    2    0    0  0.45103991300E+01  0.33941366542E+02  0.12557681621E+03  0.18046331194E+03  0.12500044049E+03 0.  0.
         25    2    1    2    0    0 -0.45103991300E+01 -0.33941366542E+02  0.12276684587E+03  0.17851610110E+03  0.12499575931E+03 0.  0.
          5    1    3    3  502    0 -0.39455319109E+02 -0.17310128758E+02  0.69662874230E+01  0.43897402247E+02  0.47000000000E+01 0. -1.
         -5    1    3    3    0  502  0.43965718239E+02  0.51251495300E+02  0.11861052878E+03  0.13656590969E+03  0.47000000000E+01 0. -1.
          5    1    4    4  503    0  0.58895380874E+02 -0.88851211420E+01  0.70938293173E+02  0.92746658723E+02  0.47000000000E+01 0. -1.
         -5    1    4    4    0  503 -0.63405780003E+02 -0.25056245400E+02  0.51828552695E+02  0.85769442378E+02  0.47000000000E+01 0. -1.
<mgrwt>
<rscale>  0 0.12960393E+03</rscale>
<asrwt>0</asrwt>
<pdfrwt beam="1">  1        5 0.46717160E-01 0.12960505E+03</pdfrwt>
<pdfrwt beam="2">  1       -5 0.85104422E-02 0.12960505E+03</pdfrwt>
<totfact> 0.33084339E+02</totfact>
</mgrwt>
</event>
<event>
 8    1  0.1865596E-007  0.1682308E+03  0.7546771E-02  0.1179706E+00
         -5   -1    0    0    0  501 -0.00000000000E+00  0.00000000000E+00  0.24948995737E+02  0.25387839378E+02  0.47000000000E+01 0. -1.
          5   -1    0    0  501    0  0.00000000000E+00 -0.00000000000E+00 -0.12754310706E+04  0.12754397304E+04  0.47000000000E+01 0. -1.
         25    2    1    2    0    0 -0.23825930032E+02  0.11004328288E+03 -0.40119400869E+03  0.43503820298E+03  0.12499762557E+03 0.  0.
         25    2    1    2    0    0  0.23825930032E+02 -0.11004328288E+03 -0.84928806619E+03  0.86578936680E+03  0.12499523688E+03 0.  0.
          5    1    3    3  502    0  0.14970889768E+02 -0.76237344307E+01 -0.26401988607E+01  0.17643965460E+02  0.47000000000E+01 0. -1.
         -5    1    3    3    0  502 -0.38796819801E+02  0.11766701731E+03 -0.39855380983E+03  0.41739423752E+03  0.47000000000E+01 0. -1.
          5    1    4    4  503    0  0.39092085865E+02  0.94688913802E+00 -0.42885066024E+03  0.43065539189E+03  0.47000000000E+01 0. -1.
         -5    1    4    4    0  503 -0.15266155833E+02 -0.11099017201E+03 -0.42043740594E+03  0.43513397490E+03  0.47000000000E+01 0. -1.
<mgrwt>
<rscale>  0 0.16823037E+03</rscale>
<asrwt>0</asrwt>
<pdfrwt beam="2">  1        5 0.19625454E+00 0.16823081E+03</pdfrwt>
<pdfrwt beam="1">  1       -5 0.38727314E-02 0.16823081E+03</pdfrwt>
<totfact> 0.39184924E+01</totfact>
</mgrwt>
</event>
<event>
 8    1  0.1865596E-007  0.1279944E+03  0.7546771E-02  0.1230464E+00
          5   -1    0    0  501    0  0.00000000000E+00  0.00000000000E+00  0.12711755030E+03  0.12720440870E+03  0.47000000000E+01 0. -1.
         -5   -1    0    0    0  501 -0.00000000000E+00 -0.00000000000E+00 -0.15045215244E+03  0.15052554658E+03  0.47000000000E+01 0. -1.
         25    2    1    2    0    0  0.17985034339E+02 -0.20781573574E+02 -0.64439749178E+02  0.14330053487E+03  0.12500890673E+03 0.  0.
         25    2    1    2    0    0 -0.17985034339E+02  0.20781573574E+02  0.41105147038E+02  0.13442942041E+03  0.12500520269E+03 0.  0.
          5    1    4    4  502    0  0.11626250687E+02 -0.23847407435E+02  0.68845351476E+02  0.73929973396E+02  0.47000000000E+01 0. -1.
         -5    1    4    4    0  502 -0.29611285026E+02  0.44628981009E+02 -0.27740204438E+02  0.60499447014E+02  0.47000000000E+01 0. -1.
          5    1    3    3  503    0  0.46139292092E+02 -0.60680870776E+01  0.21558211838E+02  0.51502450943E+02  0.47000000000E+01 0. -1.
         -5    1    3    3    0  503 -0.28154257752E+02 -0.14713486496E+02 -0.85997961017E+02  0.91798083931E+02  0.47000000000E+01 0. -1.
<mgrwt>
<rscale>  0 0.12799348E+03</rscale>
<asrwt>0</asrwt>
<pdfrwt beam="1">  1        5 0.19568873E-01 0.12799438E+03</pdfrwt>
<pdfrwt beam="2">  1       -5 0.23158812E-01 0.12799438E+03</pdfrwt>
<totfact> 0.30067352E+02</totfact>
</mgrwt>
</event>
<event>
 8    1  0.1865596E-007  0.2015841E+03  0.7546771E-02  0.1148419E+00
         -5   -1    0    0    0  501 -0.00000000000E+00  0.00000000000E+00  0.44724361256E+03  0.44726830759E+03  0.47000000000E+01 0.  1.
          5   -1    0    0  501    0  0.00000000000E+00 -0.00000000000E+00 -0.43616361051E+03  0.43618893284E+03  0.47000000000E+01 0.  1.
         25    2    1    2    0    0 -0.14936132127E+03 -0.51850904161E+02  0.39859336826E+03  0.44666859990E+03  0.12505536517E+03 0.  0.
         25    2    1    2    0    0  0.14936132127E+03  0.51850904161E+02 -0.38751336621E+03  0.43678864053E+03  0.12498154643E+03 0.  0.
          5    1    3    3  502    0  0.22104776153E+02 -0.79000825159E+00  0.44036221281E+02  0.49502767867E+02  0.47000000000E+01 0. -1.
         -5    1    3    3    0  502 -0.17146609742E+03 -0.51060895909E+02  0.35455714698E+03  0.39716583203E+03  0.47000000000E+01 0. -1.
          5    1    4    4  503    0  0.13996788104E+03  0.12906953362E+02 -0.36370652222E+03  0.38995143476E+03  0.47000000000E+01 0.  1.
         -5    1    4    4    0  503  0.93934402345E+01  0.38943950799E+02 -0.23806843991E+02  0.46837205767E+02  0.47000000000E+01 0.  1.
<mgrwt>
<rscale>  0 0.20157269E+03</rscale>
<asrwt>0</asrwt>
<pdfrwt beam="2">  1        5 0.67105941E-01 0.20158414E+03</pdfrwt>
<pdfrwt beam="1">  1       -5 0.68810557E-01 0.20158414E+03</pdfrwt>
<totfact> 0.29683465E+00</totfact>
</mgrwt>
</event>
<event>
 8    1  0.1865596E-007  0.1596403E+03  0.7546771E-02  0.1189105E+00
          5   -1    0    0  501    0  0.00000000000E+00  0.00000000000E+00  0.48477963486E+03  0.48480241787E+03  0.47000000000E+01 0. -1.
         -5   -1    0    0    0  501 -0.00000000000E+00 -0.00000000000E+00 -0.52440719581E+02  0.52650917088E+02  0.47000000000E+01 0. -1.
         25    2    1    2    0    0  0.16562969779E+02  0.97902470848E+02  0.21517614598E+03  0.26792869914E+03  0.12500315298E+03 0.  0.
         25    2    1    2    0    0 -0.16562969779E+02 -0.97902470848E+02  0.21716276929E+03  0.26952463582E+03  0.12499854071E+03 0.  0.
          5    1    4    4  502    0 -0.24489354656E+02  0.22602093895E+02  0.79545956364E+02  0.86372636371E+02  0.47000000000E+01 0. -1.
         -5    1    4    4    0  502  0.79263848764E+01 -0.12050456474E+03  0.13761681293E+03  0.18315199945E+03  0.47000000000E+01 0. -1.
          5    1    3    3  503    0  0.20487383181E+02  0.12589228970E+03  0.15146545603E+03  0.19807189565E+03  0.47000000000E+01 0. -1.
         -5    1    3    3    0  503 -0.39244134011E+01 -0.27989818848E+02  0.63710689954E+02  0.69856803492E+02  0.47000000000E+01 0. -1.
<mgrwt>
<rscale>  0 0.15963936E+03</rscale>
<asrwt>0</asrwt>
<pdfrwt beam="1">  1        5 0.74599403E-01 0.15964026E+03</pdfrwt>
<pdfrwt beam="2">  1       -5 0.80857247E-02 0.15964026E+03</pdfrwt>
<totfact> 0.13924585E+02</totfact>
</mgrwt>
</event>
<event>
 8    1  0.1865596E-007  0.1352078E+03  0.7546771E-02  0.1219928E+00
          5   -1    0    0  501    0  0.00000000000E+00  0.00000000000E+00  0.12173202605E+03  0.12182272434E+03  0.47000000000E+01 0.  1.
         -5   -1    0    0    0  501 -0.00000000000E+00 -0.00000000000E+00 -0.14998798012E+03  0.15006160128E+03  0.47000000000E+01 0.  1.
         25    2    1    2    0    0  0.43893196242E+02  0.26986466218E+02 -0.13716742108E+02  0.13589703871E+03  0.12499989632E+03 0.  0.
         25    2    1    2    0    0 -0.43893196242E+02 -0.26986466218E+02 -0.14539211963E+02  0.13598728691E+03  0.12500508582E+03 0.  0.
          5    1    3    3  502    0  0.53411879333E+02 -0.61179377956E+01 -0.58246277891E+02  0.79403884697E+02  0.47000000000E+01 0.  1.
         -5    1    3    3    0  502 -0.95186830902E+01  0.33104404014E+02  0.44529535784E+02  0.56493154010E+02  0.47000000000E+01 0.  1.
          5    1    4    4  503    0  0.35963637533E+02 -0.69442054115E+01  0.24935745039E+02  0.44558799289E+02  0.47000000000E+01 0. -1.
         -5    1    4    4    0  503 -0.79856833775E+02 -0.20042260807E+02 -0.39474957002E+02  0.91428487624E+02  0.47000000000E+01 0. -1.
<mgrwt>
<rscale>  0 0.13520662E+03</rscale>
<asrwt>0</asrwt>
<pdfrwt beam="1">  1        5 0.18740644E-01 0.13520782E+03</pdfrwt>
<pdfrwt beam="2">  1       -5 0.23087714E-01 0.13520782E+03</pdfrwt>
<totfact> 0.33420275E+02</totfact>
</mgrwt>
</event>
<event>
 8    1  0.1865596E-007  0.1255567E+03  0.7546771E-02  0.1234204E+00
          5   -1    0    0  501    0  0.00000000000E+00  0.00000000000E+00  0.18373825998E+02  0.18965428596E+02  0.47000000000E+01 0. -1.
         -5   -1    0    0    0  501 -0.00000000000E+00 -0.00000000000E+00 -0.89419006651E+03  0.89420241838E+03  0.47000000000E+01 0. -1.
         25    2    1    2    0    0  0.56820234350E+01  0.10345554793E+02 -0.54631699192E+03  0.56055930246E+03  0.12500064008E+03 0.  0.
         25    2    1    2    0    0 -0.56820234350E+01 -0.10345554793E+02 -0.32949924859E+03  0.35260854452E+03  0.12499485970E+03 0.  0.
          5    1    3    3  502    0  0.24036874049E+02 -0.11538943427E+02 -0.52214693829E+03  0.52284838499E+03  0.47000000000E+01 0. -1.
         -5    1    3    3    0  502 -0.18354850614E+02  0.21884498220E+02 -0.24170053630E+02  0.37710917463E+02  0.47000000000E+01 0. -1.
          5    1    4    4  503    0 -0.26685718380E+02  0.37515956948E+02 -0.26708203283E+03  0.27106175837E+03  0.47000000000E+01 0. -1.
         -5    1    4    4    0  503  0.21003694945E+02 -0.47861511741E+02 -0.62417215762E+02  0.81546786148E+02  0.47000000000E+01 0. -1.
<mgrwt>
<rscale>  0 0.12555523E+03</rscale>
<asrwt>0</asrwt>
<pdfrwt beam="1">  1        5 0.28732012E-02 0.12555666E+03</pdfrwt>
<pdfrwt beam="2">  1       -5 0.13761413E+00 0.12555666E+03</pdfrwt>
<totfact> 0.16027655E+02</totfact>
</mgrwt>
</event>
<event>
 8    1  0.1865596E-007  0.1559936E+03  0.7546771E-02  0.1193305E+00
          5   -1    0    0  501    0  0.00000000000E+00  0.00000000000E+00  0.16550907305E+04  0.16550974039E+04  0.47000000000E+01 0. -1.
         -5   -1    0    0    0  501 -0.00000000000E+00 -0.00000000000E+00 -0.17942346757E+02  0.18547717034E+02  0.47000000000E+01 0. -1.
         25    2    1    2    0    0  0.60133264155E+02  0.71292322844E+02  0.44932231923E+03  0.47561976262E+03  0.12500002914E+03 0.  0.
         25    2    1    2    0    0 -0.60133264155E+02 -0.71292322844E+02  0.11878260645E+04  0.11980253583E+04  0.12504157196E+03 0.  0.
          5    1    3    3  502    0 -0.60433045725E+01  0.30229078142E+02  0.33935622149E+03  0.34078593539E+03  0.47000000000E+01 0. -1.
         -5    1    3    3    0  502  0.66176568728E+02  0.41063244702E+02  0.10996609774E+03  0.13483382723E+03  0.47000000000E+01 0. -1.
          5    1    4    4  503    0 -0.43532894898E+02 -0.10690374517E+03  0.82530494383E+03  0.83335098487E+03  0.47000000000E+01 0. -1.
         -5    1    4    4    0  503 -0.16600369257E+02  0.35611422328E+02  0.36252112071E+03  0.36467437341E+03  0.47000000000E+01 0. -1.
<mgrwt>
<rscale>  0 0.15598526E+03</rscale>
<asrwt>0</asrwt>
<pdfrwt beam="1">  1        5 0.25467644E+00 0.15599359E+03</pdfrwt>
<pdfrwt beam="2">  1       -5 0.28074411E-02 0.15599359E+03</pdfrwt>
<totfact> 0.26932784E+01</totfact>
</mgrwt>
</event>
<event>
 8    1  0.1865596E-007  0.1293604E+03  0.7546771E-02  0.1228408E+00
         -5   -1    0    0    0  501 -0.00000000000E+00  0.00000000000E+00  0.67693290587E+03  0.67694922192E+03  0.47000000000E+01 0. -1.
          5   -1    0    0  501    0  0.00000000000E+00 -0.00000000000E+00 -0.26342993644E+02  0.26758985671E+02  0.47000000000E+01 0. -1.
         25    2    1    2    0    0  0.22475342776E+02 -0.24568609214E+02  0.41807118835E+03  0.43762724942E+03  0.12500133323E+03 0.  0.
         25    2    1    2    0    0 -0.22475342776E+02  0.24568609214E+02  0.23251872388E+03  0.26608095817E+03  0.12500144702E+03 0.  0.
          5    1    4    4  502    0 -0.11403278390E+02 -0.24789733112E+02 -0.39472320854E+00  0.27691360245E+02  0.47000000000E+01 0. -1.
         -5    1    4    4    0  502 -0.11072064386E+02  0.49358342326E+02  0.23291344709E+03  0.23838959793E+03  0.47000000000E+01 0. -1.
          5    1    3    3  503    0  0.22670940958E+02 -0.74735244700E+02  0.27652052273E+03  0.28737609131E+03  0.47000000000E+01 0.  1.
         -5    1    3    3    0  503 -0.19559818220E+00  0.50166635487E+02  0.14155066562E+03  0.15025115811E+03  0.47000000000E+01 0.  1.
<mgrwt>
<rscale>  0 0.12936040E+03</rscale>
<asrwt>0</asrwt>
<pdfrwt beam="2">  1        5 0.40860230E-02 0.12936042E+03</pdfrwt>
<pdfrwt beam="1">  1       -5 0.10417677E+00 0.12936042E+03</pdfrwt>
<totfact> 0.18541484E+02</totfact>
</mgrwt>
</event>
<event>
 8    1  0.1865596E-007  0.1257717E+03  0.7546771E-02  0.1233871E+00
          5   -1    0    0  501    0  0.00000000000E+00  0.00000000000E+00  0.79775705143E+03  0.79777089638E+03  0.47000000000E+01 0. -1.
         -5   -1    0    0    0  501 -0.00000000000E+00 -0.00000000000E+00 -0.19862400807E+02  0.20410903111E+02  0.47000000000E+01 0. -1.
         25    2    1    2    0    0 -0.41789967936E+01  0.13274435531E+02  0.33716082614E+03  0.35985546293E+03  0.12499942746E+03 0.  0.
         25    2    1    2    0    0  0.41789967936E+01 -0.13274435531E+02  0.44073382449E+03  0.45832633656E+03  0.12499220809E+03 0.  0.
          5    1    3    3  502    0  0.26170942880E+02  0.62060614882E+02  0.16414580491E+03  0.17748907977E+03  0.47000000000E+01 0.  1.
         -5    1    3    3    0  502 -0.30349939673E+02 -0.48786179351E+02  0.17301502123E+03  0.18236638316E+03  0.47000000000E+01 0.  1.
          5    1    4    4  503    0 -0.52345334492E+02 -0.24579934520E+02  0.30982712513E+03  0.31521285616E+03  0.47000000000E+01 0. -1.
         -5    1    4    4    0  503  0.56524331285E+02  0.11305498989E+02  0.13090669936E+03  0.14311348040E+03  0.47000000000E+01 0. -1.
<mgrwt>
<rscale>  0 0.12576995E+03</rscale>
<asrwt>0</asrwt>
<pdfrwt beam="1">  1        5 0.12277509E+00 0.12577174E+03</pdfrwt>
<pdfrwt beam="2">  1       -5 0.30990120E-02 0.12577174E+03</pdfrwt>
<totfact> 0.19091117E+02</totfact>
</mgrwt>
</event>
<event>
 8    1  0.1865596E-007  0.1315056E+03  0.7546771E-02  0.1225243E+00
          5   -1    0    0  501    0  0.00000000000E+00  0.00000000000E+00  0.85508534933E+02  0.85637605912E+02  0.47000000000E+01 0. -1.
         -5   -1    0    0    0  501 -0.00000000000E+00 -0.00000000000E+00 -0.20267351206E+03  0.20272800125E+03  0.47000000000E+01 0. -1.
         25    2    1    2    0    0 -0.32354323230E+02 -0.24889980485E+02 -0.67383037568E+02  0.14775283184E+03  0.12499644877E+03 0.  0.
         25    2    1    2    0    0  0.32354323230E+02  0.24889980485E+02 -0.49781939562E+02  0.14061277532E+03  0.12500959050E+03 0.  0.
          5    1    3    3  502    0  0.19359023084E+02 -0.45538407620E+02  0.11561200474E+02  0.51032045812E+02  0.47000000000E+01 0.  1.
         -5    1    3    3    0  502 -0.51713346314E+02  0.20648427135E+02 -0.78944238042E+02  0.96720786030E+02  0.47000000000E+01 0.  1.
          5    1    4    4  503    0 -0.45309410337E+02 -0.61706291499E+01 -0.68491877184E+01  0.46476022867E+02  0.47000000000E+01 0.  1.
         -5    1    4    4    0  503  0.77663733566E+02  0.31060609635E+02 -0.42932751844E+02  0.94136752457E+02  0.47000000000E+01 0.  1.
<mgrwt>
<rscale>  0 0.13150243E+03</rscale>
<asrwt>0</asrwt>
<pdfrwt beam="1">  1        5 0.13169279E-01 0.13150556E+03</pdfrwt>
<pdfrwt beam="2">  1       -5 0.31194660E-01 0.13150556E+03</pdfrwt>
<totfact> 0.35131940E+02</totfact>
</mgrwt>
</event>
<event>
 8    1  0.1865596E-007  0.1273683E+03  0.7546771E-02  0.1231414E+00
         -5   -1    0    0    0  501 -0.00000000000E+00  0.00000000000E+00  0.10791198871E+04  0.10791301222E+04  0.47000000000E+01 0.  1.
          5   -1    0    0  501    0  0.00000000000E+00 -0.00000000000E+00 -0.14693892165E+02  0.15427263755E+02  0.47000000000E+01 0.  1.
         25    2    1    2    0    0  0.20454122610E+02  0.13573577017E+02  0.50486040896E+03  0.52067909442E+03  0.12498029328E+03 0.  0.
         25    2    1    2    0    0 -0.20454122610E+02 -0.13573577017E+02  0.55956558596E+03  0.57387829156E+03  0.12498014006E+03 0.  0.
          5    1    4    4  502    0 -0.53604894188E+02  0.18695599317E+02  0.46522641031E+03  0.46870109127E+03  0.47000000000E+01 0. -1.
         -5    1    4    4    0  502  0.33150771577E+02 -0.32269176335E+02  0.94339175657E+02  0.10517720029E+03  0.47000000000E+01 0. -1.
          5    1    3    3  503    0  0.35109337345E+02  0.17090831098E+02  0.41964675878E+02  0.57514225179E+02  0.47000000000E+01 0. -1.
         -5    1    3    3    0  503 -0.14655214735E+02 -0.35172540808E+01  0.46289573308E+03  0.46316486924E+03  0.47000000000E+01 0. -1.
<mgrwt>
<rscale>  0 0.12736827E+03</rscale>
<asrwt>0</asrwt>
<pdfrwt beam="2">  1        5 0.23177988E-02 0.12736831E+03</pdfrwt>
<pdfrwt beam="1">  1       -5 0.16607568E+00 0.12736831E+03</pdfrwt>
<totfact> 0.13585148E+02</totfact>
</mgrwt>
</event>
<event>
 8    1  0.1865596E-007  0.1256589E+03  0.7546771E-02  0.1234045E+00
         -5   -1    0    0    0  501 -0.00000000000E+00  0.00000000000E+00  0.23659477739E+03  0.23664145598E+03  0.47000000000E+01 0.  1.
          5   -1    0    0  501    0  0.00000000000E+00 -0.00000000000E+00 -0.67374790486E+02  0.67538525251E+02  0.47000000000E+01 0.  1.
         25    2    1    2    0    0 -0.11147182442E+02  0.64289329718E+01  0.10088254842E+03  0.16114094060E+03  0.12499409308E+03 0.  0.
         25    2    1    2    0    0  0.11147182442E+02 -0.64289329718E+01  0.68337438479E+02  0.14303904063E+03  0.12499828315E+03 0.  0.
          5    1    3    3  502    0 -0.44042715839E+02 -0.29347203784E+02  0.98904893945E+02  0.11227327035E+03  0.47000000000E+01 0. -1.
         -5    1    3    3    0  502  0.32895533397E+02  0.35776136756E+02  0.19776544777E+01  0.48867670252E+02  0.47000000000E+01 0. -1.
          5    1    4    4  503    0  0.23081250922E+02  0.21281772612E+02 -0.27782504779E+02  0.42185489940E+02  0.47000000000E+01 0.  1.
         -5    1    4    4    0  503 -0.11934068480E+02 -0.27710705584E+02  0.96119943258E+02  0.10085355069E+03  0.47000000000E+01 0.  1.
<mgrwt>
<rscale>  0 0.12565787E+03</rscale>
<asrwt>0</asrwt>
<pdfrwt beam="2">  1        5 0.10381538E-01 0.12565891E+03</pdfrwt>
<pdfrwt beam="1">  1       -5 0.36415381E-01 0.12565891E+03</pdfrwt>
<totfact> 0.38640759E+02</totfact>
</mgrwt>
</event>
<event>
 8    1  0.1865596E-007  0.1345259E+03  0.7546771E-02  0.1220897E+00
          5   -1    0    0  501    0  0.00000000000E+00  0.00000000000E+00  0.33560660524E+03  0.33563951418E+03  0.47000000000E+01 0.  1.
         -5   -1    0    0    0  501 -0.00000000000E+00 -0.00000000000E+00 -0.57802074055E+02  0.57992842360E+02  0.47000000000E+01 0.  1.
         25    2    1    2    0    0  0.49202921841E+02  0.69876810440E+01  0.87069938855E+02  0.16022950590E+03  0.12499026004E+03 0.  0.
         25    2    1    2    0    0 -0.49202921841E+02 -0.69876810440E+01  0.19073459233E+03  0.23340285064E+03  0.12500980270E+03 0.  0.
          5    1    4    4  502    0 -0.75674560704E+02  0.25849368659E+02  0.73473428594E+02  0.10869803911E+03  0.47000000000E+01 0. -1.
         -5    1    4    4    0  502  0.26471638863E+02 -0.32837049703E+02  0.11726116374E+03  0.12470481153E+03  0.47000000000E+01 0. -1.
          5    1    3    3  503    0  0.39872970944E+02  0.58793219312E+02  0.18317981823E+02  0.73512821379E+02  0.47000000000E+01 0. -1.
         -5    1    3    3    0  503  0.93299508964E+01 -0.51805538268E+02  0.68751957031E+02  0.86716684523E+02  0.47000000000E+01 0. -1.
<mgrwt>
<rscale>  0 0.13452132E+03</rscale>
<asrwt>0</asrwt>
<pdfrwt beam="1">  1        5 0.51648991E-01 0.13452586E+03</pdfrwt>
<pdfrwt beam="2">  1       -5 0.89098328E-02 0.13452586E+03</pdfrwt>
<totfact> 0.25059819E+02</totfact>
</mgrwt>
</event>
<event>
 8    1  0.1865596E-007  0.1377491E+03  0.7546771E-02  0.1216392E+00
          5   -1    0    0  501    0  0.00000000000E+00  0.00000000000E+00  0.46590000052E+02  0.46826467995E+02  0.47000000000E+01 0.  1.
         -5   -1    0    0    0  501 -0.00000000000E+00 -0.00000000000E+00 -0.41117857740E+03  0.41120543833E+03  0.47000000000E+01 0.  1.
         25    2    1    2    0    0  0.54702805553E+02 -0.18853658500E+02 -0.20805745795E+03  0.24952500257E+03  0.12500785465E+03 0.  0.
         25    2    1    2    0    0 -0.54702805553E+02  0.18853658500E+02 -0.15653111940E+03  0.20850690376E+03  0.12500112080E+03 0.  0.
          5    1    4    4  502    0 -0.18394015045E+01  0.63849890751E+02 -0.49946531638E+02  0.81221536365E+02  0.47000000000E+01 0. -1.
         -5    1    4    4    0  502 -0.52863404049E+02 -0.44996232251E+02 -0.10658458776E+03  0.12728536739E+03  0.47000000000E+01 0. -1.
          5    1    3    3  503    0 -0.23293715664E+02 -0.18378394267E+01  0.28136317209E+01  0.23999611803E+02  0.47000000000E+01 0. -1.
         -5    1    3    3    0  503  0.77996521217E+02 -0.17015819073E+02 -0.21087108967E+03  0.22552539077E+03  0.47000000000E+01 0. -1.
<mgrwt>
<rscale>  0 0.13774760E+03</rscale>
<asrwt>0</asrwt>
<pdfrwt beam="1">  1        5 0.71879487E-02 0.13774912E+03</pdfrwt>
<pdfrwt beam="2">  1       -5 0.63278496E-01 0.13774912E+03</pdfrwt>
<totfact> 0.23498241E+02</totfact>
</mgrwt>
</event>
<event>
 8    1  0.1865596E-007  0.1332962E+03  0.7546771E-02  0.1222647E+00
          5   -1    0    0  501    0  0.00000000000E+00  0.00000000000E+00  0.48360366236E+03  0.48362650077E+03  0.47000000000E+01 0.  1.
         -5   -1    0    0    0  501 -0.00000000000E+00 -0.00000000000E+00 -0.48096414049E+02  0.48325511320E+02  0.47000000000E+01 0.  1.
         25    2    1    2    0    0 -0.67619966389E+01  0.45807281257E+02  0.87910938619E+02  0.15967532795E+03  0.12499538236E+03 0.  0.
         25    2    1    2    0    0  0.67619966389E+01 -0.45807281257E+02  0.34759630969E+03  0.37227668414E+03  0.12499081338E+03 0.  0.
          5    1    3    3  502    0  0.57638775165E+02  0.16494719919E+02  0.55007486587E+02  0.81499802259E+02  0.47000000000E+01 0.  1.
         -5    1    3    3    0  502 -0.64400771803E+02  0.29312561338E+02  0.32903452032E+02  0.78175525689E+02  0.47000000000E+01 0.  1.
          5    1    4    4  503    0 -0.44989853779E+02 -0.14179037427E+02  0.51501633574E+02  0.69997430711E+02  0.47000000000E+01 0.  1.
         -5    1    4    4    0  503  0.51751850418E+02 -0.31628243830E+02  0.29609467612E+03  0.30227925343E+03  0.47000000000E+01 0.  1.
<mgrwt>
<rscale>  0 0.13329513E+03</rscale>
<asrwt>0</asrwt>
<pdfrwt beam="1">  1        5 0.74419939E-01 0.13329620E+03</pdfrwt>
<pdfrwt beam="2">  1       -5 0.74188284E-02 0.13329620E+03</pdfrwt>
<totfact> 0.15306753E+02</totfact>
</mgrwt>
</event>
<event>
 8    1  0.1865596E-007  0.2092303E+03  0.7546771E-02  0.1142177E+00
          5   -1    0    0  501    0  0.00000000000E+00  0.00000000000E+00  0.48714641235E+03  0.48716908468E+03  0.47000000000E+01 0.  1.
         -5   -1    0    0    0  501 -0.00000000000E+00 -0.00000000000E+00 -0.90729713850E+02  0.90851367493E+02  0.47000000000E+01 0.  1.
         25    2    1    2    0    0  0.11237449929E+03 -0.12459703626E+03  0.16863157134E+03  0.26872546547E+03  0.12499727759E+03 0.  0.
         25    2    1    2    0    0 -0.11237449929E+03  0.12459703626E+03  0.22778512716E+03  0.30929498670E+03  0.12499950043E+03 0.  0.
          5    1    3    3  502    0  0.40230978702E+02  0.62560249900E+01  0.92035157724E+02  0.10074834864E+03  0.47000000000E+01 0.  1.
         -5    1    3    3    0  502  0.72143520588E+02 -0.13085306125E+03  0.76596413612E+02  0.16797711683E+03  0.47000000000E+01 0.  1.
          5    1    4    4  503    0 -0.13646902753E+03  0.10825453342E+03  0.21602460718E+03  0.27754560056E+03  0.47000000000E+01 0. -1.
         -5    1    4    4    0  503  0.24094528242E+02  0.16342502840E+02  0.11760519980E+02  0.31749386143E+02  0.47000000000E+01 0. -1.
<mgrwt>
<rscale>  0 0.20922998E+03</rscale>
<asrwt>0</asrwt>
<pdfrwt beam="1">  1        5 0.74956705E-01 0.20923031E+03</pdfrwt>
<pdfrwt beam="2">  1       -5 0.13969519E-01 0.20923031E+03</pdfrwt>
<totfact> 0.56663148E+01</totfact>
</mgrwt>
</event>
<event>
 8    1  0.1865596E-007  0.1312583E+03  0.7546771E-02  0.1225601E+00
         -5   -1    0    0    0  501 -0.00000000000E+00  0.00000000000E+00  0.32277728869E+03  0.32281150552E+03  0.47000000000E+01 0. -1.
          5   -1    0    0  501    0  0.00000000000E+00 -0.00000000000E+00 -0.60018800040E+02  0.60202544450E+02  0.47000000000E+01 0. -1.
         25    2    1    2    0    0 -0.95342205363E+01 -0.38885981963E+02  0.19564150229E+03  0.23559360315E+03  0.12500290986E+03 0.  0.
         25    2    1    2    0    0  0.95342205363E+01  0.38885981963E+02  0.67116986362E+02  0.14742044682E+03  0.12500030931E+03 0.  0.
          5    1    3    3  502    0  0.51625949970E+02 -0.41088157441E+02  0.73408105919E+02  0.98814550582E+02  0.47000000000E+01 0.  1.
         -5    1    3    3    0  502 -0.61160170506E+02  0.22021754787E+01  0.12223339637E+03  0.13677905257E+03  0.47000000000E+01 0.  1.
          5    1    4    4  503    0  0.48288004010E+02 -0.71004706608E+01 -0.94612517179E+01  0.49937493919E+02  0.47000000000E+01 0.  1.
         -5    1    4    4    0  503 -0.38753783474E+02  0.45986452623E+02  0.76578238080E+02  0.97482952899E+02  0.47000000000E+01 0.  1.
<mgrwt>
<rscale>  0 0.13125771E+03</rscale>
<asrwt>0</asrwt>
<pdfrwt beam="2">  1        5 0.92504278E-02 0.13125833E+03</pdfrwt>
<pdfrwt beam="1">  1       -5 0.49674811E-01 0.13125833E+03</pdfrwt>
<totfact> 0.25292749E+02</totfact>
</mgrwt>
</event>
<event>
 8    1  0.1865596E-007  0.1383540E+03  0.7546771E-02  0.1215563E+00
         -5   -1    0    0    0  501 -0.00000000000E+00  0.00000000000E+00  0.14634510329E+03  0.14642055613E+03  0.47000000000E+01 0. -1.
          5   -1    0    0  501    0  0.00000000000E+00 -0.00000000000E+00 -0.15166738561E+03  0.15174019196E+03  0.47000000000E+01 0. -1.
         25    2    1    2    0    0 -0.33155184253E+02  0.49176414922E+02  0.52815207861E+02  0.14809208699E+03  0.12499693605E+03 0.  0.
         25    2    1    2    0    0  0.33155184253E+02 -0.49176414922E+02 -0.58137490175E+02  0.15006866110E+03  0.12499219677E+03 0.  0.
          5    1    3    3  502    0 -0.38435597930E+02  0.74473796287E+02  0.75867679007E+02  0.11314431598E+03  0.47000000000E+01 0.  1.
         -5    1    3    3    0  502  0.52804136772E+01 -0.25297381365E+02 -0.23052471146E+02  0.34947771009E+02  0.47000000000E+01 0.  1.
          5    1    4    4  503    0 -0.10534949944E+02 -0.70326658675E+02  0.36433372943E+01  0.71359568366E+02  0.47000000000E+01 0. -1.
         -5    1    4    4    0  503  0.43690134197E+02  0.21150243753E+02 -0.61780827469E+02  0.78709092738E+02  0.47000000000E+01 0. -1.
<mgrwt>
<rscale>  0 0.13835290E+03</rscale>
<asrwt>0</asrwt>
<pdfrwt beam="2">  1        5 0.23344848E-01 0.13835397E+03</pdfrwt>
<pdfrwt beam="1">  1       -5 0.22526036E-01 0.13835397E+03</pdfrwt>
<totfact> 0.23373062E+02</totfact>
</mgrwt>
</event>
<event>
 8    1  0.1865596E-007  0.1517039E+03  0.7546771E-02  0.1198396E+00
          5   -1    0    0  501    0  0.00000000000E+00  0.00000000000E+00  0.62624437704E+02  0.62800558896E+02  0.47000000000E+01 0.  1.
         -5   -1    0    0    0  501 -0.00000000000E+00 -0.00000000000E+00 -0.36767255552E+03  0.36770259461E+03  0.47000000000E+01 0.  1.
         25    2    1    2    0    0  0.60113287047E+02  0.61434253888E+02 -0.14190852596E+03  0.20772835282E+03  0.12500105598E+03 0.  0.
         25    2    1    2    0    0 -0.60113287047E+02 -0.61434253888E+02 -0.16313959186E+03  0.22277480068E+03  0.12500524212E+03 0.  0.
          5    1    3    3  502    0  0.29730162905E+01 -0.29497057394E+01  0.21808847576E+02  0.22699238367E+02  0.47000000000E+01 0.  1.
         -5    1    3    3    0  502  0.57140270757E+02  0.64383959628E+02 -0.16371737354E+03  0.18502911446E+03  0.47000000000E+01 0.  1.
          5    1    4    4  503    0 -0.96114310574E+02 -0.25165118262E+02 -0.95685646715E+02  0.13801839320E+03  0.47000000000E+01 0. -1.
         -5    1    4    4    0  503  0.36001023527E+02 -0.36269135626E+02 -0.67453945143E+02  0.84756407482E+02  0.47000000000E+01 0. -1.
<mgrwt>
<rscale>  0 0.15170308E+03</rscale>
<asrwt>0</asrwt>
<pdfrwt beam="1">  1        5 0.96503876E-02 0.15170394E+03</pdfrwt>
<pdfrwt beam="2">  1       -5 0.56580866E-01 0.15170394E+03</pdfrwt>
<totfact> 0.18665170E+02</totfact>
</mgrwt>
</event>
<event>
 8    1  0.1865596E-007  0.1280564E+03  0.7546771E-02  0.1230392E+00
          5   -1    0    0  501    0  0.00000000000E+00  0.00000000000E+00  0.48741071529E+02  0.48967152805E+02  0.47000000000E+01 0.  1.
         -5   -1    0    0    0  501 -0.00000000000E+00 -0.00000000000E+00 -0.33525295325E+03  0.33528589690E+03  0.47000000000E+01 0.  1.
         25    2    1    2    0    0  0.27209288520E+02 -0.58007055301E+01 -0.14346646588E+03  0.19230465563E+03  0.12499784069E+03 0.  0.
         25    2    1    2    0    0 -0.27209288520E+02  0.58007055301E+01 -0.14304541584E+03  0.19194839408E+03  0.12493278765E+03 0.  0.
          5    1    4    4  502    0 -0.23507962127E+02 -0.55038508169E+02 -0.40015405533E+02  0.72146963518E+02  0.47000000000E+01 0.  1.
         -5    1    4    4    0  502 -0.37013263922E+01  0.60839213699E+02 -0.10303001031E+03  0.11980143056E+03  0.47000000000E+01 0.  1.
          5    1    3    3  503    0  0.23993789114E+02  0.41397873281E+02 -0.13591448094E+03  0.14416768694E+03  0.47000000000E+01 0. -1.
         -5    1    3    3    0  503  0.32154994059E+01 -0.47198578811E+02 -0.75519849411E+01  0.48136968691E+02  0.47000000000E+01 0. -1.
<mgrwt>
<rscale>  0 0.12804057E+03</rscale>
<asrwt>0</asrwt>
<pdfrwt beam="1">  1        5 0.75185516E-02 0.12805645E+03</pdfrwt>
<pdfrwt beam="2">  1       -5 0.51597301E-01 0.12805645E+03</pdfrwt>
<totfact> 0.33022911E+02</totfact>
</mgrwt>
</event>
<event>
 8    1  0.1865596E-007  0.1287285E+03  0.7546771E-02  0.1229360E+00
          5   -1    0    0  501    0  0.00000000000E+00  0.00000000000E+00  0.16442124470E+02  0.17100685866E+02  0.47000000000E+01 0.  1.
         -5   -1    0    0    0  501 -0.00000000000E+00 -0.00000000000E+00 -0.10225068350E+04  0.10225176369E+04  0.47000000000E+01 0.  1.
         25    2    1    2    0    0 -0.66917319199E+01 -0.29975595587E+02 -0.40660700636E+03  0.42649768170E+03  0.12501079659E+03 0.  0.
         25    2    1    2    0    0  0.66917319199E+01  0.29975595587E+02 -0.59945770420E+03  0.61312064103E+03  0.12499626284E+03 0.  0.
          5    1    4    4  502    0 -0.21809133671E+02  0.10182018818E+02 -0.55931107889E+03  0.55984844805E+03  0.47000000000E+01 0.  1.
         -5    1    4    4    0  502  0.28500865591E+02  0.19793576769E+02 -0.40146625314E+02  0.53272192979E+02  0.47000000000E+01 0.  1.
          5    1    3    3  503    0 -0.10272337419E+02 -0.26881275103E+02 -0.41486171762E+03  0.41588515075E+03  0.47000000000E+01 0. -1.
         -5    1    3    3    0  503  0.35806054987E+01 -0.30943204836E+01  0.82547112625E+01  0.10612530943E+02  0.47000000000E+01 0. -1.
<mgrwt>
<rscale>  0 0.12872493E+03</rscale>
<asrwt>0</asrwt>
<pdfrwt beam="1">  1        5 0.25810479E-02 0.12872845E+03</pdfrwt>
<pdfrwt beam="2">  1       -5 0.15736018E+00 0.12872845E+03</pdfrwt>
<totfact> 0.13355182E+02</totfact>
</mgrwt>
</event>
<event>
 8    1  0.1865596E-007  0.1351819E+03  0.7546771E-02  0.1219967E+00
          5   -1    0    0  501    0  0.00000000000E+00  0.00000000000E+00  0.14550313501E+04  0.14550389410E+04  0.47000000000E+01 0. -1.
         -5   -1    0    0    0  501 -0.00000000000E+00 -0.00000000000E+00 -0.12942846260E+02  0.13769795544E+02  0.47000000000E+01 0. -1.
         25    2    1    2    0    0  0.12395753446E+02 -0.49958031255E+02  0.54070056061E+03  0.55734048597E+03  0.12498744521E+03 0.  0.
         25    2    1    2    0    0 -0.12395753446E+02  0.49958031255E+02  0.90138794323E+03  0.91146825056E+03  0.12499875196E+03 0.  0.
          5    1    3    3  502    0  0.58926338249E+02 -0.15305906380E+01  0.15676468908E+03  0.16754675106E+03  0.47000000000E+01 0.  1.
         -5    1    3    3    0  502 -0.46530584802E+02 -0.48427440617E+02  0.38393587153E+03  0.38979373491E+03  0.47000000000E+01 0.  1.
          5    1    4    4  503    0  0.23083236781E+00  0.17411796232E+02  0.12644889168E+02  0.22027418226E+02  0.47000000000E+01 0. -1.
         -5    1    4    4    0  503 -0.12626585814E+02  0.32546235023E+02  0.88874305406E+03  0.88944083233E+03  0.47000000000E+01 0. -1.
<mgrwt>
<rscale>  0 0.13517929E+03</rscale>
<asrwt>0</asrwt>
<pdfrwt beam="1">  1        5 0.22391521E+00 0.13518191E+03</pdfrwt>
<pdfrwt beam="2">  1       -5 0.20554022E-02 0.13518191E+03</pdfrwt>
<totfact> 0.67178073E+01</totfact>
</mgrwt>
</event>
<event>
 8    1  0.1865596E-007  0.1499098E+03  0.7546771E-02  0.1200585E+00
          5   -1    0    0  501    0  0.00000000000E+00  0.00000000000E+00  0.16253341501E+03  0.16260135607E+03  0.47000000000E+01 0. -1.
         -5   -1    0    0    0  501 -0.00000000000E+00 -0.00000000000E+00 -0.13862296679E+03  0.13870262045E+03  0.47000000000E+01 0. -1.
         25    2    1    2    0    0 -0.97185519404E+01 -0.82174080949E+02  0.20964482451E+02  0.15136862712E+03  0.12500368763E+03 0.  0.
         25    2    1    2    0    0  0.97185519404E+01  0.82174080949E+02  0.29459657759E+01  0.14993534940E+03  0.12499960181E+03 0.  0.
          5    1    4    4  502    0  0.40063735956E+02  0.96942688620E+02  0.26769438926E+02  0.10835903597E+03  0.47000000000E+01 0.  1.
         -5    1    4    4    0  502 -0.30345184016E+02 -0.14768607671E+02 -0.23823473150E+02  0.41576313430E+02  0.47000000000E+01 0.  1.
          5    1    3    3  503    0 -0.26537441535E+02  0.27147603989E+02 -0.19945788398E+01  0.38305307077E+02  0.47000000000E+01 0.  1.
         -5    1    3    3    0  503  0.16818889595E+02 -0.10932168494E+03  0.22959061291E+02  0.11306332005E+03  0.47000000000E+01 0.  1.
<mgrwt>
<rscale>  0 0.14990896E+03</rscale>
<asrwt>0</asrwt>
<pdfrwt beam="1">  1        5 0.25016494E-01 0.14990981E+03</pdfrwt>
<pdfrwt beam="2">  1       -5 0.21337964E-01 0.14990981E+03</pdfrwt>
<totfact> 0.23305133E+02</totfact>
</mgrwt>
</event>
<event>
 8    1  0.1865596E-007  0.1841919E+03  0.7546771E-02  0.1163807E+00
         -5   -1    0    0    0  501 -0.00000000000E+00  0.00000000000E+00  0.12872434409E+03  0.12881011901E+03  0.47000000000E+01 0. -1.
          5   -1    0    0  501    0  0.00000000000E+00 -0.00000000000E+00 -0.36519717129E+03  0.36522741397E+03  0.47000000000E+01 0. -1.
         25    2    1    2    0    0  0.12692368625E+03  0.46809483592E+02  0.12184229197E+02  0.18459125310E+03  0.12499890158E+03 0.  0.
         25    2    1    2    0    0 -0.12692368625E+03 -0.46809483592E+02 -0.24865705640E+03  0.30944627988E+03  0.12500367415E+03 0.  0.
          5    1    4    4  502    0 -0.52167480689E+02 -0.79472985665E+02 -0.17605406413E+03  0.20013626605E+03  0.47000000000E+01 0. -1.
         -5    1    4    4    0  502 -0.74756205562E+02  0.32663502073E+02 -0.72602992264E+02  0.10931001383E+03  0.47000000000E+01 0. -1.
          5    1    3    3  503    0  0.10142608777E+03 -0.22608978533E+02 -0.16128093248E+02  0.10526453620E+03  0.47000000000E+01 0. -1.
         -5    1    3    3    0  503  0.25497598486E+02  0.69418462125E+02  0.28312322445E+02  0.79326716903E+02  0.47000000000E+01 0. -1.
<mgrwt>
<rscale>  0 0.18419112E+03</rscale>
<asrwt>0</asrwt>
<pdfrwt beam="2">  1        5 0.56193104E-01 0.18419193E+03</pdfrwt>
<pdfrwt beam="1">  1       -5 0.19812670E-01 0.18419193E+03</pdfrwt>
<totfact> 0.54833639E+01</totfact>
</mgrwt>
</event>
<event>
 8    1  0.1865596E-007  0.1327284E+03  0.7546771E-02  0.1223464E+00
         -5   -1    0    0    0  501 -0.00000000000E+00  0.00000000000E+00  0.12836099970E+03  0.12844701726E+03  0.47000000000E+01 0.  1.
          5   -1    0    0  501    0  0.00000000000E+00 -0.00000000000E+00 -0.13990671966E+03  0.13998564285E+03  0.47000000000E+01 0.  1.
         25    2    1    2    0    0 -0.37603788800E+02  0.24024518086E+02  0.13334464228E+02  0.13339249289E+03  0.12499810727E+03 0.  0.
         25    2    1    2    0    0  0.37603788800E+02 -0.24024518086E+02 -0.24880184186E+02  0.13504016723E+03  0.12500240317E+03 0.  0.
          5    1    3    3  502    0 -0.71516093330E+02  0.51970652474E+02  0.89448092469E+01  0.88980896467E+02  0.47000000000E+01 0.  1.
         -5    1    3    3    0  502  0.33912304529E+02 -0.27946134387E+02  0.43896549808E+01  0.44411596420E+02  0.47000000000E+01 0.  1.
          5    1    4    4  503    0 -0.44617841422E+02 -0.22515426543E+02 -0.12656213747E+02  0.51768387574E+02  0.47000000000E+01 0.  1.
         -5    1    4    4    0  503  0.82221630223E+02 -0.15090915437E+01 -0.12223970438E+02  0.83271779656E+02  0.47000000000E+01 0.  1.
<mgrwt>
<rscale>  0 0.13272737E+03</rscale>
<asrwt>0</asrwt>
<pdfrwt beam="2">  1        5 0.21536798E-01 0.13272838E+03</pdfrwt>
<pdfrwt beam="1">  1       -5 0.19760534E-01 0.13272838E+03</pdfrwt>
<totfact> 0.34317796E+02</totfact>
</mgrwt>
</event>
<event>
 8    1  0.1865596E-007  0.1742489E+03  0.7546771E-02  0.1173492E+00
         -5   -1    0    0    0  501 -0.00000000000E+00  0.00000000000E+00  0.79603731829E+02  0.79742360895E+02  0.47000000000E+01 0. -1.
          5   -1    0    0  501    0  0.00000000000E+00 -0.00000000000E+00 -0.47255977602E+03  0.47258314815E+03  0.47000000000E+01 0. -1.
         25    2    1    2    0    0  0.29000037754E+02  0.11788553467E+03 -0.74883026711E+02  0.18965799902E+03  0.12499874971E+03 0.  0.
         25    2    1    2    0    0 -0.29000037754E+02 -0.11788553467E+03 -0.31807301748E+03  0.36266751002E+03  0.12497710551E+03 0.  0.
          5    1    3    3  502    0  0.66031849154E+02  0.38215059004E+02 -0.66431407242E+02  0.10127101118E+03  0.47000000000E+01 0. -1.
         -5    1    3    3    0  502 -0.37031811400E+02  0.79670475666E+02 -0.84516194691E+01  0.88386987843E+02  0.47000000000E+01 0. -1.
          5    1    4    4  503    0  0.87780124916E+01 -0.13451882655E+02  0.77222884852E+01  0.18431776629E+02  0.47000000000E+01 0.  1.
         -5    1    4    4    0  503 -0.37778050245E+02 -0.10443365201E+03 -0.32579530596E+03  0.34423573339E+03  0.47000000000E+01 0.  1.
<mgrwt>
<rscale>  0 0.17424505E+03</rscale>
<asrwt>0</asrwt>
<pdfrwt beam="2">  1        5 0.72713964E-01 0.17424893E+03</pdfrwt>
<pdfrwt beam="1">  1       -5 0.12259190E-01 0.17424893E+03</pdfrwt>
<totfact> 0.73092184E+01</totfact>
</mgrwt>
</event>
<event>
 8    1  0.1865596E-007  0.1462796E+03  0.7546771E-02  0.1205122E+00
         -5   -1    0    0    0  501 -0.00000000000E+00  0.00000000000E+00  0.33330807720E+03  0.33334121307E+03  0.47000000000E+01 0.  1.
          5   -1    0    0  501    0  0.00000000000E+00 -0.00000000000E+00 -0.64458980498E+02  0.64630102636E+02  0.47000000000E+01 0.  1.
         25    2    1    2    0    0 -0.75974152843E+02  0.82051275046E+00  0.11907666546E+03  0.18861859030E+03  0.12499990083E+03 0.  0.
         25    2    1    2    0    0  0.75974152843E+02 -0.82051275046E+00  0.14977243125E+03  0.20935272540E+03  0.12499614927E+03 0.  0.
          5    1    3    3  502    0 -0.54687257412E+02  0.13208965448E+02 -0.98219726148E+01  0.57303874541E+02  0.47000000000E+01 0.  1.
         -5    1    3    3    0  502 -0.21286895431E+02 -0.12388452698E+02  0.12889863807E+03  0.13131471576E+03  0.47000000000E+01 0.  1.
          5    1    4    4  503    0 -0.15424304842E+02 -0.42460871195E+02  0.40414290572E+02  0.60796707517E+02  0.47000000000E+01 0.  1.
         -5    1    4    4    0  503  0.91398457685E+02  0.41640358445E+02  0.10935814067E+03  0.14855601789E+03  0.47000000000E+01 0.  1.
<mgrwt>
<rscale>  0 0.14627880E+03</rscale>
<asrwt>0</asrwt>
<pdfrwt beam="2">  1        5 0.99324787E-02 0.14627960E+03</pdfrwt>
<pdfrwt beam="1">  1       -5 0.51293876E-01 0.14627960E+03</pdfrwt>
<totfact> 0.21656836E+02</totfact>
</mgrwt>
</event>
<event>
 8    1  0.1865596E-007  0.3137496E+03  0.7546771E-02  0.1078563E+00
         -5   -1    0    0    0  501 -0.00000000000E+00  0.00000000000E+00  0.71448163916E+03  0.71449709775E+03  0.47000000000E+01 0. -1.
          5   -1    0    0  501    0  0.00000000000E+00 -0.00000000000E+00 -0.14719473077E+03  0.14726974830E+03  0.47000000000E+01 0. -1.
         25    2    1    2    0    0 -0.80084893493E+02 -0.27640497299E+03  0.39293403886E+03  0.50282794356E+03  0.12500193063E+03 0.  0.
         25    2    1    2    0    0  0.80084893493E+02  0.27640497299E+03  0.17435286953E+03  0.35893890250E+03  0.12499965341E+03 0.  0.
          5    1    4    4  502    0 -0.29887195547E+02  0.31492208921E+02  0.12519843516E+02  0.45429507614E+02  0.47000000000E+01 0. -1.
         -5    1    4    4    0  502  0.10997208904E+03  0.24491276407E+03  0.16183302602E+03  0.31350939489E+03  0.47000000000E+01 0. -1.
          5    1    3    3  503    0 -0.10671664414E+03 -0.23053949559E+03  0.35853283540E+03  0.43943689561E+03  0.47000000000E+01 0.  1.
         -5    1    3    3    0  503  0.26631750643E+02 -0.45865477409E+02  0.34401203458E+02  0.63391047945E+02  0.47000000000E+01 0.  1.
<mgrwt>
<rscale>  0 0.31374933E+03</rscale>
<asrwt>0</asrwt>
<pdfrwt beam="2">  1        5 0.22652303E-01 0.31374955E+03</pdfrwt>
<pdfrwt beam="1">  1       -5 0.10992721E+00 0.31374955E+03</pdfrwt>
<totfact> 0.99885331E+00</totfact>
</mgrwt>
</event>
<event>
 8    1  0.1865596E-007  0.1373102E+03  0.7546771E-02  0.1216995E+00
         -5   -1    0    0    0  501 -0.00000000000E+00  0.00000000000E+00  0.11145387952E+03  0.11155293479E+03  0.47000000000E+01 0. -1.
          5   -1    0    0  501    0  0.00000000000E+00 -0.00000000000E+00 -0.17235540787E+03  0.17241947866E+03  0.47000000000E+01 0. -1.
         25    2    1    2    0    0 -0.56103651522E+02  0.90533623433E+01 -0.10522394577E+02  0.13771283058E+03  0.12499807933E+03 0.  0.
         25    2    1    2    0    0  0.56103651522E+02 -0.90533623433E+01 -0.50379133765E+02  0.14625958287E+03  0.12499690147E+03 0.  0.
          5    1    4    4  502    0 -0.16568515482E+02 -0.43379268458E+02  0.72747183940E+01  0.47236513048E+02  0.47000000000E+01 0.  1.
         -5    1    4    4    0  502  0.72672167004E+02  0.34325906115E+02 -0.57653852159E+02  0.99023069820E+02  0.47000000000E+01 0.  1.
          5    1    3    3  503    0 -0.48386729713E+02  0.63108078639E+02  0.75168798246E+01  0.80015615252E+02  0.47000000000E+01 0. -1.
         -5    1    3    3    0  503 -0.77169218088E+01 -0.54054716296E+02 -0.18039274401E+02  0.57697215331E+02  0.47000000000E+01 0. -1.
<mgrwt>
<rscale>  0 0.13730998E+03</rscale>
<asrwt>0</asrwt>
<pdfrwt beam="2">  1        5 0.26528765E-01 0.13731024E+03</pdfrwt>
<pdfrwt beam="1">  1       -5 0.17159299E-01 0.13731024E+03</pdfrwt>
<totfact> 0.30299917E+02</totfact>
</mgrwt>
</event>
<event>
 8    1  0.1865596E-007  0.3667672E+03  0.7546771E-02  0.1055936E+00
         -5   -1    0    0    0  501 -0.00000000000E+00  0.00000000000E+00  0.14860415212E+03  0.14867845852E+03  0.47000000000E+01 0.  1.
          5   -1    0    0  501    0  0.00000000000E+00 -0.00000000000E+00 -0.10797097370E+04  0.10797199666E+04  0.47000000000E+01 0.  1.
         25    2    1    2    0    0 -0.32835746878E+03 -0.10523174572E+03 -0.21842273953E+03  0.42687798737E+03  0.12499590132E+03 0.  0.
         25    2    1    2    0    0  0.32835746878E+03  0.10523174572E+03 -0.71268284538E+03  0.80152043774E+03  0.12500330554E+03 0.  0.
          5    1    4    4  502    0  0.11515239625E+03 -0.12931034144E+02 -0.16151961817E+03  0.19884155265E+03  0.47000000000E+01 0.  1.
         -5    1    4    4    0  502  0.21320507252E+03  0.11816277987E+03 -0.55116322721E+03  0.60267888509E+03  0.47000000000E+01 0.  1.
          5    1    3    3  503    0 -0.27254835942E+03 -0.34543704947E+02 -0.18220216520E+03  0.32969014965E+03  0.47000000000E+01 0.  1.
         -5    1    3    3    0  503 -0.55809109361E+02 -0.70688040775E+02 -0.36220574336E+02  0.97187837724E+02  0.47000000000E+01 0.  1.
<mgrwt>
<rscale>  0 0.36676656E+03</rscale>
<asrwt>0</asrwt>
<pdfrwt beam="2">  1        5 0.16611569E+00 0.36676719E+03</pdfrwt>
<pdfrwt beam="1">  1       -5 0.22868681E-01 0.36676719E+03</pdfrwt>
<totfact> 0.32894062E+00</totfact>
</mgrwt>
</event>
<event>
 8    1  0.1865596E-007  0.1628091E+03  0.7546771E-02  0.1185563E+00
         -5   -1    0    0    0  501 -0.00000000000E+00  0.00000000000E+00  0.32272271308E+03  0.32275693569E+03  0.47000000000E+01 0.  1.
          5   -1    0    0  501    0  0.00000000000E+00 -0.00000000000E+00 -0.85862286927E+02  0.85990826931E+02  0.47000000000E+01 0.  1.
         25    2    1    2    0    0 -0.75327587523E+02  0.72156994133E+02  0.16158154303E+03  0.22937745566E+03  0.12499817949E+03 0.  0.
         25    2    1    2    0    0  0.75327587523E+02 -0.72156994133E+02  0.75278883127E+02  0.17937030696E+03  0.12500367807E+03 0.  0.
          5    1    3    3  502    0 -0.10414513630E+03  0.30905906803E+02  0.13122819204E+03  0.17042392108E+03  0.47000000000E+01 0. -1.
         -5    1    3    3    0  502  0.28817548779E+02  0.41251087330E+02  0.30353350990E+02  0.58953534583E+02  0.47000000000E+01 0. -1.
          5    1    4    4  503    0  0.91220808702E+02 -0.99591845624E+01  0.18909223001E+02  0.93808688361E+02  0.47000000000E+01 0.  1.
         -5    1    4    4    0  503 -0.15893221179E+02 -0.62197809571E+02  0.56369660125E+02  0.85561618600E+02  0.47000000000E+01 0.  1.
<mgrwt>
<rscale>  0 0.16280803E+03</rscale>
<asrwt>0</asrwt>
<pdfrwt beam="2">  1        5 0.13222103E-01 0.16280908E+03</pdfrwt>
<pdfrwt beam="1">  1       -5 0.49662168E-01 0.16280908E+03</pdfrwt>
<totfact> 0.14475719E+02</totfact>
</mgrwt>
</event>
<event>
 8    1  0.1865596E-007  0.1259762E+03  0.7546771E-02  0.1233552E+00
          5   -1    0    0  501    0  0.00000000000E+00  0.00000000000E+00  0.56842613372E+02  0.57036590843E+02  0.47000000000E+01 0. -1.
         -5   -1    0    0    0  501 -0.00000000000E+00 -0.00000000000E+00 -0.29463413718E+03  0.29467162197E+03  0.47000000000E+01 0. -1.
         25    2    1    2    0    0  0.48886005023E+01 -0.14874364643E+02 -0.16002845474E+03  0.20366422916E+03  0.12499946709E+03 0.  0.
         25    2    1    2    0    0 -0.48886005023E+01  0.14874364643E+02 -0.77763069066E+02  0.14804398365E+03  0.12499912418E+03 0.  0.
          5    1    4    4  502    0 -0.32656305708E+02 -0.37101301607E+02  0.88426284319E+00  0.49656951217E+02  0.47000000000E+01 0.  1.
         -5    1    4    4    0  502  0.27767705206E+02  0.51975666250E+02 -0.78647331909E+02  0.98387032433E+02  0.47000000000E+01 0.  1.
          5    1    3    3  503    0  0.38218313812E+02  0.27697631889E+02 -0.16504807882E+02  0.50222475109E+02  0.47000000000E+01 0.  1.
         -5    1    3    3    0  503 -0.33329713309E+02 -0.42571996532E+02 -0.14352364686E+03  0.15344175405E+03  0.47000000000E+01 0.  1.
<mgrwt>
<rscale>  0 0.12597615E+03</rscale>
<asrwt>0</asrwt>
<pdfrwt beam="1">  1        5 0.87628224E-02 0.12597624E+03</pdfrwt>
<pdfrwt beam="2">  1       -5 0.45346133E-01 0.12597624E+03</pdfrwt>
<totfact> 0.33132587E+02</totfact>
</mgrwt>
</event>
<event>
 8    1  0.1865596E-007  0.1282224E+03  0.7546771E-02  0.1230120E+00
          5   -1    0    0  501    0  0.00000000000E+00  0.00000000000E+00  0.73009799237E+02  0.73160923891E+02  0.47000000000E+01 0.  1.
         -5   -1    0    0    0  501 -0.00000000000E+00 -0.00000000000E+00 -0.22815825434E+03  0.22820665859E+03  0.47000000000E+01 0.  1.
         25    2    1    2    0    0 -0.17425145696E+02 -0.22611136173E+02 -0.95929339842E+02  0.16013062365E+03  0.12499791680E+03 0.  0.
         25    2    1    2    0    0  0.17425145696E+02  0.22611136173E+02 -0.59219115260E+02  0.14123695883E+03  0.12500430291E+03 0.  0.
          5    1    4    4  502    0  0.43910536205E+02 -0.39865791584E+02 -0.20261633015E+02  0.62849346066E+02  0.47000000000E+01 0.  1.
         -5    1    4    4    0  502 -0.26485390510E+02  0.62476927757E+02 -0.38957482245E+02  0.78387612766E+02  0.47000000000E+01 0.  1.
          5    1    3    3  503    0 -0.99301213792E+01  0.18988631002E+02 -0.11240132810E+03  0.11452215496E+03  0.47000000000E+01 0.  1.
         -5    1    3    3    0  503 -0.74950243167E+01 -0.41599767175E+02  0.16471988260E+02  0.45608468684E+02  0.47000000000E+01 0.  1.
<mgrwt>
<rscale>  0 0.12822081E+03</rscale>
<asrwt>0</asrwt>
<pdfrwt beam="1">  1        5 0.11247625E-01 0.12822237E+03</pdfrwt>
<pdfrwt beam="2">  1       -5 0.35116618E-01 0.12822237E+03</pdfrwt>
<totfact> 0.36385163E+02</totfact>
</mgrwt>
</event>
<event>
 8    1  0.1865596E-007  0.1259337E+03  0.7546771E-02  0.1233618E+00
          5   -1    0    0  501    0  0.00000000000E+00  0.00000000000E+00  0.87772348619E+02  0.87898095441E+02  0.47000000000E+01 0.  1.
         -5   -1    0    0    0  501 -0.00000000000E+00 -0.00000000000E+00 -0.18164626814E+03  0.18170706296E+03  0.47000000000E+01 0.  1.
         25    2    1    2    0    0 -0.12366900012E+02  0.90287306276E+01 -0.58100251008E+02  0.13869008111E+03  0.12499936495E+03 0.  0.
         25    2    1    2    0    0  0.12366900012E+02 -0.90287306276E+01 -0.35773668512E+02  0.13091507729E+03  0.12499817563E+03 0.  0.
          5    1    4    4  502    0  0.41818185869E+01  0.36270343567E+01  0.46538937223E+02  0.47102077054E+02  0.47000000000E+01 0. -1.
         -5    1    4    4    0  502  0.81850814251E+01 -0.12655764984E+02 -0.82312605735E+02  0.83813000234E+02  0.47000000000E+01 0. -1.
          5    1    3    3  503    0  0.18154709527E+02  0.49994067410E+02 -0.67983370987E+02  0.86445526113E+02  0.47000000000E+01 0.  1.
         -5    1    3    3    0  503 -0.30521609539E+02 -0.40965336782E+02  0.98831199789E+01  0.52244554999E+02  0.47000000000E+01 0.  1.
<mgrwt>
<rscale>  0 0.12593342E+03</rscale>
<asrwt>0</asrwt>
<pdfrwt beam="1">  1        5 0.13517788E-01 0.12593371E+03</pdfrwt>
<pdfrwt beam="2">  1       -5 0.27959929E-01 0.12593371E+03</pdfrwt>
<totfact> 0.40875869E+02</totfact>
</mgrwt>
</event>
<event>
 8    1  0.1865596E-007  0.1313974E+03  0.7546771E-02  0.1225397E+00
         -5   -1    0    0    0  501 -0.00000000000E+00  0.00000000000E+00  0.91511157610E+01  0.10287512803E+02  0.47000000000E+01 0. -1.
          5   -1    0    0  501    0  0.00000000000E+00 -0.00000000000E+00 -0.18807769045E+04  0.18807827771E+04  0.47000000000E+01 0. -1.
         25    2    1    2    0    0 -0.26023014872E+02  0.31010529920E+02 -0.71189845784E+03  0.72392301971E+03  0.12500509561E+03 0.  0.
         25    2    1    2    0    0  0.26023014872E+02 -0.31010529920E+02 -0.11597273309E+04  0.11671472702E+04  0.12500567157E+03 0.  0.
          5    1    3    3  502    0  0.31471874847E+02  0.21113353022E+02 -0.55744714942E+03  0.55875367290E+03  0.47000000000E+01 0. -1.
         -5    1    3    3    0  502 -0.57494889719E+02  0.98971768979E+01 -0.15445130842E+03  0.16516934681E+03  0.47000000000E+01 0. -1.
          5    1    4    4  503    0  0.10649625745E+02 -0.72760680092E+02 -0.94162774070E+03  0.94450644421E+03  0.47000000000E+01 0. -1.
         -5    1    4    4    0  503  0.15373389127E+02  0.41750150173E+02 -0.21809959023E+03  0.22264082598E+03  0.47000000000E+01 0. -1.
<mgrwt>
<rscale>  0 0.13139723E+03</rscale>
<asrwt>0</asrwt>
<pdfrwt beam="2">  1        5 0.28943787E+00 0.13139737E+03</pdfrwt>
<pdfrwt beam="1">  1       -5 0.14957324E-02 0.13139737E+03</pdfrwt>
<totfact> 0.42346046E+01</totfact>
</mgrwt>
</event>
<event>
 8    1  0.1865596E-007  0.1250321E+03  0.7546771E-02  0.1235027E+00
          5   -1    0    0  501    0  0.00000000000E+00  0.00000000000E+00  0.27681687226E+03  0.27685676941E+03  0.47000000000E+01 0.  1.
         -5   -1    0    0    0  501 -0.00000000000E+00 -0.00000000000E+00 -0.58593000217E+02  0.58781201710E+02  0.47000000000E+01 0.  1.
         25    2    1    2    0    0  0.39817700685E+00  0.17235802048E+01  0.76155181964E+02  0.14639891051E+03  0.12501959841E+03 0.  0.
         25    2    1    2    0    0 -0.39817700685E+00 -0.17235802048E+01  0.14206869008E+03  0.18923906061E+03  0.12499912034E+03 0.  0.
          5    1    4    4  502    0 -0.14547018817E+02  0.54679576209E+02  0.10710726589E+03  0.12122511381E+03  0.47000000000E+01 0.  1.
         -5    1    4    4    0  502  0.14148841810E+02 -0.56403156414E+02  0.34961424188E+02  0.68013946800E+02  0.47000000000E+01 0.  1.
          5    1    3    3  503    0  0.36430011390E+02 -0.52636818933E+01  0.97051496155E+02  0.10390348879E+03  0.47000000000E+01 0.  1.
         -5    1    3    3    0  503 -0.36031834383E+02  0.69872620981E+01 -0.20896314191E+02  0.42495421723E+02  0.47000000000E+01 0.  1.
<mgrwt>
<rscale>  0 0.12502699E+03</rscale>
<asrwt>0</asrwt>
<pdfrwt beam="1">  1        5 0.42604757E-01 0.12503211E+03</pdfrwt>
<pdfrwt beam="2">  1       -5 0.90318539E-02 0.12503211E+03</pdfrwt>
<totfact> 0.35685862E+02</totfact>
</mgrwt>
</event>
<event>
 8    1  0.1865596E-007  0.1691552E+03  0.7546771E-02  0.1178737E+00
         -5   -1    0    0    0  501 -0.00000000000E+00  0.00000000000E+00  0.42815256262E+03  0.42817835872E+03  0.47000000000E+01 0. -1.
          5   -1    0    0  501    0  0.00000000000E+00 -0.00000000000E+00 -0.66810081878E+02  0.66975197204E+02  0.47000000000E+01 0. -1.
         25    2    1    2    0    0  0.34952693017E+02 -0.10845833226E+03  0.19015360538E+03  0.25448964710E+03  0.12498674432E+03 0.  0.
         25    2    1    2    0    0 -0.34952693017E+02  0.10845833226E+03  0.17118887536E+03  0.24066390883E+03  0.12501434070E+03 0.  0.
          5    1    4    4  502    0 -0.14804687550E+01 -0.14666980333E+02 -0.10426891631E+02  0.18658032289E+02  0.47000000000E+01 0. -1.
         -5    1    4    4    0  502 -0.33472224262E+02  0.12312531259E+03  0.18161576699E+03  0.22200587654E+03  0.47000000000E+01 0. -1.
          5    1    3    3  503    0  0.71276387378E+02 -0.42097442766E+02  0.54888803634E+02  0.99435350100E+02  0.47000000000E+01 0. -1.
         -5    1    3    3    0  503 -0.36323694361E+02 -0.66360889491E+02  0.13526480174E+03  0.15505429700E+03  0.47000000000E+01 0. -1.
<mgrwt>
<rscale>  0 0.16915011E+03</rscale>
<asrwt>0</asrwt>
<pdfrwt beam="2">  1        5 0.10293160E-01 0.16915521E+03</pdfrwt>
<pdfrwt beam="1">  1       -5 0.65884311E-01 0.16915521E+03</pdfrwt>
<totfact> 0.12335370E+02</totfact>
</mgrwt>
</event>
<event>
 8    1  0.1865596E-007  0.1394720E+03  0.7546771E-02  0.1214044E+00
         -5   -1    0    0    0  501 -0.00000000000E+00  0.00000000000E+00  0.65213925066E+03  0.65215618701E+03  0.47000000000E+01 0.  1.
          5   -1    0    0  501    0  0.00000000000E+00 -0.00000000000E+00 -0.32042600394E+02  0.32385463406E+02  0.47000000000E+01 0.  1.
         25    2    1    2    0    0  0.21230388511E+02 -0.58100160434E+02  0.40352913888E+03  0.42694907685E+03  0.12499356088E+03 0.  0.
         25    2    1    2    0    0 -0.21230388511E+02  0.58100160434E+02  0.21656751138E+03  0.25759257356E+03  0.12500435563E+03 0.  0.
          5    1    3    3  502    0 -0.35907422948E+01 -0.72635790355E+02  0.38625333172E+03  0.39306815914E+03  0.47000000000E+01 0.  1.
         -5    1    3    3    0  502  0.24821130806E+02  0.14535629921E+02  0.17275807167E+02  0.33880917711E+02  0.47000000000E+01 0.  1.
          5    1    4    4  503    0  0.29994146423E+02  0.77692284167E+02  0.11497088939E+03  0.14204272331E+03  0.47000000000E+01 0. -1.
         -5    1    4    4    0  503 -0.51224534934E+02 -0.19592123733E+02  0.10159662199E+03  0.11554985025E+03  0.47000000000E+01 0. -1.
<mgrwt>
<rscale>  0 0.13946961E+03</rscale>
<asrwt>0</asrwt>
<pdfrwt beam="2">  1        5 0.49573077E-02 0.13947203E+03</pdfrwt>
<pdfrwt beam="1">  1       -5 0.10035679E+00 0.13947203E+03</pdfrwt>
<totfact> 0.15145472E+02</totfact>
</mgrwt>
</event>
<event>
 8    1  0.1865596E-007  0.1258208E+03  0.7546771E-02  0.1233792E+00
          5   -1    0    0  501    0  0.00000000000E+00  0.00000000000E+00  0.49525698287E+02  0.49748213946E+02  0.47000000000E+01 0. -1.
         -5   -1    0    0    0  501 -0.00000000000E+00 -0.00000000000E+00 -0.36883582947E+03  0.36886577382E+03  0.47000000000E+01 0. -1.
         25    2    1    2    0    0 -0.61950834072E+01  0.12950019375E+02 -0.23680382717E+03  0.26815412509E+03  0.12499800071E+03 0.  0.
         25    2    1    2    0    0  0.61950834072E+01 -0.12950019375E+02 -0.82506304012E+02  0.15045986268E+03  0.12499919206E+03 0.  0.
          5    1    3    3  502    0 -0.52953503872E+02 -0.21890144916E+02 -0.16947286207E+03  0.17895919366E+03  0.47000000000E+01 0.  1.
         -5    1    3    3    0  502  0.46758420465E+02  0.34840164291E+02 -0.67330965099E+02  0.89194931433E+02  0.47000000000E+01 0.  1.
          5    1    4    4  503    0 -0.33985321926E+02 -0.35104804642E+02 -0.91156263245E+02  0.10353213870E+03  0.47000000000E+01 0.  1.
         -5    1    4    4    0  503  0.40180405333E+02  0.22154785266E+02  0.86499592335E+01  0.46927723977E+02  0.47000000000E+01 0.  1.
<mgrwt>
<rscale>  0 0.12582053E+03</rscale>
<asrwt>0</asrwt>
<pdfrwt beam="1">  1        5 0.76387584E-02 0.12582083E+03</pdfrwt>
<pdfrwt beam="2">  1       -5 0.56763392E-01 0.12582083E+03</pdfrwt>
<totfact> 0.26025306E+02</totfact>
</mgrwt>
</event>
<event>
 8    1  0.1865596E-007  0.1270274E+03  0.7546771E-02  0.1231936E+00
          5   -1    0    0  501    0  0.00000000000E+00  0.00000000000E+00  0.14223146091E+03  0.14230909483E+03  0.47000000000E+01 0.  1.
         -5   -1    0    0    0  501 -0.00000000000E+00 -0.00000000000E+00 -0.11754645847E+03  0.11764038379E+03  0.47000000000E+01 0.  1.
         25    2    1    2    0    0 -0.43343721467E+01 -0.22149987780E+02 -0.12382792781E+02  0.12762956272E+03  0.12500625178E+03 0.  0.
         25    2    1    2    0    0  0.43343721467E+01  0.22149987780E+02  0.37067795217E+02  0.13231991590E+03  0.12500051984E+03 0.  0.
          5    1    4    4  502    0  0.58417461230E+02  0.37585388726E+02  0.12367334066E+02  0.70712814780E+02  0.47000000000E+01 0. -1.
         -5    1    4    4    0  502 -0.54083089083E+02 -0.15435400946E+02  0.24700461151E+02  0.61607101118E+02  0.47000000000E+01 0. -1.
          5    1    3    3  503    0 -0.39083765301E+02 -0.61983500029E+02 -0.14259002886E+01  0.73441256645E+02  0.47000000000E+01 0.  1.
         -5    1    3    3    0  503  0.34749393155E+02  0.39833512249E+02 -0.10956892492E+02  0.54188306080E+02  0.47000000000E+01 0.  1.
<mgrwt>
<rscale>  0 0.12702603E+03</rscale>
<asrwt>0</asrwt>
<pdfrwt beam="1">  1        5 0.21894960E-01 0.12702744E+03</pdfrwt>
<pdfrwt beam="2">  1       -5 0.18097267E-01 0.12702744E+03</pdfrwt>
<totfact> 0.38527911E+02</totfact>
</mgrwt>
</event>
<event>
 8    1  0.1865596E-007  0.1533302E+03  0.7546771E-02  0.1196452E+00
         -5   -1    0    0    0  501 -0.00000000000E+00  0.00000000000E+00  0.35016592398E+03  0.35019746475E+03  0.47000000000E+01 0.  1.
          5   -1    0    0  501    0  0.00000000000E+00 -0.00000000000E+00 -0.84394736401E+02  0.84525508175E+02  0.47000000000E+01 0.  1.
         25    2    1    2    0    0 -0.61817937770E+02 -0.63734977754E+02  0.23146387956E+03  0.27764305940E+03  0.12500614414E+03 0.  0.
         25    2    1    2    0    0  0.61817937770E+02  0.63734977754E+02  0.34307308026E+02  0.15707991353E+03  0.12495400366E+03 0.  0.
          5    1    4    4  502    0 -0.37050306122E+02  0.14055625751E+02  0.22221679613E+02  0.45674706828E+02  0.47000000000E+01 0.  1.
         -5    1    4    4    0  502  0.98868243892E+02  0.49679352003E+02  0.12085628414E+02  0.11140520670E+03  0.47000000000E+01 0.  1.
          5    1    3    3  503    0 -0.33612316458E+02 -0.97585666782E+02  0.12400514021E+03  0.16140667575E+03  0.47000000000E+01 0. -1.
         -5    1    3    3    0  503 -0.28205621312E+02  0.33850689029E+02  0.10745873935E+03  0.11623638365E+03  0.47000000000E+01 0. -1.
<mgrwt>
<rscale>  0 0.15331954E+03</rscale>
<asrwt>0</asrwt>
<pdfrwt beam="2">  1        5 0.12996291E-01 0.15333017E+03</pdfrwt>
<pdfrwt beam="1">  1       -5 0.53884165E-01 0.15333017E+03</pdfrwt>
<totfact> 0.12306405E+02</totfact>
</mgrwt>
</event>
<event>
 8    1  0.1865596E-007  0.1301487E+03  0.7546771E-02  0.1227251E+00
         -5   -1    0    0    0  501 -0.00000000000E+00  0.00000000000E+00  0.33294720650E+02  0.33624818559E+02  0.47000000000E+01 0. -1.
          5   -1    0    0  501    0  0.00000000000E+00 -0.00000000000E+00 -0.70011904595E+03  0.70013482166E+03  0.47000000000E+01 0. -1.
         25    2    1    2    0    0 -0.34636489766E+02 -0.10167205444E+02 -0.14010685110E+03  0.19120090799E+03  0.12499919601E+03 0.  0.
         25    2    1    2    0    0  0.34636489766E+02  0.10167205444E+02 -0.52671747420E+03  0.54255873223E+03  0.12504247996E+03 0.  0.
          5    1    3    3  502    0 -0.23677986014E+02 -0.42415408520E+02 -0.14807274561E+03  0.15590812004E+03  0.47000000000E+01 0. -1.
         -5    1    3    3    0  502 -0.10958503752E+02  0.32248203076E+02  0.79658945148E+01  0.35292787953E+02  0.47000000000E+01 0. -1.
          5    1    4    4  503    0 -0.28421483501E+02 -0.39177962836E+02 -0.23736884856E+03  0.24229889344E+03  0.47000000000E+01 0.  1.
         -5    1    4    4    0  503  0.63057973267E+02  0.49345168280E+02 -0.28934862565E+03  0.30025983879E+03  0.47000000000E+01 0.  1.
<mgrwt>
<rscale>  0 0.13013829E+03</rscale>
<asrwt>0</asrwt>
<pdfrwt beam="2">  1        5 0.10773722E+00 0.13014869E+03</pdfrwt>
<pdfrwt beam="1">  1       -5 0.51488709E-02 0.13014869E+03</pdfrwt>
<totfact> 0.11675530E+02</totfact>
</mgrwt>
</event>
<event>
 8    1  0.1865596E-007  0.1491981E+03  0.7546771E-02  0.1201464E+00
         -5   -1    0    0    0  501 -0.00000000000E+00  0.00000000000E+00  0.72590388410E+02  0.72742384409E+02  0.47000000000E+01 0.  1.
          5   -1    0    0  501    0  0.00000000000E+00 -0.00000000000E+00 -0.38108772433E+03  0.38111670605E+03  0.47000000000E+01 0.  1.
         25    2    1    2    0    0  0.81475215006E+02 -0.20013273187E+01 -0.53637710721E+02  0.15853976300E+03  0.12496254027E+03 0.  0.
         25    2    1    2    0    0 -0.81475215006E+02  0.20013273187E+01 -0.25485962520E+03  0.29531932746E+03  0.12497143931E+03 0.  0.
          5    1    3    3  502    0 -0.27820503735E+02  0.23653813085E+02 -0.12538970765E+02  0.38894718014E+02  0.47000000000E+01 0.  1.
         -5    1    3    3    0  502  0.10929571874E+03 -0.25655140404E+02 -0.41098739956E+02  0.11964504499E+03  0.47000000000E+01 0.  1.
          5    1    4    4  503    0 -0.98775192119E+02  0.31211143586E+02 -0.13251290091E+03  0.16826298752E+03  0.47000000000E+01 0.  1.
         -5    1    4    4    0  503  0.17299977113E+02 -0.29209816267E+02 -0.12234672429E+03  0.12705633994E+03  0.47000000000E+01 0.  1.
<mgrwt>
<rscale>  0 0.14919625E+03</rscale>
<asrwt>0</asrwt>
<pdfrwt beam="2">  1        5 0.58642801E-01 0.14919811E+03</pdfrwt>
<pdfrwt beam="1">  1       -5 0.11181674E-01 0.14919811E+03</pdfrwt>
<totfact> 0.13264954E+02</totfact>
</mgrwt>
</event>
<event>
 8    1  0.1865596E-007  0.1308476E+03  0.7546771E-02  0.1226203E+00
         -5   -1    0    0    0  501 -0.00000000000E+00  0.00000000000E+00  0.15427522262E+03  0.15434679884E+03  0.47000000000E+01 0.  1.
          5   -1    0    0  501    0  0.00000000000E+00 -0.00000000000E+00 -0.11164108653E+03  0.11173997585E+03  0.47000000000E+01 0.  1.
         25    2    1    2    0    0  0.97746072404E+01 -0.37429819969E+02  0.32645598086E+02  0.13485847573E+03  0.12499815611E+03 0.  0.
         25    2    1    2    0    0 -0.97746072404E+01  0.37429819969E+02  0.99885379964E+01  0.13122829896E+03  0.12499824474E+03 0.  0.
          5    1    4    4  502    0 -0.20891115661E+02  0.44663064766E+02 -0.49543358573E+02  0.70056137822E+02  0.47000000000E+01 0.  1.
         -5    1    4    4    0  502  0.11116508421E+02 -0.72332447965E+01  0.59531896569E+02  0.61172161143E+02  0.47000000000E+01 0.  1.
          5    1    3    3  503    0  0.51094189239E+02  0.17871683622E+02  0.36667964566E+02  0.65548782406E+02  0.47000000000E+01 0.  1.
         -5    1    3    3    0  503 -0.41319581998E+02 -0.55301503591E+02 -0.40223664802E+01  0.69309693320E+02  0.47000000000E+01 0.  1.
<mgrwt>
<rscale>  0 0.13084758E+03</rscale>
<asrwt>0</asrwt>
<pdfrwt beam="2">  1        5 0.17188665E-01 0.13084760E+03</pdfrwt>
<pdfrwt beam="1">  1       -5 0.23747762E-01 0.13084760E+03</pdfrwt>
<totfact> 0.36718006E+02</totfact>
</mgrwt>
</event>
<event>
 8    1  0.1865596E-007  0.1301032E+03  0.7546771E-02  0.1227303E+00
          5   -1    0    0  501    0  0.00000000000E+00  0.00000000000E+00  0.56953795759E+02  0.57147395840E+02  0.47000000000E+01 0.  1.
         -5   -1    0    0    0  501 -0.00000000000E+00 -0.00000000000E+00 -0.57107687678E+03  0.57109621711E+03  0.47000000000E+01 0.  1.
         25    2    1    2    0    0  0.33897701889E+02 -0.12357563579E+02 -0.47483737103E+03  0.49233844580E+03  0.12499941088E+03 0.  0.
         25    2    1    2    0    0 -0.33897701889E+02  0.12357563579E+02 -0.39285709998E+02  0.13590516715E+03  0.12500033550E+03 0.  0.
          5    1    4    4  502    0 -0.42341614026E+02  0.64290763937E+02 -0.20060880913E+02  0.79690925135E+02  0.47000000000E+01 0. -1.
         -5    1    4    4    0  502  0.84439121374E+01 -0.51933200358E+02 -0.19224829085E+02  0.56214242012E+02  0.47000000000E+01 0. -1.
          5    1    3    3  503    0  0.33067689241E+02 -0.25839917376E+02 -0.43013858330E+02  0.60278150354E+02  0.47000000000E+01 0. -1.
         -5    1    3    3    0  503  0.83001264747E+00  0.13482353797E+02 -0.43182351270E+03  0.43206029545E+03  0.47000000000E+01 0. -1.
<mgrwt>
<rscale>  0 0.13010300E+03</rscale>
<asrwt>0</asrwt>
<pdfrwt beam="1">  1        5 0.87785028E-02 0.13010322E+03</pdfrwt>
<pdfrwt beam="2">  1       -5 0.87874357E-01 0.13010322E+03</pdfrwt>
<totfact> 0.77416653E+01</totfact>
</mgrwt>
</event>
<event>
 8    1  0.1865596E-007  0.1573137E+03  0.7546771E-02  0.1191765E+00
          5   -1    0    0  501    0  0.00000000000E+00  0.00000000000E+00  0.29353352161E+03  0.29357114693E+03  0.47000000000E+01 0.  1.
         -5   -1    0    0    0  501 -0.00000000000E+00 -0.00000000000E+00 -0.84526499787E+02  0.84657068023E+02  0.47000000000E+01 0.  1.
         25    2    1    2    0    0 -0.60281242231E+02  0.74085639734E+02  0.92720031585E+02  0.18260037640E+03  0.12499353193E+03 0.  0.
         25    2    1    2    0    0  0.60281242231E+02 -0.74085639734E+02  0.11628699024E+03  0.19562783855E+03  0.12500030775E+03 0.  0.
          5    1    4    4  502    0  0.43372458335E+02 -0.12004617618E+02 -0.16367830998E+02  0.48117324091E+02  0.47000000000E+01 0. -1.
         -5    1    4    4    0  502  0.16908783896E+02 -0.62081022116E+02  0.13265482124E+03  0.14751051446E+03  0.47000000000E+01 0. -1.
          5    1    3    3  503    0 -0.58710492285E+02 -0.15969331197E+02  0.62823485959E+02  0.87583228025E+02  0.47000000000E+01 0. -1.
         -5    1    3    3    0  503 -0.15707499460E+01  0.90054970931E+02  0.29896545627E+02  0.95017148374E+02  0.47000000000E+01 0. -1.
<mgrwt>
<rscale>  0 0.15731231E+03</rscale>
<asrwt>0</asrwt>
<pdfrwt beam="1">  1        5 0.45171941E-01 0.15731366E+03</pdfrwt>
<pdfrwt beam="2">  1       -5 0.13017015E-01 0.15731366E+03</pdfrwt>
<totfact> 0.17982386E+02</totfact>
</mgrwt>
</event>
<event>
 8    1  0.1865596E-007  0.1298090E+03  0.7546771E-02  0.1227740E+00
         -5   -1    0    0    0  501 -0.00000000000E+00  0.00000000000E+00  0.32321848777E+02  0.32661780545E+02  0.47000000000E+01 0.  1.
          5   -1    0    0  501    0  0.00000000000E+00 -0.00000000000E+00 -0.55461773158E+03  0.55463764584E+03  0.47000000000E+01 0.  1.
         25    2    1    2    0    0 -0.27645693447E+01 -0.34895140710E+02 -0.18597527892E+03  0.22679765152E+03  0.12500022671E+03 0.  0.
         25    2    1    2    0    0  0.27645693447E+01  0.34895140710E+02 -0.33632060388E+03  0.36050177486E+03  0.12499866957E+03 0.  0.
          5    1    3    3  502    0  0.33740225945E+02 -0.33297913443E+02 -0.12219022012E+02  0.49178739161E+02  0.47000000000E+01 0. -1.
         -5    1    3    3    0  502 -0.36504795289E+02 -0.15972272670E+01 -0.17375625690E+03  0.17761891236E+03  0.47000000000E+01 0. -1.
          5    1    4    4  503    0  0.29832768318E+02 -0.39444828307E+02 -0.10976482864E+03  0.12048359287E+03  0.47000000000E+01 0.  1.
         -5    1    4    4    0  503 -0.27068198973E+02  0.74339969017E+02 -0.22655577524E+03  0.24001818199E+03  0.47000000000E+01 0.  1.
<mgrwt>
<rscale>  0 0.12980860E+03</rscale>
<asrwt>0</asrwt>
<pdfrwt beam="2">  1        5 0.85353478E-01 0.12980898E+03</pdfrwt>
<pdfrwt beam="1">  1       -5 0.50002730E-02 0.12980898E+03</pdfrwt>
<totfact> 0.21450301E+02</totfact>
</mgrwt>
</event>
<event>
 8    1  0.1865596E-007  0.1368063E+03  0.7546771E-02  0.1217694E+00
         -5   -1    0    0    0  501 -0.00000000000E+00  0.00000000000E+00  0.26749206394E+02  0.27158977203E+02  0.47000000000E+01 0. -1.
          5   -1    0    0  501    0  0.00000000000E+00 -0.00000000000E+00 -0.92255164798E+03  0.92256362013E+03  0.47000000000E+01 0. -1.
         25    2    1    2    0    0 -0.55139268379E+02  0.70631914573E+01 -0.21155263314E+03  0.25193053097E+03  0.12499699300E+03 0.  0.
         25    2    1    2    0    0  0.55139268379E+02 -0.70631914573E+01 -0.68424980844E+03  0.69779206636E+03  0.12500295965E+03 0.  0.
          5    1    4    4  502    0 -0.33786193946E+02 -0.91963531175E+01 -0.86419352894E+02  0.93362060638E+02  0.47000000000E+01 0. -1.
         -5    1    4    4    0  502  0.88925462325E+02  0.21331616601E+01 -0.59783045555E+03  0.60443000572E+03  0.47000000000E+01 0. -1.
          5    1    3    3  503    0 -0.59904510761E+01 -0.44694589973E+02 -0.24211838104E+02  0.51398394735E+02  0.47000000000E+01 0.  1.
         -5    1    3    3    0  503 -0.49148817303E+02  0.51757781430E+02 -0.18734079503E+03  0.20053213624E+03  0.47000000000E+01 0.  1.
<mgrwt>
<rscale>  0 0.13680495E+03</rscale>
<asrwt>0</asrwt>
<pdfrwt beam="2">  1        5 0.14196344E+00 0.13680631E+03</pdfrwt>
<pdfrwt beam="1">  1       -5 0.41477050E-02 0.13680631E+03</pdfrwt>
<totfact> 0.83531631E+01</totfact>
</mgrwt>
</event>
<event>
 8    1  0.1865596E-007  0.1334256E+03  0.7546771E-02  0.1222460E+00
          5   -1    0    0  501    0  0.00000000000E+00  0.00000000000E+00  0.21124739745E+03  0.21129967565E+03  0.47000000000E+01 0. -1.
         -5   -1    0    0    0  501 -0.00000000000E+00 -0.00000000000E+00 -0.92603676440E+02  0.92722871452E+02  0.47000000000E+01 0. -1.
         25    2    1    2    0    0  0.43470243046E+02  0.16912893650E+02  0.13420110162E+02  0.13409879900E+03  0.12500672196E+03 0.  0.
         25    2    1    2    0    0 -0.43470243046E+02 -0.16912893650E+02  0.10522361085E+03  0.16992374810E+03  0.12500545543E+03 0.  0.
          5    1    4    4  502    0  0.43914783206E+02 -0.81552457382E+01  0.28328481005E+02  0.53099991084E+02  0.47000000000E+01 0. -1.
         -5    1    4    4    0  502 -0.87385026252E+02 -0.87576479121E+01  0.76895129842E+02  0.11682375702E+03  0.47000000000E+01 0. -1.
          5    1    3    3  503    0  0.77476869688E+02  0.29989240359E+01  0.41077963268E+02  0.87870062867E+02  0.47000000000E+01 0.  1.
         -5    1    3    3    0  503 -0.34006626642E+02  0.13913969614E+02 -0.27657853106E+02  0.46228736133E+02  0.47000000000E+01 0.  1.
<mgrwt>
<rscale>  0 0.13342530E+03</rscale>
<asrwt>0</asrwt>
<pdfrwt beam="1">  1        5 0.32512789E-01 0.13342559E+03</pdfrwt>
<pdfrwt beam="2">  1       -5 0.14259910E-01 0.13342559E+03</pdfrwt>
<totfact> 0.28212248E+02</totfact>
</mgrwt>
</event>
<event>
 8    1  0.1865596E-007  0.1422694E+03  0.7546771E-02  0.1210308E+00
         -5   -1    0    0    0  501 -0.00000000000E+00  0.00000000000E+00  0.11020409535E+03  0.11030427295E+03  0.47000000000E+01 0.  1.
          5   -1    0    0  501    0  0.00000000000E+00 -0.00000000000E+00 -0.18792091706E+03  0.18797968260E+03  0.47000000000E+01 0.  1.
         25    2    1    2    0    0  0.22948693063E+01 -0.67902046938E+02 -0.15858730909E+02  0.14314846978E+03  0.12499612255E+03 0.  0.
         25    2    1    2    0    0 -0.22948693063E+01  0.67902046938E+02 -0.61858090803E+02  0.15513548577E+03  0.12499856457E+03 0.  0.
          5    1    4    4  502    0 -0.18673474686E+02 -0.33408926517E+02 -0.89843038457E+01  0.39593721011E+02  0.47000000000E+01 0.  1.
         -5    1    4    4    0  502  0.16378605380E+02  0.10131097345E+03 -0.52873786957E+02  0.11554176476E+03  0.47000000000E+01 0.  1.
          5    1    3    3  503    0 -0.18006756301E+02  0.58678350274E+01  0.42526337098E+02  0.46789465773E+02  0.47000000000E+01 0.  1.
         -5    1    3    3    0  503  0.20301625607E+02 -0.73769881965E+02 -0.58385068007E+02  0.96359004009E+02  0.47000000000E+01 0.  1.
<mgrwt>
<rscale>  0 0.14226891E+03</rscale>
<asrwt>0</asrwt>
<pdfrwt beam="2">  1        5 0.28923137E-01 0.14226945E+03</pdfrwt>
<pdfrwt beam="1">  1       -5 0.16966703E-01 0.14226945E+03</pdfrwt>
<totfact> 0.26472433E+02</totfact>
</mgrwt>
</event>
<event>
 8    1  0.1865596E-007  0.1274675E+03  0.7546771E-02  0.1231277E+00
          5   -1    0    0  501    0  0.00000000000E+00  0.00000000000E+00  0.74731389292E+03  0.74732867237E+03  0.47000000000E+01 0.  1.
         -5   -1    0    0    0  501 -0.00000000000E+00 -0.00000000000E+00 -0.42412581165E+02  0.42672204549E+02  0.47000000000E+01 0.  1.
         25    2    1    2    0    0 -0.83580042656E+01 -0.23512142927E+02  0.76183107017E+02  0.14849856872E+03  0.12500112807E+03 0.  0.
         25    2    1    2    0    0  0.83580042656E+01  0.23512142927E+02  0.62871820473E+03  0.64150230820E+03  0.12496380819E+03 0.  0.
          5    1    4    4  502    0  0.55315018984E+02 -0.72239062010E+01  0.46522078518E+03  0.46857700019E+03  0.47000000000E+01 0.  1.
         -5    1    4    4    0  502 -0.46957014718E+02  0.30736049128E+02  0.16349741955E+03  0.17292530800E+03  0.47000000000E+01 0.  1.
          5    1    3    3  503    0 -0.88408195571E+01 -0.43896884972E+02  0.10421079531E+03  0.11352125994E+03  0.47000000000E+01 0.  1.
         -5    1    3    3    0  503  0.48281529147E+00  0.20384742044E+02 -0.28027688288E+02  0.34977308781E+02  0.47000000000E+01 0.  1.
<mgrwt>
<rscale>  0 0.12745833E+03</rscale>
<asrwt>0</asrwt>
<pdfrwt beam="1">  1        5 0.11499246E+00 0.12746748E+03</pdfrwt>
<pdfrwt beam="2">  1       -5 0.65461211E-02 0.12746748E+03</pdfrwt>
<totfact> 0.65944287E+01</totfact>
</mgrwt>
</event>
<event>
 8    1  0.1865596E-007  0.1290261E+03  0.7546771E-02  0.1228908E+00
          5   -1    0    0  501    0  0.00000000000E+00  0.00000000000E+00  0.24151618469E+03  0.24156191228E+03  0.47000000000E+01 0.  1.
         -5   -1    0    0    0  501 -0.00000000000E+00 -0.00000000000E+00 -0.77015438016E+02  0.77158717542E+02  0.47000000000E+01 0.  1.
         25    2    1    2    0    0  0.25076478843E+02  0.19834847279E+02  0.30260850116E+02  0.13252693978E+03  0.12500167903E+03 0.  0.
         25    2    1    2    0    0 -0.25076478843E+02 -0.19834847279E+02  0.13423989655E+03  0.18619369004E+03  0.12500195770E+03 0.  0.
          5    1    4    4  502    0 -0.72253603039E+02 -0.25060036538E+02  0.10590160350E+03  0.13071276987E+03  0.47000000000E+01 0. -1.
         -5    1    4    4    0  502  0.47177124196E+02  0.52251892584E+01  0.28338293053E+02  0.55480920174E+02  0.47000000000E+01 0. -1.
          5    1    3    3  503    0  0.75242745380E+02  0.13032994098E+02  0.28531484302E+02  0.81654548336E+02  0.47000000000E+01 0. -1.
         -5    1    3    3    0  503 -0.50166266537E+02  0.68018531814E+01  0.17293658141E+01  0.50872391442E+02  0.47000000000E+01 0. -1.
<mgrwt>
<rscale>  0 0.12902606E+03</rscale>
<asrwt>0</asrwt>
<pdfrwt beam="1">  1        5 0.37170875E-01 0.12902612E+03</pdfrwt>
<pdfrwt beam="2">  1       -5 0.11863068E-01 0.12902612E+03</pdfrwt>
<totfact> 0.29610036E+02</totfact>
</mgrwt>
</event>
<event>
 8    1  0.1865596E-007  0.1317115E+03  0.7546771E-02  0.1224938E+00
         -5   -1    0    0    0  501 -0.00000000000E+00  0.00000000000E+00  0.14034137155E+03  0.14042005045E+03  0.47000000000E+01 0.  1.
          5   -1    0    0  501    0  0.00000000000E+00 -0.00000000000E+00 -0.12777693267E+03  0.12786334315E+03  0.47000000000E+01 0.  1.
         25    2    1    2    0    0 -0.24910825692E+02  0.33183353840E+02  0.30940792028E+02  0.13529691534E+03  0.12500495383E+03 0.  0.
         25    2    1    2    0    0  0.24910825692E+02 -0.33183353840E+02 -0.18376353142E+02  0.13298647826E+03  0.12500411528E+03 0.  0.
          5    1    3    3  502    0 -0.20466392845E+02  0.58109300752E+02 -0.30333317020E+02  0.68831418635E+02  0.47000000000E+01 0.  1.
         -5    1    3    3    0  502 -0.44444328470E+01 -0.24925946912E+02  0.61274109049E+02  0.66465496707E+02  0.47000000000E+01 0.  1.
          5    1    4    4  503    0 -0.20793488269E+01 -0.37032706656E+02  0.48135901585E+02  0.60949980108E+02  0.47000000000E+01 0. -1.
         -5    1    4    4    0  503  0.26990174519E+02  0.38493528165E+01 -0.66512254726E+02  0.72036498155E+02  0.47000000000E+01 0. -1.
<mgrwt>
<rscale>  0 0.13171131E+03</rscale>
<asrwt>0</asrwt>
<pdfrwt beam="2">  1        5 0.19670689E-01 0.13171151E+03</pdfrwt>
<pdfrwt beam="1">  1       -5 0.21603679E-01 0.13171151E+03</pdfrwt>
<totfact> 0.34313071E+02</totfact>
</mgrwt>
</event>
<event>
 8    1  0.1865596E-007  0.1893597E+03  0.7546771E-02  0.1159040E+00
          5   -1    0    0  501    0  0.00000000000E+00  0.00000000000E+00  0.53751550790E+02  0.53956641967E+02  0.47000000000E+01 0.  1.
         -5   -1    0    0    0  501 -0.00000000000E+00 -0.00000000000E+00 -0.66560437890E+03  0.66562097264E+03  0.47000000000E+01 0.  1.
         25    2    1    2    0    0 -0.13521434234E+03  0.44139229350E+02 -0.30541733998E+03  0.35935613491E+03  0.12500356071E+03 0.  0.
         25    2    1    2    0    0  0.13521434234E+03 -0.44139229350E+02 -0.30643548813E+03  0.36022147970E+03  0.12500246440E+03 0.  0.
          5    1    3    3  502    0 -0.12678740073E+03  0.26571543377E+01 -0.28530831135E+03  0.31225795103E+03  0.47000000000E+01 0. -1.
         -5    1    3    3    0  502 -0.84269416126E+01  0.41482075012E+02 -0.20109028628E+02  0.47098183878E+02  0.47000000000E+01 0. -1.
          5    1    4    4  503    0  0.10171883576E+03  0.21548150278E+02 -0.11543963216E+03  0.15543308208E+03  0.47000000000E+01 0.  1.
         -5    1    4    4    0  503  0.33495506577E+02 -0.65687379628E+02 -0.19099585597E+03  0.20478839762E+03  0.47000000000E+01 0.  1.
<mgrwt>
<rscale>  0 0.18935948E+03</rscale>
<asrwt>0</asrwt>
<pdfrwt beam="1">  1        5 0.82865225E-02 0.18935966E+03</pdfrwt>
<pdfrwt beam="2">  1       -5 0.10241772E+00 0.18935966E+03</pdfrwt>
<totfact> 0.66121442E+01</totfact>
</mgrwt>
</event>
<event>
 8    1  0.1865596E-007  0.1298928E+03  0.7546771E-02  0.1227627E+00
         -5   -1    0    0    0  501 -0.00000000000E+00  0.00000000000E+00  0.72961384555E+01  0.86789190780E+01  0.47000000000E+01 0.  1.
          5   -1    0    0  501    0  0.00000000000E+00 -0.00000000000E+00 -0.21773865563E+04  0.21773916289E+04  0.47000000000E+01 0.  1.
         25    2    1    2    0    0 -0.34995313956E+02 -0.39199765576E+01 -0.89349674009E+03  0.90288900666E+03  0.12502837912E+03 0.  0.
         25    2    1    2    0    0  0.34995313956E+02  0.39199765576E+01 -0.12765936778E+04  0.12831815413E+04  0.12499364642E+03 0.  0.
          5    1    4    4  502    0  0.33159303593E+02  0.43938768072E+02 -0.26080648591E+03  0.26659382560E+03  0.47000000000E+01 0.  1.
         -5    1    4    4    0  502  0.18360103634E+01 -0.40018791515E+02 -0.10157871919E+04  0.10165877157E+04  0.47000000000E+01 0.  1.
          5    1    3    3  503    0 -0.60711254520E+01 -0.50423096186E+02 -0.69657955410E+03  0.69844435167E+03  0.47000000000E+01 0. -1.
         -5    1    3    3    0  503 -0.28924188504E+02  0.46503119629E+02 -0.19691718599E+03  0.20444465499E+03  0.47000000000E+01 0. -1.
<mgrwt>
<rscale>  0 0.12988442E+03</rscale>
<asrwt>0</asrwt>
<pdfrwt beam="2">  1        5 0.33508883E+00 0.12989278E+03</pdfrwt>
<pdfrwt beam="1">  1       -5 0.12292425E-02 0.12989278E+03</pdfrwt>
<totfact> 0.29373099E+01</totfact>
</mgrwt>
</event>
<event>
 8    1  0.1865596E-007  0.1280062E+03  0.7546771E-02  0.1230445E+00
         -5   -1    0    0    0  501 -0.00000000000E+00  0.00000000000E+00  0.35517378058E+02  0.35827003002E+02  0.47000000000E+01 0. -1.
          5   -1    0    0  501    0  0.00000000000E+00 -0.00000000000E+00 -0.47438148242E+03  0.47440476480E+03  0.47000000000E+01 0. -1.
         25    2    1    2    0    0 -0.24358347999E+02  0.12917901492E+02 -0.17352456045E+03  0.21563013666E+03  0.12500152582E+03 0.  0.
         25    2    1    2    0    0  0.24358347999E+02 -0.12917901492E+02 -0.26533954391E+03  0.29460163114E+03  0.12499938485E+03 0.  0.
          5    1    3    3  502    0 -0.51708128580E+02 -0.33809455346E+02 -0.46497250339E+02  0.77465438236E+02  0.47000000000E+01 0. -1.
         -5    1    3    3    0  502  0.27349780581E+02  0.46727356839E+02 -0.12702731011E+03  0.13816469842E+03  0.47000000000E+01 0. -1.
          5    1    4    4  503    0  0.45857475757E+02  0.31348400390E+02 -0.22189164696E+03  0.22878728828E+03  0.47000000000E+01 0.  1.
         -5    1    4    4    0  503 -0.21499127758E+02 -0.44266301882E+02 -0.43447896952E+02  0.65814342861E+02  0.47000000000E+01 0.  1.
<mgrwt>
<rscale>  0 0.12800566E+03</rscale>
<asrwt>0</asrwt>
<pdfrwt beam="2">  1        5 0.73007370E-01 0.12800618E+03</pdfrwt>
<pdfrwt beam="1">  1       -5 0.54898206E-02 0.12800618E+03</pdfrwt>
<totfact> 0.26188984E+02</totfact>
</mgrwt>
</event>
<event>
 8    1  0.1865596E-007  0.1314657E+03  0.7546771E-02  0.1225307E+00
          5   -1    0    0  501    0  0.00000000000E+00  0.00000000000E+00  0.34593702043E+02  0.34911519890E+02  0.47000000000E+01 0. -1.
         -5   -1    0    0    0  501 -0.00000000000E+00 -0.00000000000E+00 -0.52417173425E+03  0.52419280516E+03  0.47000000000E+01 0. -1.
         25    2    1    2    0    0  0.13850987734E+02  0.38211037434E+02 -0.30851749299E+03  0.33534968648E+03  0.12499774196E+03 0.  0.
         25    2    1    2    0    0 -0.13850987734E+02 -0.38211037434E+02 -0.18106053921E+03  0.22375463858E+03  0.12502514220E+03 0.  0.
          5    1    4    4  502    0  0.68087603884E+01  0.44726733116E+02 -0.71067517713E+02  0.84377259656E+02  0.47000000000E+01 0.  1.
         -5    1    4    4    0  502 -0.20659748123E+02 -0.82937770550E+02 -0.10999302150E+03  0.13937737892E+03  0.47000000000E+01 0.  1.
          5    1    3    3  503    0  0.39933012746E+02  0.53005843839E+02 -0.76618863830E+02  0.10147317519E+03  0.47000000000E+01 0. -1.
         -5    1    3    3    0  503 -0.26082025012E+02 -0.14794806405E+02 -0.23189862916E+03  0.23387651129E+03  0.47000000000E+01 0. -1.
<mgrwt>
<rscale>  0 0.13145914E+03</rscale>
<asrwt>0</asrwt>
<pdfrwt beam="1">  1        5 0.53481767E-02 0.13146566E+03</pdfrwt>
<pdfrwt beam="2">  1       -5 0.80667868E-01 0.13146566E+03</pdfrwt>
<totfact> 0.21973224E+02</totfact>
</mgrwt>
</event>
<event>
 8    1  0.1865596E-007  0.1672695E+03  0.7546771E-02  0.1180730E+00
          5   -1    0    0  501    0  0.00000000000E+00  0.00000000000E+00  0.51065849546E+02  0.51281682791E+02  0.47000000000E+01 0. -1.
         -5   -1    0    0    0  501 -0.00000000000E+00 -0.00000000000E+00 -0.54991301897E+03  0.54993310360E+03  0.47000000000E+01 0. -1.
         25    2    1    2    0    0 -0.57882909495E+02 -0.94891746234E+02 -0.27320298773E+03  0.32033333152E+03  0.12497478172E+03 0.  0.
         25    2    1    2    0    0  0.57882909495E+02  0.94891746234E+02 -0.22564418170E+03  0.28088145487E+03  0.12499688092E+03 0.  0.
          5    1    3    3  502    0 -0.58055819840E+02 -0.12402409278E+03 -0.23542727251E+03  0.27239776880E+03  0.47000000000E+01 0.  1.
         -5    1    3    3    0  502  0.17291034443E+00  0.29132346542E+02 -0.37775715220E+02  0.47935562721E+02  0.47000000000E+01 0.  1.
          5    1    4    4  503    0  0.12239559079E+02 -0.25413369472E+02 -0.11118497796E+02  0.30681544087E+02  0.47000000000E+01 0.  1.
         -5    1    4    4    0  503  0.45643350416E+02  0.12030511571E+03 -0.21452568390E+03  0.25019991078E+03  0.47000000000E+01 0.  1.
<mgrwt>
<rscale>  0 0.16726540E+03</rscale>
<asrwt>0</asrwt>
<pdfrwt beam="1">  1        5 0.78744325E-02 0.16726953E+03</pdfrwt>
<pdfrwt beam="2">  1       -5 0.84620146E-01 0.16726953E+03</pdfrwt>
<totfact> 0.11032088E+02</totfact>
</mgrwt>
</event>
<event>
 8    1  0.1865596E-007  0.1292144E+03  0.7546771E-02  0.1228627E+00
         -5   -1    0    0    0  501 -0.00000000000E+00  0.00000000000E+00  0.15092102590E+03  0.15099419213E+03  0.47000000000E+01 0. -1.
          5   -1    0    0  501    0  0.00000000000E+00 -0.00000000000E+00 -0.14324957111E+03  0.14332665357E+03  0.47000000000E+01 0. -1.
         25    2    1    2    0    0  0.10716621429E+01  0.32712753920E+02  0.74184306036E+02  0.14899551151E+03  0.12500031384E+03 0.  0.
         25    2    1    2    0    0 -0.10716621429E+01 -0.32712753920E+02 -0.66512851255E+02  0.14532533419E+03  0.12499688255E+03 0.  0.
          5    1    4    4  502    0  0.32225530007E+02 -0.67390569375E+02 -0.18245768072E+02  0.77038767367E+02  0.47000000000E+01 0. -1.
         -5    1    4    4    0  502 -0.33297192150E+02  0.34677815455E+02 -0.48267083184E+02  0.68286566826E+02  0.47000000000E+01 0. -1.
          5    1    3    3  503    0  0.17394434709E+02  0.33518877867E+02 -0.26828626015E+02  0.46561214612E+02  0.47000000000E+01 0.  1.
         -5    1    3    3    0  503 -0.16322772566E+02 -0.80612394679E+00  0.10101293205E+03  0.10243429690E+03  0.47000000000E+01 0.  1.
<mgrwt>
<rscale>  0 0.12921353E+03</rscale>
<asrwt>0</asrwt>
<pdfrwt beam="2">  1        5 0.22049953E-01 0.12921436E+03</pdfrwt>
<pdfrwt beam="1">  1       -5 0.23230177E-01 0.12921436E+03</pdfrwt>
<totfact> 0.23988493E+02</totfact>
</mgrwt>
</event>
<event>
 8    1  0.1865596E-007  0.1355351E+03  0.7546771E-02  0.1219467E+00
          5   -1    0    0  501    0  0.00000000000E+00  0.00000000000E+00  0.18171702655E+03  0.18177779771E+03  0.47000000000E+01 0. -1.
         -5   -1    0    0    0  501 -0.00000000000E+00 -0.00000000000E+00 -0.10111233814E+03  0.10122151414E+03  0.47000000000E+01 0. -1.
         25    2    1    2    0    0  0.29568252227E+02  0.43245858607E+02  0.45852244130E+02  0.14308109475E+03  0.12500114222E+03 0.  0.
         25    2    1    2    0    0 -0.29568252227E+02 -0.43245858607E+02  0.34752444279E+02  0.13991821710E+03  0.12499955706E+03 0.  0.
          5    1    3    3  502    0 -0.16703359407E+01  0.51394878065E+02  0.80406559257E+02  0.95559030368E+02  0.47000000000E+01 0.  1.
         -5    1    3    3    0  502  0.31238588167E+02 -0.81490194575E+01 -0.34554315127E+02  0.47522064378E+02  0.47000000000E+01 0.  1.
          5    1    4    4  503    0  0.20478939700E+02 -0.34608644761E+02 -0.34992419810E+02  0.53513593671E+02  0.47000000000E+01 0. -1.
         -5    1    4    4    0  503 -0.50047191927E+02 -0.86372138462E+01  0.69744864089E+02  0.86404623427E+02  0.47000000000E+01 0. -1.
<mgrwt>
<rscale>  0 0.13553476E+03</rscale>
<asrwt>0</asrwt>
<pdfrwt beam="1">  1        5 0.27969539E-01 0.13553513E+03</pdfrwt>
<pdfrwt beam="2">  1       -5 0.15568817E-01 0.13553513E+03</pdfrwt>
<totfact> 0.32518559E+02</totfact>
</mgrwt>
</event>
<event>
 8    1  0.1865596E-007  0.1381408E+03  0.7546771E-02  0.1215854E+00
         -5   -1    0    0    0  501 -0.00000000000E+00  0.00000000000E+00  0.78480428374E+03  0.78481835719E+03  0.47000000000E+01 0.  1.
          5   -1    0    0  501    0  0.00000000000E+00 -0.00000000000E+00 -0.27377380448E+02  0.27777886173E+02  0.47000000000E+01 0.  1.
         25    2    1    2    0    0  0.28715921368E+02 -0.51309544785E+02  0.51873909694E+03  0.53681759050E+03  0.12500240499E+03 0.  0.
         25    2    1    2    0    0 -0.28715921368E+02  0.51309544785E+02  0.23868780636E+03  0.27577865286E+03  0.12499889177E+03 0.  0.
          5    1    3    3  502    0  0.73220566225E+02 -0.48511664730E+02  0.40742869414E+03  0.41681514337E+03  0.47000000000E+01 0. -1.
         -5    1    3    3    0  502 -0.44504644857E+02 -0.27978800545E+01  0.11131040280E+03  0.12000244713E+03  0.47000000000E+01 0. -1.
          5    1    4    4  503    0 -0.40946505742E+01  0.37238832663E+02  0.24908805270E+01  0.37839018317E+02  0.47000000000E+01 0. -1.
         -5    1    4    4    0  503 -0.24621270793E+02  0.14070712122E+02  0.23619692583E+03  0.23793963454E+03  0.47000000000E+01 0. -1.
<mgrwt>
<rscale>  0 0.13813998E+03</rscale>
<asrwt>0</asrwt>
<pdfrwt beam="2">  1        5 0.42437950E-02 0.13814078E+03</pdfrwt>
<pdfrwt beam="1">  1       -5 0.12077102E+00 0.13814078E+03</pdfrwt>
<totfact> 0.12308464E+02</totfact>
</mgrwt>
</event>
<event>
 8    1  0.1865596E-007  0.1381318E+03  0.7546771E-02  0.1215866E+00
         -5   -1    0    0    0  501 -0.00000000000E+00  0.00000000000E+00  0.39871796456E+02  0.40147853649E+02  0.47000000000E+01 0. -1.
          5   -1    0    0  501    0  0.00000000000E+00 -0.00000000000E+00 -0.49136893901E+03  0.49139141651E+03  0.47000000000E+01 0. -1.
         25    2    1    2    0    0 -0.55957584921E+02 -0.17995379985E+02 -0.17968006423E+03  0.22663918709E+03  0.12500124252E+03 0.  0.
         25    2    1    2    0    0  0.55957584921E+02  0.17995379985E+02 -0.27181707833E+03  0.30490008308E+03  0.12499780630E+03 0.  0.
          5    1    3    3  502    0 -0.66378004447E+02 -0.59525784115E+02 -0.88084382420E+02  0.12542052015E+03  0.47000000000E+01 0. -1.
         -5    1    3    3    0  502  0.10420419526E+02  0.41530404130E+02 -0.91595681808E+02  0.10121866694E+03  0.47000000000E+01 0. -1.
          5    1    4    4  503    0  0.29825479187E+02 -0.43935685378E+02 -0.19756603049E+03  0.20463218237E+03  0.47000000000E+01 0. -1.
         -5    1    4    4    0  503  0.26132105734E+02  0.61931065363E+02 -0.74251047838E+02  0.10026790071E+03  0.47000000000E+01 0. -1.
<mgrwt>
<rscale>  0 0.13813103E+03</rscale>
<asrwt>0</asrwt>
<pdfrwt beam="2">  1        5 0.75618182E-01 0.13813181E+03</pdfrwt>
<pdfrwt beam="1">  1       -5 0.61570871E-02 0.13813181E+03</pdfrwt>
<totfact> 0.20478480E+02</totfact>
</mgrwt>
</event>
<event>
 8    1  0.1865596E-007  0.1650211E+03  0.7546771E-02  0.1183143E+00
          5   -1    0    0  501    0  0.00000000000E+00  0.00000000000E+00  0.74675439452E+03  0.74676918505E+03  0.47000000000E+01 0. -1.
         -5   -1    0    0    0  501 -0.00000000000E+00 -0.00000000000E+00 -0.42076192288E+02  0.42337878519E+02  0.47000000000E+01 0. -1.
         25    2    1    2    0    0 -0.47801515418E+02  0.96544202475E+02  0.20666166211E+03  0.26446362813E+03  0.12500480035E+03 0.  0.
         25    2    1    2    0    0  0.47801515418E+02 -0.96544202475E+02  0.49801654013E+03  0.52464343544E+03  0.12499796878E+03 0.  0.
          5    1    4    4  502    0  0.24998829056E+02 -0.52421754723E+02  0.59429685990E+02  0.83228356942E+02  0.47000000000E+01 0. -1.
         -5    1    4    4    0  502  0.22802686362E+02 -0.44122447751E+02  0.43858685414E+03  0.44141507850E+03  0.47000000000E+01 0. -1.
          5    1    3    3  503    0 -0.87460132757E+02  0.43154713180E+02  0.11062731688E+03  0.14755370999E+03  0.47000000000E+01 0. -1.
         -5    1    3    3    0  503  0.39658617339E+02  0.53389489294E+02  0.96034345230E+02  0.11690991814E+03  0.47000000000E+01 0. -1.
<mgrwt>
<rscale>  0 0.16501982E+03</rscale>
<asrwt>0</asrwt>
<pdfrwt beam="1">  1        5 0.11490655E+00 0.16502111E+03</pdfrwt>
<pdfrwt beam="2">  1       -5 0.64945281E-02 0.16502111E+03</pdfrwt>
<totfact> 0.72455765E+01</totfact>
</mgrwt>
</event>
<event>
 8    1  0.1865596E-007  0.1600466E+03  0.7546771E-02  0.1188645E+00
         -5   -1    0    0    0  501 -0.00000000000E+00  0.00000000000E+00  0.62355401485E+02  0.62532280419E+02  0.47000000000E+01 0.  1.
          5   -1    0    0  501    0  0.00000000000E+00 -0.00000000000E+00 -0.42614685340E+03  0.42617277090E+03  0.47000000000E+01 0.  1.
         25    2    1    2    0    0  0.12234277172E+01 -0.99944409399E+02 -0.13435647449E+03  0.20896550693E+03  0.12499815640E+03 0.  0.
         25    2    1    2    0    0 -0.12234277172E+01  0.99944409399E+02 -0.22943497742E+03  0.27973954440E+03  0.12499368820E+03 0.  0.
          5    1    4    4  502    0  0.94020860968E+01 -0.26341255476E+02 -0.73264458879E+02  0.78562280376E+02  0.47000000000E+01 0. -1.
         -5    1    4    4    0  502 -0.10625513814E+02  0.12628566487E+03 -0.15617051854E+03  0.20117726402E+03  0.47000000000E+01 0. -1.
          5    1    3    3  503    0 -0.50723963563E+02 -0.47344826116E+01 -0.49341874087E+02  0.71077748582E+02  0.47000000000E+01 0. -1.
         -5    1    3    3    0  503  0.51947391280E+02 -0.95209926787E+02 -0.85014600402E+02  0.13788775834E+03  0.47000000000E+01 0. -1.
<mgrwt>
<rscale>  0 0.16004575E+03</rscale>
<asrwt>0</asrwt>
<pdfrwt beam="2">  1        5 0.65576652E-01 0.16004662E+03</pdfrwt>
<pdfrwt beam="1">  1       -5 0.96087387E-02 0.16004662E+03</pdfrwt>
<totfact> 0.13829569E+02</totfact>
</mgrwt>
</event>
<event>
 8    1  0.1865596E-007  0.1253529E+03  0.7546771E-02  0.1234519E+00
         -5   -1    0    0    0  501 -0.00000000000E+00  0.00000000000E+00  0.12476096690E+03  0.12484946480E+03  0.47000000000E+01 0.  1.
          5   -1    0    0  501    0  0.00000000000E+00 -0.00000000000E+00 -0.16971057241E+03  0.16977564132E+03  0.47000000000E+01 0.  1.
         25    2    1    2    0    0 -0.80496029618E+01  0.48453888759E+01  0.52446528072E+02  0.13588230285E+03  0.12500035208E+03 0.  0.
         25    2    1    2    0    0  0.80496029618E+01 -0.48453888759E+01 -0.97396133579E+02  0.15874280327E+03  0.12499998741E+03 0.  0.
          5    1    3    3  502    0 -0.30781177077E+02 -0.35845378372E+02 -0.18422232311E+02  0.50929761988E+02  0.47000000000E+01 0. -1.
         -5    1    3    3    0  502  0.22731574115E+02  0.40690767248E+02  0.70868760383E+02  0.84952540864E+02  0.47000000000E+01 0. -1.
          5    1    4    4  503    0 -0.32888574433E+01 -0.48471288021E+02  0.26802744727E+01  0.48883087228E+02  0.47000000000E+01 0.  1.
         -5    1    4    4    0  503  0.11338460405E+02  0.43625899146E+02 -0.10007640805E+03  0.10985971604E+03  0.47000000000E+01 0.  1.
<mgrwt>
<rscale>  0 0.12535286E+03</rscale>
<asrwt>0</asrwt>
<pdfrwt beam="2">  1        5 0.26121132E-01 0.12535295E+03</pdfrwt>
<pdfrwt beam="1">  1       -5 0.19205808E-01 0.12535295E+03</pdfrwt>
<totfact> 0.24552202E+02</totfact>
</mgrwt>
</event>
<event>
 8    1  0.1865596E-007  0.1312420E+03  0.7546771E-02  0.1225639E+00
          5   -1    0    0  501    0  0.00000000000E+00  0.00000000000E+00  0.43961787474E+03  0.43964299812E+03  0.47000000000E+01 0.  1.
         -5   -1    0    0    0  501 -0.00000000000E+00 -0.00000000000E+00 -0.50835726299E+02  0.51052532438E+02  0.47000000000E+01 0.  1.
         25    2    1    2    0    0  0.11964537633E+02 -0.38086519270E+02  0.76310485614E+02  0.15178107969E+03  0.12498189000E+03 0.  0.
         25    2    1    2    0    0 -0.11964537633E+02  0.38086519270E+02  0.31247166283E+03  0.33891445086E+03  0.12502292518E+03 0.  0.
          5    1    4    4  502    0 -0.30804196062E+02  0.22028082954E+01  0.29125864146E+03  0.29292906494E+03  0.47000000000E+01 0. -1.
         -5    1    4    4    0  502  0.18839658430E+02  0.35883710975E+02  0.21213021367E+02  0.45985385924E+02  0.47000000000E+01 0. -1.
          5    1    3    3  503    0  0.29774944081E+02 -0.45409552760E+02  0.10418295664E+03  0.11757871079E+03  0.47000000000E+01 0. -1.
         -5    1    3    3    0  503 -0.17810406448E+02  0.73230334898E+01 -0.27872471026E+02  0.34202368901E+02  0.47000000000E+01 0. -1.
<mgrwt>
<rscale>  0 0.13123224E+03</rscale>
<asrwt>0</asrwt>
<pdfrwt beam="1">  1        5 0.67652127E-01 0.13124201E+03</pdfrwt>
<pdfrwt beam="2">  1       -5 0.78394911E-02 0.13124201E+03</pdfrwt>
<totfact> 0.17183962E+02</totfact>
</mgrwt>
</event>
<event>
 8    1  0.1865596E-007  0.1284277E+03  0.7546771E-02  0.1229809E+00
          5   -1    0    0  501    0  0.00000000000E+00  0.00000000000E+00  0.35932961919E+03  0.35936035567E+03  0.47000000000E+01 0.  1.
         -5   -1    0    0    0  501 -0.00000000000E+00 -0.00000000000E+00 -0.46564878556E+02  0.46801473427E+02  0.47000000000E+01 0.  1.
         25    2    1    2    0    0  0.33421969212E+01  0.29283515315E+02  0.18321507699E+03  0.22374255515E+03  0.12499708796E+03 0.  0.
         25    2    1    2    0    0 -0.33421969212E+01 -0.29283515315E+02  0.12954966364E+03  0.18241927395E+03  0.12499992643E+03 0.  0.
          5    1    4    4  502    0  0.40218719340E+01  0.24611377063E+02 -0.13897337910E+02  0.28933049196E+02  0.47000000000E+01 0. -1.
         -5    1    4    4    0  502 -0.73640688551E+01 -0.53894892378E+02  0.14344700155E+03  0.15348622475E+03  0.47000000000E+01 0. -1.
          5    1    3    3  503    0 -0.16022625353E+02  0.74625560540E+02  0.13162559993E+03  0.15222709143E+03  0.47000000000E+01 0.  1.
         -5    1    3    3    0  503  0.19364822274E+02 -0.45342045226E+02  0.51589477063E+02  0.71515463716E+02  0.47000000000E+01 0.  1.
<mgrwt>
<rscale>  0 0.12842702E+03</rscale>
<asrwt>0</asrwt>
<pdfrwt beam="1">  1        5 0.55302044E-01 0.12842771E+03</pdfrwt>
<pdfrwt beam="2">  1       -5 0.71843914E-02 0.12842771E+03</pdfrwt>
<totfact> 0.30790693E+02</totfact>
</mgrwt>
</event>
<event>
 8    1  0.1865596E-007  0.1679695E+03  0.7546771E-02  0.1179983E+00
         -5   -1    0    0    0  501 -0.00000000000E+00  0.00000000000E+00  0.21576054867E+03  0.21581173361E+03  0.47000000000E+01 0. -1.
          5   -1    0    0  501    0  0.00000000000E+00 -0.00000000000E+00 -0.13122353100E+03  0.13130767338E+03  0.47000000000E+01 0. -1.
         25    2    1    2    0    0  0.10946359300E+03  0.24618758878E+02  0.53710410471E+02  0.17634461008E+03  0.12499700728E+03 0.  0.
         25    2    1    2    0    0 -0.10946359300E+03 -0.24618758878E+02  0.30826607197E+02  0.17077479691E+03  0.12500156025E+03 0.  0.
          5    1    3    3  502    0  0.12956321557E+03  0.21181230464E+02  0.70886227917E+02  0.14927229703E+03  0.47000000000E+01 0.  1.
         -5    1    3    3    0  502 -0.20099622566E+02  0.34375284137E+01 -0.17175817446E+02  0.27072313049E+02  0.47000000000E+01 0.  1.
          5    1    4    4  503    0  0.10643792028E+02 -0.39636173899E+02  0.27443296670E+02  0.49593760920E+02  0.47000000000E+01 0.  1.
         -5    1    4    4    0  503 -0.12010738503E+03  0.15017415021E+02  0.33833105272E+01  0.12118103599E+03  0.47000000000E+01 0.  1.
<mgrwt>
<rscale>  0 0.16796865E+03</rscale>
<asrwt>0</asrwt>
<pdfrwt beam="2">  1        5 0.20198645E-01 0.16796950E+03</pdfrwt>
<pdfrwt beam="1">  1       -5 0.33204340E-01 0.16796950E+03</pdfrwt>
<totfact> 0.15391405E+02</totfact>
</mgrwt>
</event>
<event>
 8    1  0.1865596E-007  0.1426968E+03  0.7546771E-02  0.1209757E+00
          5   -1    0    0  501    0  0.00000000000E+00  0.00000000000E+00  0.16855225205E+04  0.16855290733E+04  0.47000000000E+01 0.  1.
         -5   -1    0    0    0  501 -0.00000000000E+00 -0.00000000000E+00 -0.18073027779E+02  0.18674162179E+02  0.47000000000E+01 0.  1.
         25    2    1    2    0    0  0.67559875445E+02  0.12765478047E+02  0.33482754491E+03  0.36396686027E+03  0.12504037887E+03 0.  0.
         25    2    1    2    0    0 -0.67559875445E+02 -0.12765478047E+02  0.13326219478E+04  0.13402363752E+04  0.12499996628E+03 0.  0.
          5    1    3    3  502    0  0.42624680688E+02  0.67868768189E+02  0.21829321901E+03  0.23258773090E+03  0.47000000000E+01 0.  1.
         -5    1    3    3    0  502  0.24935194757E+02 -0.55103290142E+02  0.11653432589E+03  0.13137912937E+03  0.47000000000E+01 0.  1.
          5    1    4    4  503    0  0.31008813075E+02  0.20204215139E+02  0.43760378720E+03  0.43919121276E+03  0.47000000000E+01 0.  1.
         -5    1    4    4    0  503 -0.98568688519E+02 -0.32969693186E+02  0.89501816057E+03  0.90104516246E+03  0.47000000000E+01 0.  1.
<mgrwt>
<rscale>  0 0.14268799E+03</rscale>
<asrwt>0</asrwt>
<pdfrwt beam="1">  1        5 0.25935797E+00 0.14269685E+03</pdfrwt>
<pdfrwt beam="2">  1       -5 0.28272103E-02 0.14269685E+03</pdfrwt>
<totfact> 0.24331220E+01</totfact>
</mgrwt>
</event>
<event>
 8    1  0.1865596E-007  0.1364467E+03  0.7546771E-02  0.1218193E+00
         -5   -1    0    0    0  501 -0.00000000000E+00  0.00000000000E+00  0.21814300542E+02  0.22314876386E+02  0.47000000000E+01 0.  1.
          5   -1    0    0  501    0  0.00000000000E+00 -0.00000000000E+00 -0.84326955805E+03  0.84328265578E+03  0.47000000000E+01 0.  1.
         25    2    1    2    0    0 -0.45644229729E+02 -0.30131997804E+02 -0.40892940373E+03  0.43109274860E+03  0.12500547055E+03 0.  0.
         25    2    1    2    0    0  0.45644229729E+02  0.30131997804E+02 -0.41252585378E+03  0.43450478356E+03  0.12500197558E+03 0.  0.
          5    1    4    4  502    0  0.65649647759E+00  0.32828221128E+02 -0.37271377918E+03  0.37418681735E+03  0.47000000000E+01 0.  1.
         -5    1    4    4    0  502  0.44987733251E+02 -0.26962233244E+01 -0.39812074605E+02  0.60317966209E+02  0.47000000000E+01 0.  1.
          5    1    3    3  503    0 -0.52162459975E+02  0.27441751480E+02 -0.95532355643E+02  0.11234986840E+03  0.47000000000E+01 0.  1.
         -5    1    3    3    0  503  0.65182302466E+01 -0.57573749284E+02 -0.31339704808E+03  0.31874288020E+03  0.47000000000E+01 0.  1.
<mgrwt>
<rscale>  0 0.13644589E+03</rscale>
<asrwt>0</asrwt>
<pdfrwt beam="2">  1        5 0.12977327E+00 0.13644670E+03</pdfrwt>
<pdfrwt beam="1">  1       -5 0.33955602E-02 0.13644670E+03</pdfrwt>
<totfact> 0.14665174E+02</totfact>
</mgrwt>
</event>
<event>
 8    1  0.1865596E-007  0.1506047E+03  0.7546771E-02  0.1199741E+00
         -5   -1    0    0    0  501 -0.00000000000E+00  0.00000000000E+00  0.11396517714E+03  0.11406205154E+03  0.47000000000E+01 0.  1.
          5   -1    0    0  501    0  0.00000000000E+00 -0.00000000000E+00 -0.19910141906E+03  0.19915688558E+03  0.47000000000E+01 0.  1.
         25    2    1    2    0    0  0.49806311144E+02 -0.67540594094E+02 -0.48902292509E+02  0.15834519972E+03  0.12505745711E+03 0.  0.
         25    2    1    2    0    0 -0.49806311144E+02  0.67540594094E+02 -0.36233949414E+02  0.15487373740E+03  0.12502229788E+03 0.  0.
          5    1    4    4  502    0  0.37330067328E+02  0.33768712913E+02 -0.34648667590E+02  0.61290130235E+02  0.47000000000E+01 0.  1.
         -5    1    4    4    0  502 -0.87136378473E+02  0.33771881181E+02 -0.15852818238E+01  0.93583607166E+02  0.47000000000E+01 0.  1.
          5    1    3    3  503    0  0.41192751318E+02 -0.94961673940E+02 -0.26064977522E+01  0.10365059628E+03  0.47000000000E+01 0. -1.
         -5    1    3    3    0  503  0.86135598264E+01  0.27421079846E+02 -0.46295794756E+02  0.54694603435E+02  0.47000000000E+01 0. -1.
<mgrwt>
<rscale>  0 0.15059738E+03</rscale>
<asrwt>0</asrwt>
<pdfrwt beam="2">  1        5 0.30642706E-01 0.15060467E+03</pdfrwt>
<pdfrwt beam="1">  1       -5 0.17544823E-01 0.15060467E+03</pdfrwt>
<totfact> 0.22651675E+02</totfact>
</mgrwt>
</event>
<event>
 8    1  0.1865596E-007  0.1845022E+03  0.7546771E-02  0.1163516E+00
         -5   -1    0    0    0  501 -0.00000000000E+00  0.00000000000E+00  0.26770807815E+03  0.26774933260E+03  0.47000000000E+01 0.  1.
          5   -1    0    0  501    0  0.00000000000E+00 -0.00000000000E+00 -0.14087123614E+03  0.14094961926E+03  0.47000000000E+01 0.  1.
         25    2    1    2    0    0 -0.91848731803E+02 -0.99901922844E+02  0.12737103901E+03  0.22419735745E+03  0.12499795913E+03 0.  0.
         25    2    1    2    0    0  0.91848731803E+02  0.99901922844E+02 -0.53419699331E+00  0.18450159441E+03  0.12499587695E+03 0.  0.
          5    1    4    4  502    0  0.68460208681E+02  0.12259620035E+03 -0.25995455527E+02  0.14287925749E+03  0.47000000000E+01 0. -1.
         -5    1    4    4    0  502  0.23388523121E+02 -0.22694277503E+02  0.25461258534E+02  0.41622336927E+02  0.47000000000E+01 0. -1.
          5    1    3    3  503    0 -0.23060349812E+02 -0.32162425978E+02  0.12092802865E+03  0.12732587911E+03  0.47000000000E+01 0. -1.
         -5    1    3    3    0  503 -0.68788381991E+02 -0.67739496866E+02  0.64430103560E+01  0.96871478336E+02  0.47000000000E+01 0. -1.
<mgrwt>
<rscale>  0 0.18450188E+03</rscale>
<asrwt>0</asrwt>
<pdfrwt beam="2">  1        5 0.21681701E-01 0.18450223E+03</pdfrwt>
<pdfrwt beam="1">  1       -5 0.41195061E-01 0.18450223E+03</pdfrwt>
<totfact> 0.89362686E+01</totfact>
</mgrwt>
</event>
<event>
 8    1  0.1865596E-007  0.1277828E+03  0.7546771E-02  0.1230784E+00
          5   -1    0    0  501    0  0.00000000000E+00  0.00000000000E+00  0.75747507442E+02  0.75893180745E+02  0.47000000000E+01 0. -1.
         -5   -1    0    0    0  501 -0.00000000000E+00 -0.00000000000E+00 -0.22200930364E+03  0.22205904823E+03  0.47000000000E+01 0. -1.
         25    2    1    2    0    0 -0.19638996128E+02  0.17821308882E+02 -0.99245211799E+02  0.16179421790E+03  0.12499787063E+03 0.  0.
         25    2    1    2    0    0  0.19638996128E+02 -0.17821308882E+02 -0.47016584397E+02  0.13615801108E+03  0.12500062221E+03 0.  0.
          5    1    3    3  502    0 -0.69754780269E+02 -0.84614791559E+00 -0.76067449727E+02  0.10331888620E+03  0.47000000000E+01 0. -1.
         -5    1    3    3    0  502  0.50115784142E+02  0.18667456798E+02 -0.23177762073E+02  0.58475331706E+02  0.47000000000E+01 0. -1.
          5    1    4    4  503    0  0.50687956692E+02  0.38119320861E+02 -0.24996020037E+02  0.68331856365E+02  0.47000000000E+01 0. -1.
         -5    1    4    4    0  503 -0.31048960565E+02 -0.55940629743E+02 -0.22020564359E+02  0.67826154711E+02  0.47000000000E+01 0. -1.
<mgrwt>
<rscale>  0 0.12778213E+03</rscale>
<asrwt>0</asrwt>
<pdfrwt beam="1">  1        5 0.11668495E-01 0.12778280E+03</pdfrwt>
<pdfrwt beam="2">  1       -5 0.34170309E-01 0.12778280E+03</pdfrwt>
<totfact> 0.35972118E+02</totfact>
</mgrwt>
</event>
<event>
 8    1  0.1865596E-007  0.2095925E+03  0.7546771E-02  0.1141890E+00
          5   -1    0    0  501    0  0.00000000000E+00  0.00000000000E+00  0.62993451249E+02  0.63168543598E+02  0.47000000000E+01 0. -1.
         -5   -1    0    0    0  501 -0.00000000000E+00 -0.00000000000E+00 -0.73542672627E+03  0.73544174460E+03  0.47000000000E+01 0. -1.
         25    2    1    2    0    0  0.16408652014E+03 -0.37135962086E+02 -0.42842723279E+03  0.47694748066E+03  0.12500215891E+03 0.  0.
         25    2    1    2    0    0 -0.16408652014E+03  0.37135962086E+02 -0.24400604222E+03  0.32166280755E+03  0.12499818936E+03 0.  0.
          5    1    4    4  502    0 -0.17072779308E+01 -0.23043888669E+02 -0.14889815218E+01  0.23627159561E+02  0.47000000000E+01 0. -1.
         -5    1    4    4    0  502 -0.16237924221E+03  0.60179850755E+02 -0.24251706070E+03  0.29803564799E+03  0.47000000000E+01 0. -1.
          5    1    3    3  503    0  0.10217201940E+03 -0.60241327063E+02 -0.15290754037E+03  0.19357413292E+03  0.47000000000E+01 0. -1.
         -5    1    3    3    0  503  0.61914500747E+02  0.23105364977E+02 -0.27551969242E+03  0.28337334774E+03  0.47000000000E+01 0. -1.
<mgrwt>
<rscale>  0 0.20959188E+03</rscale>
<asrwt>0</asrwt>
<pdfrwt beam="1">  1        5 0.97059246E-02 0.20959247E+03</pdfrwt>
<pdfrwt beam="2">  1       -5 0.11315719E+00 0.20959247E+03</pdfrwt>
<totfact> 0.40166198E+01</totfact>
</mgrwt>
</event>
<event>
 8    1  0.1865596E-007  0.1254598E+03  0.7546771E-02  0.1234354E+00
          5   -1    0    0  501    0  0.00000000000E+00  0.00000000000E+00  0.12540128360E+02  0.13391968462E+02  0.47000000000E+01 0.  1.
         -5   -1    0    0    0  501 -0.00000000000E+00 -0.00000000000E+00 -0.12160301603E+04  0.12160392431E+04  0.47000000000E+01 0.  1.
         25    2    1    2    0    0 -0.29440947921E+01  0.10306701535E+02 -0.63213396898E+03  0.64446375252E+03  0.12500111114E+03 0.  0.
         25    2    1    2    0    0  0.29440947921E+01 -0.10306701535E+02 -0.57135606297E+03  0.58496745905E+03  0.12499712662E+03 0.  0.
          5    1    3    3  502    0 -0.46868855259E+02 -0.33456650064E+02 -0.39976138749E+03  0.40391495882E+03  0.47000000000E+01 0. -1.
         -5    1    3    3    0  502  0.43924760467E+02  0.43763351599E+02 -0.23237258149E+03  0.24054879370E+03  0.47000000000E+01 0. -1.
          5    1    4    4  503    0 -0.45348495861E+02  0.78542337526E+00 -0.46837286435E+03  0.47058722149E+03  0.47000000000E+01 0.  1.
         -5    1    4    4    0  503  0.48292590653E+02 -0.11092124911E+02 -0.10298319862E+03  0.11438023756E+03  0.47000000000E+01 0.  1.
<mgrwt>
<rscale>  0 0.12545886E+03</rscale>
<asrwt>0</asrwt>
<pdfrwt beam="1">  1        5 0.19954763E-02 0.12545985E+03</pdfrwt>
<pdfrwt beam="2">  1       -5 0.18714770E+00 0.12545985E+03</pdfrwt>
<totfact> 0.12112960E+02</totfact>
</mgrwt>
</event>
<event>
 8    1  0.1865596E-007  0.1409741E+03  0.7546771E-02  0.1212026E+00
          5   -1    0    0  501    0  0.00000000000E+00  0.00000000000E+00  0.38334044229E+03  0.38336925372E+03  0.47000000000E+01 0. -1.
         -5   -1    0    0    0  501 -0.00000000000E+00 -0.00000000000E+00 -0.51720429001E+02  0.51933541917E+02  0.47000000000E+01 0. -1.
         25    2    1    2    0    0  0.49199783471E+02 -0.42751253908E+02  0.16199855699E+03  0.21474921153E+03  0.12500161192E+03 0.  0.
         25    2    1    2    0    0 -0.49199783471E+02  0.42751253908E+02  0.16962145630E+03  0.22055358411E+03  0.12499662643E+03 0.  0.
          5    1    4    4  502    0 -0.41025032737E+02  0.71588560884E+02  0.17127209390E+03  0.19016886052E+03  0.47000000000E+01 0.  1.
         -5    1    4    4    0  502 -0.81747507344E+01 -0.28837306976E+02 -0.16506375997E+01  0.30384723590E+02  0.47000000000E+01 0.  1.
          5    1    3    3  503    0 -0.34312539967E+02  0.27873503175E+01  0.11406869182E+02  0.36569473407E+02  0.47000000000E+01 0.  1.
         -5    1    3    3    0  503  0.83512323438E+02 -0.45538604226E+02  0.15059168781E+03  0.17817973812E+03  0.47000000000E+01 0.  1.
<mgrwt>
<rscale>  0 0.14097298E+03</rscale>
<asrwt>0</asrwt>
<pdfrwt beam="1">  1        5 0.58994063E-01 0.14097408E+03</pdfrwt>
<pdfrwt beam="2">  1       -5 0.79755986E-02 0.14097408E+03</pdfrwt>
<totfact> 0.23128178E+02</totfact>
</mgrwt>
</event>
<event>
 8    1  0.1865596E-007  0.1348758E+03  0.7546771E-02  0.1220399E+00
         -5   -1    0    0    0  501 -0.00000000000E+00  0.00000000000E+00  0.16941530058E+03  0.16948048286E+03  0.47000000000E+01 0. -1.
          5   -1    0    0  501    0  0.00000000000E+00 -0.00000000000E+00 -0.11381381944E+03  0.11391082256E+03  0.47000000000E+01 0. -1.
         25    2    1    2    0    0  0.14507516846E+02 -0.48542492475E+02  0.61846991690E+02  0.14837100941E+03  0.12498825718E+03 0.  0.
         25    2    1    2    0    0 -0.14507516846E+02  0.48542492475E+02 -0.62455105509E+01  0.13502029600E+03  0.12499852923E+03 0.  0.
          5    1    3    3  502    0 -0.24749562861E+02 -0.66254842114E+02  0.74900754341E+02  0.10312350831E+03  0.47000000000E+01 0.  1.
         -5    1    3    3    0  502  0.39257079706E+02  0.17712349639E+02 -0.13053762650E+02  0.45247501104E+02  0.47000000000E+01 0.  1.
          5    1    4    4  503    0  0.22911775226E+01  0.85234096278E+02 -0.26784761983E+02  0.89496447623E+02  0.47000000000E+01 0. -1.
         -5    1    4    4    0  503 -0.16798694368E+02 -0.36691603802E+02  0.20539251432E+02  0.45523848381E+02  0.47000000000E+01 0. -1.
<mgrwt>
<rscale>  0 0.13487339E+03</rscale>
<asrwt>0</asrwt>
<pdfrwt beam="2">  1        5 0.17522294E-01 0.13487577E+03</pdfrwt>
<pdfrwt beam="1">  1       -5 0.26076368E-01 0.13487577E+03</pdfrwt>
<totfact> 0.29955493E+02</totfact>
</mgrwt>
</event>
<event>
 8    1  0.1865596E-007  0.1276152E+03  0.7546771E-02  0.1231039E+00
          5   -1    0    0  501    0  0.00000000000E+00  0.00000000000E+00  0.92218685073E+03  0.92219882762E+03  0.47000000000E+01 0. -1.
         -5   -1    0    0    0  501 -0.00000000000E+00 -0.00000000000E+00 -0.17624795153E+02  0.18240707337E+02  0.47000000000E+01 0. -1.
         25    2    1    2    0    0  0.15573188237E+02  0.20435576901E+02  0.39296628758E+03  0.41316842401E+03  0.12500202568E+03 0.  0.
         25    2    1    2    0    0 -0.15573188237E+02 -0.20435576901E+02  0.51159576799E+03  0.52727111095E+03  0.12499783045E+03 0.  0.
          5    1    3    3  502    0  0.52620244278E+02  0.55323372384E+02  0.23257477021E+03  0.24483194109E+03  0.47000000000E+01 0. -1.
         -5    1    3    3    0  502 -0.37047056041E+02 -0.34887795484E+02  0.16039151737E+03  0.16833648291E+03  0.47000000000E+01 0. -1.
          5    1    4    4  503    0 -0.28688666972E+02 -0.50293101450E+02  0.11063148253E+03  0.12495539441E+03  0.47000000000E+01 0.  1.
         -5    1    4    4    0  503  0.13115478735E+02  0.29857524549E+02  0.40096428546E+03  0.40231571653E+03  0.47000000000E+01 0.  1.
<mgrwt>
<rscale>  0 0.12761419E+03</rscale>
<asrwt>0</asrwt>
<pdfrwt beam="1">  1        5 0.14192321E+00 0.12761522E+03</pdfrwt>
<pdfrwt beam="2">  1       -5 0.27598058E-02 0.12761522E+03</pdfrwt>
<totfact> 0.15838788E+02</totfact>
</mgrwt>
</event>
<event>
 8    1  0.1865596E-007  0.1353263E+03  0.7546771E-02  0.1219761E+00
         -5   -1    0    0    0  501 -0.00000000000E+00  0.00000000000E+00  0.15803698018E+04  0.15803767907E+04  0.47000000000E+01 0.  1.
          5   -1    0    0  501    0  0.00000000000E+00 -0.00000000000E+00 -0.28701677516E+02  0.29083952487E+02  0.47000000000E+01 0.  1.
         25    2    1    2    0    0  0.47641828775E+02 -0.20481075859E+02  0.13986789415E+04  0.14052102980E+04  0.12499592802E+03 0.  0.
         25    2    1    2    0    0 -0.47641828775E+02  0.20481075859E+02  0.15298918282E+03  0.20425044513E+03  0.12499334366E+03 0.  0.
          5    1    3    3  502    0 -0.25190610808E+00 -0.67614901288E+02  0.73839842630E+03  0.74150263944E+03  0.47000000000E+01 0. -1.
         -5    1    3    3    0  502  0.47893734883E+02  0.47133825430E+02  0.66028051516E+03  0.66370765857E+03  0.47000000000E+01 0. -1.
          5    1    4    4  503    0 -0.82393412227E+02  0.23597316353E+02  0.14444283668E+03  0.16802181640E+03  0.47000000000E+01 0.  1.
         -5    1    4    4    0  503  0.34751583452E+02 -0.31162404945E+01  0.85463461336E+01  0.36228628728E+02  0.47000000000E+01 0.  1.
<mgrwt>
<rscale>  0 0.13532568E+03</rscale>
<asrwt>0</asrwt>
<pdfrwt beam="2">  1        5 0.44455853E-02 0.13532627E+03</pdfrwt>
<pdfrwt beam="1">  1       -5 0.24316380E+00 0.13532627E+03</pdfrwt>
<totfact> 0.14541868E+01</totfact>
</mgrwt>
</event>
<event>
 8    1  0.1865596E-007  0.1403529E+03  0.7546771E-02  0.1212862E+00
          5   -1    0    0  501    0  0.00000000000E+00  0.00000000000E+00  0.39794722438E+02  0.40071310609E+02  0.47000000000E+01 0.  1.
         -5   -1    0    0    0  501 -0.00000000000E+00 -0.00000000000E+00 -0.76110062023E+03  0.76111513197E+03  0.47000000000E+01 0.  1.
         25    2    1    2    0    0 -0.45282381818E+02  0.44981631639E+02 -0.59837364284E+03  0.61460860807E+03  0.12497553115E+03 0.  0.
         25    2    1    2    0    0  0.45282381818E+02 -0.44981631639E+02 -0.12293225495E+03  0.18657783451E+03  0.12500043093E+03 0.  0.
          5    1    4    4  502    0 -0.26765006901E+02 -0.25617902421E+02  0.57234397197E+01  0.37782142357E+02  0.47000000000E+01 0. -1.
         -5    1    4    4    0  502  0.72047388719E+02 -0.19363729217E+02 -0.12865569467E+03  0.14879569215E+03  0.47000000000E+01 0. -1.
          5    1    3    3  503    0 -0.73841474613E+02  0.58251359773E+02 -0.29733873187E+03  0.31189452666E+03  0.47000000000E+01 0.  1.
         -5    1    3    3    0  503  0.28559092795E+02 -0.13269728135E+02 -0.30103491097E+03  0.30271408142E+03  0.47000000000E+01 0.  1.
<mgrwt>
<rscale>  0 0.14034740E+03</rscale>
<asrwt>0</asrwt>
<pdfrwt beam="1">  1        5 0.61446579E-02 0.14035294E+03</pdfrwt>
<pdfrwt beam="2">  1       -5 0.11711478E+00 0.14035294E+03</pdfrwt>
<totfact> 0.72248574E+01</totfact>
</mgrwt>
</event>
<event>
 8    1  0.1865596E-007  0.1651340E+03  0.7546771E-02  0.1183022E+00
         -5   -1    0    0    0  501 -0.00000000000E+00  0.00000000000E+00  0.89067716023E+02  0.89191636590E+02  0.47000000000E+01 0. -1.
          5   -1    0    0  501    0  0.00000000000E+00 -0.00000000000E+00 -0.31122249131E+03  0.31125797836E+03  0.47000000000E+01 0. -1.
         25    2    1    2    0    0  0.43434402925E+02  0.98774107825E+02 -0.84633910096E+02  0.18555143521E+03  0.12499425841E+03 0.  0.
         25    2    1    2    0    0 -0.43434402925E+02 -0.98774107825E+02 -0.13752086519E+03  0.21489817975E+03  0.12500547013E+03 0.  0.
          5    1    3    3  502    0  0.82899744935E+02  0.62021021673E+02 -0.28320826757E+02  0.10743897835E+03  0.47000000000E+01 0.  1.
         -5    1    3    3    0  502 -0.39465342010E+02  0.36753086152E+02 -0.56313083339E+02  0.78112456860E+02  0.47000000000E+01 0.  1.
          5    1    4    4  503    0 -0.37748502084E+02 -0.54230807195E+02 -0.15335652579E+03  0.16705162035E+03  0.47000000000E+01 0. -1.
         -5    1    4    4    0  503 -0.56859008414E+01 -0.44543300629E+02  0.15835660605E+02  0.47846559397E+02  0.47000000000E+01 0. -1.
<mgrwt>
<rscale>  0 0.16513188E+03</rscale>
<asrwt>0</asrwt>
<pdfrwt beam="2">  1        5 0.47892645E-01 0.16513400E+03</pdfrwt>
<pdfrwt beam="1">  1       -5 0.13714988E-01 0.16513400E+03</pdfrwt>
<totfact> 0.14699409E+02</totfact>
</mgrwt>
</event>
<event>
 8    1  0.1865596E-007  0.1476699E+03  0.7546771E-02  0.1203374E+00
          5   -1    0    0  501    0  0.00000000000E+00  0.00000000000E+00  0.75964940389E+02  0.76110197532E+02  0.47000000000E+01 0. -1.
         -5   -1    0    0    0  501 -0.00000000000E+00 -0.00000000000E+00 -0.29291451664E+03  0.29295222146E+03  0.47000000000E+01 0. -1.
         25    2    1    2    0    0 -0.65755827506E+02 -0.43002570250E+02 -0.13562902057E+03  0.20050345733E+03  0.12503341666E+03 0.  0.
         25    2    1    2    0    0  0.65755827506E+02  0.43002570250E+02 -0.81320555681E+02  0.16855896166E+03  0.12500416346E+03 0.  0.
          5    1    4    4  502    0 -0.28393270503E+02  0.41992736159E+02 -0.14257739749E+02  0.52867200065E+02  0.47000000000E+01 0.  1.
         -5    1    4    4    0  502  0.94149098009E+02  0.10098340908E+01 -0.67062815932E+02  0.11569176160E+03  0.47000000000E+01 0.  1.
          5    1    3    3  503    0 -0.10123204308E+03 -0.46849604319E+02 -0.10077967545E+03  0.15040427173E+03  0.47000000000E+01 0. -1.
         -5    1    3    3    0  503  0.35476215571E+02  0.38470340695E+01 -0.34849345120E+02  0.50099185599E+02  0.47000000000E+01 0. -1.
<mgrwt>
<rscale>  0 0.14766373E+03</rscale>
<asrwt>0</asrwt>
<pdfrwt beam="1">  1        5 0.11700988E-01 0.14766992E+03</pdfrwt>
<pdfrwt beam="2">  1       -5 0.45077845E-01 0.14766992E+03</pdfrwt>
<totfact> 0.21386175E+02</totfact>
</mgrwt>
</event>
<event>
 8    1  0.1865596E-007  0.1271134E+03  0.7546771E-02  0.1231803E+00
         -5   -1    0    0    0  501 -0.00000000000E+00  0.00000000000E+00  0.39567850164E+02  0.39846013183E+02  0.47000000000E+01 0. -1.
          5   -1    0    0  501    0  0.00000000000E+00 -0.00000000000E+00 -0.42685604050E+03  0.42688191495E+03  0.47000000000E+01 0. -1.
         25    2    1    2    0    0 -0.20367010418E+02 -0.10883215518E+02 -0.14286738451E+03  0.19123001334E+03  0.12499827580E+03 0.  0.
         25    2    1    2    0    0  0.20367010418E+02  0.10883215518E+02 -0.24442080582E+03  0.27549791479E+03  0.12499724493E+03 0.  0.
          5    1    4    4  502    0  0.28802014474E+00  0.41586333791E+02 -0.17137389820E+02  0.45224841002E+02  0.47000000000E+01 0.  1.
         -5    1    4    4    0  502  0.20078990273E+02 -0.30703118273E+02 -0.22728341600E+03  0.23027307379E+03  0.47000000000E+01 0.  1.
          5    1    3    3  503    0 -0.50692572146E+02 -0.91134933773E+01 -0.73125095634E+01  0.52233661833E+02  0.47000000000E+01 0. -1.
         -5    1    3    3    0  503  0.30325561728E+02 -0.17697221409E+01 -0.13555487495E+03  0.13899635151E+03  0.47000000000E+01 0. -1.
<mgrwt>
<rscale>  0 0.12711319E+03</rscale>
<asrwt>0</asrwt>
<pdfrwt beam="2">  1        5 0.65693544E-01 0.12711345E+03</pdfrwt>
<pdfrwt beam="1">  1       -5 0.61107493E-02 0.12711345E+03</pdfrwt>
<totfact> 0.27670299E+02</totfact>
</mgrwt>
</event>
<event>
 8    1  0.1865596E-007  0.1751255E+03  0.7546771E-02  0.1172606E+00
          5   -1    0    0  501    0  0.00000000000E+00  0.00000000000E+00  0.94958207531E+02  0.95074450708E+02  0.47000000000E+01 0. -1.
         -5   -1    0    0    0  501 -0.00000000000E+00 -0.00000000000E+00 -0.32308213589E+03  0.32311632044E+03  0.47000000000E+01 0. -1.
         25    2    1    2    0    0  0.51229150699E+02  0.11144313847E+03 -0.12179580526E+03  0.21331374224E+03  0.12499814181E+03 0.  0.
         25    2    1    2    0    0 -0.51229150699E+02 -0.11144313847E+03 -0.10632812310E+03  0.20487702890E+03  0.12499971287E+03 0.  0.
          5    1    3    3  502    0 -0.24974451468E+02 -0.58970040387E+01  0.23639652137E+01  0.26194965438E+02  0.47000000000E+01 0.  1.
         -5    1    3    3    0  502  0.76203602167E+02  0.11734014251E+03 -0.12415977048E+03  0.18711877680E+03  0.47000000000E+01 0.  1.
          5    1    4    4  503    0 -0.34197832683E+02 -0.13115214208E+03 -0.53502103022E+02  0.14579074442E+03  0.47000000000E+01 0.  1.
         -5    1    4    4    0  503 -0.17031318016E+02  0.19709003607E+02 -0.52826020077E+02  0.59086284481E+02  0.47000000000E+01 0.  1.
<mgrwt>
<rscale>  0 0.17512518E+03</rscale>
<asrwt>0</asrwt>
<pdfrwt beam="1">  1        5 0.14620527E-01 0.17512546E+03</pdfrwt>
<pdfrwt beam="2">  1       -5 0.49716515E-01 0.17512546E+03</pdfrwt>
<totfact> 0.12312111E+02</totfact>
</mgrwt>
</event>
<event>
 8    1  0.1865596E-007  0.1302559E+03  0.7546771E-02  0.1227078E+00
          5   -1    0    0  501    0  0.00000000000E+00  0.00000000000E+00  0.46015888738E+03  0.46018288933E+03  0.47000000000E+01 0. -1.
         -5   -1    0    0    0  501 -0.00000000000E+00 -0.00000000000E+00 -0.37993793818E+02  0.38283395470E+02  0.47000000000E+01 0. -1.
         25    2    1    2    0    0  0.12225245994E+02 -0.34520958955E+02  0.16519977074E+03  0.21037293617E+03  0.12499861909E+03 0.  0.
         25    2    1    2    0    0 -0.12225245994E+02  0.34520958955E+02  0.25696532282E+03  0.28809334863E+03  0.12500178857E+03 0.  0.
          5    1    3    3  502    0  0.61836379378E+02  0.41134486940E+01  0.53053865259E+02  0.81715732229E+02  0.47000000000E+01 0.  1.
         -5    1    3    3    0  502 -0.49611133385E+02 -0.38634407649E+02  0.11214590548E+03  0.12865720394E+03  0.47000000000E+01 0.  1.
          5    1    4    4  503    0 -0.37891200379E+02  0.60795479219E+02  0.23342356827E+03  0.24421401594E+03  0.47000000000E+01 0.  1.
         -5    1    4    4    0  503  0.25665954386E+02 -0.26274520263E+02  0.23541754549E+02  0.43879332685E+02  0.47000000000E+01 0.  1.
<mgrwt>
<rscale>  0 0.13025514E+03</rscale>
<asrwt>0</asrwt>
<pdfrwt beam="1">  1        5 0.70817800E-01 0.13025590E+03</pdfrwt>
<pdfrwt beam="2">  1       -5 0.58693223E-02 0.13025590E+03</pdfrwt>
<totfact> 0.25246032E+02</totfact>
</mgrwt>
</event>
<event>
 8    1  0.1865596E-007  0.1296014E+03  0.7546771E-02  0.1228068E+00
         -5   -1    0    0    0  501 -0.00000000000E+00  0.00000000000E+00  0.34173184888E+02  0.34494877379E+02  0.47000000000E+01 0. -1.
          5   -1    0    0  501    0  0.00000000000E+00 -0.00000000000E+00 -0.48999318663E+03  0.49001572724E+03  0.47000000000E+01 0. -1.
         25    2    1    2    0    0  0.24338334130E+02  0.23895585594E+02 -0.21436858831E+03  0.25050031598E+03  0.12503264827E+03 0.  0.
         25    2    1    2    0    0 -0.24338334130E+02 -0.23895585594E+02 -0.24145141343E+03  0.27401028863E+03  0.12497799691E+03 0.  0.
          5    1    4    4  502    0  0.12581287733E+02 -0.32604846700E+02 -0.23196192468E+03  0.23462691519E+03  0.47000000000E+01 0. -1.
         -5    1    4    4    0  502 -0.36919621863E+02  0.87092611060E+01 -0.94894887506E+01  0.39383373450E+02  0.47000000000E+01 0. -1.
          5    1    3    3  503    0 -0.27369490912E+02 -0.39006912441E+02 -0.85297271444E+02  0.97817906166E+02  0.47000000000E+01 0.  1.
         -5    1    3    3    0  503  0.51707825042E+02  0.62902498035E+02 -0.12907131687E+03  0.15268240982E+03  0.47000000000E+01 0.  1.
<mgrwt>
<rscale>  0 0.12958819E+03</rscale>
<asrwt>0</asrwt>
<pdfrwt beam="2">  1        5 0.75410041E-01 0.12960138E+03</pdfrwt>
<pdfrwt beam="1">  1       -5 0.52838929E-02 0.12960138E+03</pdfrwt>
<totfact> 0.26045168E+02</totfact>
</mgrwt>
</event>
<event>
 8    1  0.1865596E-007  0.1492105E+03  0.7546771E-02  0.1201447E+00
          5   -1    0    0  501    0  0.00000000000E+00  0.00000000000E+00  0.32800260618E+03  0.32803627796E+03  0.47000000000E+01 0.  1.
         -5   -1    0    0    0  501 -0.00000000000E+00 -0.00000000000E+00 -0.68815139835E+02  0.68975455566E+02  0.47000000000E+01 0.  1.
         25    2    1    2    0    0 -0.64213636012E+02  0.50153609389E+02  0.15416834342E+03  0.21454863567E+03  0.12499785345E+03 0.  0.
         25    2    1    2    0    0  0.64213636012E+02 -0.50153609389E+02  0.10501912292E+03  0.18246309786E+03  0.12499996127E+03 0.  0.
          5    1    3    3  502    0 -0.45738686576E+02  0.48449085078E+02  0.81592549275E+01  0.67290450552E+02  0.47000000000E+01 0.  1.
         -5    1    3    3    0  502 -0.18474949436E+02  0.17045243113E+01  0.14600908849E+03  0.14725818511E+03  0.47000000000E+01 0.  1.
          5    1    4    4  503    0 -0.28198992366E+02 -0.15565800692E+02 -0.68050347715E+01  0.33254711243E+02  0.47000000000E+01 0.  1.
         -5    1    4    4    0  503  0.92412628378E+02 -0.34587808697E+02  0.11182415769E+03  0.14920838662E+03  0.47000000000E+01 0.  1.
<mgrwt>
<rscale>  0 0.14921003E+03</rscale>
<asrwt>0</asrwt>
<pdfrwt beam="1">  1        5 0.50476862E-01 0.14921048E+03</pdfrwt>
<pdfrwt beam="2">  1       -5 0.10601867E-01 0.14921048E+03</pdfrwt>
<totfact> 0.20122687E+02</totfact>
</mgrwt>
</event>
<event>
 8    1  0.1865596E-007  0.1506445E+03  0.7546771E-02  0.1199685E+00
         -5   -1    0    0    0  501 -0.00000000000E+00  0.00000000000E+00  0.14813679743E+02  0.15541399793E+02  0.47000000000E+01 0. -1.
          5   -1    0    0  501    0  0.00000000000E+00 -0.00000000000E+00 -0.15648029017E+04  0.15648099601E+04  0.47000000000E+01 0. -1.
         25    2    1    2    0    0  0.42675899763E+02  0.72440260502E+02 -0.60749598653E+03  0.62589545961E+03  0.12499971579E+03 0.  0.
         25    2    1    2    0    0 -0.42675899763E+02 -0.72440260502E+02 -0.94249323543E+03  0.95445590027E+03  0.12499497175E+03 0.  0.
          5    1    4    4  502    0  0.42764495310E+02 -0.41116856223E+02 -0.36766149816E+03  0.37244659369E+03  0.47000000000E+01 0. -1.
         -5    1    4    4    0  502 -0.85440395072E+02 -0.31323404279E+02 -0.57483173728E+03  0.58200930658E+03  0.47000000000E+01 0. -1.
          5    1    3    3  503    0  0.57231292528E+02  0.94755644541E+02 -0.35335786397E+03  0.37032137806E+03  0.47000000000E+01 0.  1.
         -5    1    3    3    0  503 -0.14555392765E+02 -0.22315384039E+02 -0.25413812256E+03  0.25557408155E+03  0.47000000000E+01 0.  1.
<mgrwt>
<rscale>  0 0.15064347E+03</rscale>
<asrwt>0</asrwt>
<pdfrwt beam="2">  1        5 0.24079530E+00 0.15064446E+03</pdfrwt>
<pdfrwt beam="1">  1       -5 0.23355503E-02 0.15064446E+03</pdfrwt>
<totfact> 0.43963383E+01</totfact>
</mgrwt>
</event>
<event>
 8    1  0.1865596E-007  0.1375185E+03  0.7546771E-02  0.1216709E+00
          5   -1    0    0  501    0  0.00000000000E+00  0.00000000000E+00  0.54947134717E+03  0.54949144794E+03  0.47000000000E+01 0.  1.
         -5   -1    0    0    0  501 -0.00000000000E+00 -0.00000000000E+00 -0.34299799909E+02  0.34620315911E+02  0.47000000000E+01 0.  1.
         25    2    1    2    0    0 -0.24466628911E+02 -0.51836481530E+02  0.24498242392E+03  0.28093939294E+03  0.12499967091E+03 0.  0.
         25    2    1    2    0    0  0.24466628911E+02  0.51836481530E+02  0.27018912334E+03  0.30317237091E+03  0.12500274943E+03 0.  0.
          5    1    3    3  502    0 -0.74504991305E+02 -0.43182311763E+02  0.16240068114E+03  0.18387978957E+03  0.47000000000E+01 0. -1.
         -5    1    3    3    0  502  0.50038362394E+02 -0.86541697675E+01  0.82581742779E+02  0.97059603368E+02  0.47000000000E+01 0. -1.
          5    1    4    4  503    0  0.36254308373E+02 -0.29731933950E+02  0.53507203764E+02  0.71298482639E+02  0.47000000000E+01 0. -1.
         -5    1    4    4    0  503 -0.11787679463E+02  0.81568415480E+02  0.21668191957E+03  0.23187388827E+03  0.47000000000E+01 0. -1.
<mgrwt>
<rscale>  0 0.13751775E+03</rscale>
<asrwt>0</asrwt>
<pdfrwt beam="1">  1        5 0.84560247E-01 0.13751845E+03</pdfrwt>
<pdfrwt beam="2">  1       -5 0.53030941E-02 0.13751845E+03</pdfrwt>
<totfact> 0.20275803E+02</totfact>
</mgrwt>
</event>
<event>
 8    1  0.1865596E-007  0.1412255E+03  0.7546771E-02  0.1211690E+00
         -5   -1    0    0    0  501 -0.00000000000E+00  0.00000000000E+00  0.34180489515E+03  0.34183720738E+03  0.47000000000E+01 0. -1.
          5   -1    0    0  501    0  0.00000000000E+00 -0.00000000000E+00 -0.64567022753E+02  0.64737859303E+02  0.47000000000E+01 0. -1.
         25    2    1    2    0    0  0.54388160359E+02 -0.36895730602E+02  0.20225315302E+03  0.24667990646E+03  0.12500108569E+03 0.  0.
         25    2    1    2    0    0 -0.54388160359E+02  0.36895730602E+02  0.74984719384E+02  0.15989516022E+03  0.12499754877E+03 0.  0.
          5    1    4    4  502    0  0.31641372605E+02  0.42111448013E+02  0.41845811283E+02  0.67436729132E+02  0.47000000000E+01 0.  1.
         -5    1    4    4    0  502 -0.86029532963E+02 -0.52157174111E+01  0.33138908101E+02  0.92458431093E+02  0.47000000000E+01 0.  1.
          5    1    3    3  503    0  0.53384951826E+02 -0.69625798290E+02  0.76021327567E+02  0.11618535671E+03  0.47000000000E+01 0. -1.
         -5    1    3    3    0  503  0.10032085326E+01  0.32730067688E+02  0.12623182545E+03  0.13049454975E+03  0.47000000000E+01 0. -1.
<mgrwt>
<rscale>  0 0.14122470E+03</rscale>
<asrwt>0</asrwt>
<pdfrwt beam="2">  1        5 0.99490149E-02 0.14122549E+03</pdfrwt>
<pdfrwt beam="1">  1       -5 0.52600996E-01 0.14122549E+03</pdfrwt>
<totfact> 0.20226960E+02</totfact>
</mgrwt>
</event>
<event>
 8    1  0.1865596E-007  0.1824822E+03  0.7546771E-02  0.1165422E+00
          5   -1    0    0  501    0  0.00000000000E+00  0.00000000000E+00  0.42423230080E+02  0.42682788691E+02  0.47000000000E+01 0.  1.
         -5   -1    0    0    0  501 -0.00000000000E+00 -0.00000000000E+00 -0.80015756512E+03  0.80017136854E+03  0.47000000000E+01 0.  1.
         25    2    1    2    0    0 -0.70140956508E+02  0.11293700447E+03 -0.44185435761E+03  0.47805338543E+03  0.12500098090E+03 0.  0.
         25    2    1    2    0    0  0.70140956508E+02 -0.11293700447E+03 -0.31587997744E+03  0.36480077180E+03  0.12499968880E+03 0.  0.
          5    1    4    4  502    0  0.95202283568E+02 -0.80999451973E+02 -0.15693791047E+03  0.20068877337E+03  0.47000000000E+01 0.  1.
         -5    1    4    4    0  502 -0.25061327060E+02 -0.31937552497E+02 -0.15894206697E+03  0.16411199842E+03  0.47000000000E+01 0.  1.
          5    1    3    3  503    0 -0.78644399624E+02  0.13614283368E+03 -0.38381508357E+03  0.41479624050E+03  0.47000000000E+01 0. -1.
         -5    1    3    3    0  503  0.85034431158E+01 -0.23205829213E+02 -0.58039274038E+02  0.63257144933E+02  0.47000000000E+01 0. -1.
<mgrwt>
<rscale>  0 0.18248201E+03</rscale>
<asrwt>0</asrwt>
<pdfrwt beam="1">  1        5 0.65476792E-02 0.18248223E+03</pdfrwt>
<pdfrwt beam="2">  1       -5 0.12312218E+00 0.18248223E+03</pdfrwt>
<totfact> 0.61602289E+01</totfact>
</mgrwt>
</event>
<event>
 8    1  0.1865596E-007  0.1534545E+03  0.7546771E-02  0.1196298E+00
          5   -1    0    0  501    0  0.00000000000E+00  0.00000000000E+00  0.10415919270E+03  0.10426517839E+03  0.47000000000E+01 0.  1.
         -5   -1    0    0    0  501 -0.00000000000E+00 -0.00000000000E+00 -0.24773994468E+03  0.24778452371E+03  0.47000000000E+01 0.  1.
         25    2    1    2    0    0 -0.12896513823E+02  0.88072428516E+02 -0.12415067240E+03  0.19736998212E+03  0.12497378785E+03 0.  0.
         25    2    1    2    0    0  0.12896513823E+02 -0.88072428516E+02 -0.19430079577E+02  0.15467971998E+03  0.12500086019E+03 0.  0.
          5    1    3    3  502    0  0.26678073867E+02 -0.10281448513E+02 -0.75032890601E+02  0.80432906703E+02  0.47000000000E+01 0.  1.
         -5    1    3    3    0  502 -0.39574587691E+02  0.98353877029E+02 -0.49117781797E+02  0.11693707541E+03  0.47000000000E+01 0.  1.
          5    1    4    4  503    0  0.49383034158E+02 -0.90794437502E+02  0.14605877797E+02  0.10448796873E+03  0.47000000000E+01 0. -1.
         -5    1    4    4    0  503 -0.36486520335E+02  0.27220089855E+01 -0.34035957374E+02  0.50191751249E+02  0.47000000000E+01 0. -1.
<mgrwt>
<rscale>  0 0.15344900E+03</rscale>
<asrwt>0</asrwt>
<pdfrwt beam="1">  1        5 0.16036073E-01 0.15345451E+03</pdfrwt>
<pdfrwt beam="2">  1       -5 0.38125419E-01 0.15345451E+03</pdfrwt>
<totfact> 0.17355295E+02</totfact>
</mgrwt>
</event>
<event>
 8    1  0.1865596E-007  0.1275465E+03  0.7546771E-02  0.1231146E+00
         -5   -1    0    0    0  501 -0.00000000000E+00  0.00000000000E+00  0.15205045986E+03  0.15212308288E+03  0.47000000000E+01 0. -1.
          5   -1    0    0  501    0  0.00000000000E+00 -0.00000000000E+00 -0.11773903824E+03  0.11783281006E+03  0.47000000000E+01 0. -1.
         25    2    1    2    0    0  0.23628598651E+02  0.91246649868E+01  0.58203637448E+02  0.14019091943E+03  0.12499704114E+03 0.  0.
         25    2    1    2    0    0 -0.23628598651E+02 -0.91246649868E+01 -0.23892215829E+02  0.12976497351E+03  0.12500616060E+03 0.  0.
          5    1    3    3  502    0  0.32938181283E+02  0.63679704410E+02  0.29483348111E+02  0.77662000720E+02  0.47000000000E+01 0.  1.
         -5    1    3    3    0  502 -0.93095826313E+01 -0.54555039424E+02  0.28720289337E+02  0.62528918709E+02  0.47000000000E+01 0.  1.
          5    1    4    4  503    0  0.23186287182E+02  0.12681251105E+02  0.39566540686E+02  0.47812332977E+02  0.47000000000E+01 0. -1.
         -5    1    4    4    0  503 -0.46814885833E+02 -0.21805916092E+02 -0.63458756515E+02  0.81952640534E+02  0.47000000000E+01 0. -1.
<mgrwt>
<rscale>  0 0.12754427E+03</rscale>
<asrwt>0</asrwt>
<pdfrwt beam="2">  1        5 0.18126498E-01 0.12754650E+03</pdfrwt>
<pdfrwt beam="1">  1       -5 0.23405178E-01 0.12754650E+03</pdfrwt>
<totfact> 0.33913729E+02</totfact>
</mgrwt>
</event>
<event>
 8    1  0.1865596E-007  0.1419958E+03  0.7546771E-02  0.1210670E+00
         -5   -1    0    0    0  501 -0.00000000000E+00  0.00000000000E+00  0.14029259012E+03  0.14037129636E+03  0.47000000000E+01 0.  1.
          5   -1    0    0  501    0  0.00000000000E+00 -0.00000000000E+00 -0.14539729030E+03  0.14547323474E+03  0.47000000000E+01 0.  1.
         25    2    1    2    0    0  0.47826323524E+02  0.47439738326E+02  0.13520978721E+02  0.14263812396E+03  0.12499972619E+03 0.  0.
         25    2    1    2    0    0 -0.47826323524E+02 -0.47439738326E+02 -0.18625678898E+02  0.14320640714E+03  0.12499309236E+03 0.  0.
          5    1    4    4  502    0  0.11741566279E+02 -0.56735445833E+02  0.30180668534E+02  0.65496091072E+02  0.47000000000E+01 0. -1.
         -5    1    4    4    0  502 -0.59567889803E+02  0.92957075078E+01 -0.48806347433E+02  0.77710316068E+02  0.47000000000E+01 0. -1.
          5    1    3    3  503    0  0.20108103378E+01  0.22917571633E+02  0.65139417631E+02  0.69242271605E+02  0.47000000000E+01 0. -1.
         -5    1    3    3    0  503  0.45815513186E+02  0.24522166693E+02 -0.51618438910E+02  0.73395852357E+02  0.47000000000E+01 0. -1.
<mgrwt>
<rscale>  0 0.14199438E+03</rscale>
<asrwt>0</asrwt>
<pdfrwt beam="2">  1        5 0.22380710E-01 0.14199584E+03</pdfrwt>
<pdfrwt beam="1">  1       -5 0.21595372E-01 0.14199584E+03</pdfrwt>
<totfact> 0.27660467E+02</totfact>
</mgrwt>
</event>
<event>
 8    1  0.1865596E-007  0.1268910E+03  0.7546771E-02  0.1232151E+00
          5   -1    0    0  501    0  0.00000000000E+00  0.00000000000E+00  0.60185957223E+03  0.60187792341E+03  0.47000000000E+01 0.  1.
         -5   -1    0    0    0  501 -0.00000000000E+00 -0.00000000000E+00 -0.26616716170E+02  0.27028495698E+02  0.47000000000E+01 0.  1.
         25    2    1    2    0    0  0.36474312009E+01  0.21462454831E+02  0.26908410803E+03  0.29749351390E+03  0.12498877110E+03 0.  0.
         25    2    1    2    0    0 -0.36474312009E+01 -0.21462454831E+02  0.30615874803E+03  0.33141290520E+03  0.12500957570E+03 0.  0.
          5    1    3    3  502    0  0.31260912747E+02  0.23155478049E+02  0.26644153248E+03  0.26930763275E+03  0.47000000000E+01 0.  1.
         -5    1    3    3    0  502 -0.27613481546E+02 -0.16930232176E+01  0.26425755485E+01  0.28185881151E+02  0.47000000000E+01 0.  1.
          5    1    4    4  503    0 -0.22896160448E+02  0.48367561000E+02  0.11470386858E+03  0.12665986968E+03  0.47000000000E+01 0.  1.
         -5    1    4    4    0  503  0.19248729248E+02 -0.69830015831E+02  0.19145487946E+03  0.20475303552E+03  0.47000000000E+01 0.  1.
<mgrwt>
<rscale>  0 0.12688591E+03</rscale>
<asrwt>0</asrwt>
<pdfrwt beam="1">  1        5 0.92626856E-01 0.12689103E+03</pdfrwt>
<pdfrwt beam="2">  1       -5 0.41279669E-02 0.12689103E+03</pdfrwt>
<totfact> 0.24065427E+02</totfact>
</mgrwt>
</event>
<event>
 8    1  0.1865596E-007  0.1687114E+03  0.7546771E-02  0.1179204E+00
          5   -1    0    0  501    0  0.00000000000E+00  0.00000000000E+00  0.15093875059E+03  0.15101190824E+03  0.47000000000E+01 0.  1.
         -5   -1    0    0    0  501 -0.00000000000E+00 -0.00000000000E+00 -0.21470307894E+03  0.21475451591E+03  0.47000000000E+01 0.  1.
         25    2    1    2    0    0 -0.11183368005E+03 -0.18198976483E+02 -0.95869551936E+02  0.19402743835E+03  0.12497080102E+03 0.  0.
         25    2    1    2    0    0  0.11183368005E+03  0.18198976483E+02  0.32105223588E+02  0.17173898579E+03  0.12500223647E+03 0.  0.
          5    1    3    3  502    0 -0.12335156521E+03 -0.49931474482E+02 -0.65583512419E+02  0.14843196383E+03  0.47000000000E+01 0.  1.
         -5    1    3    3    0  502  0.11517885159E+02  0.31732497999E+02 -0.30286039517E+02  0.45595474528E+02  0.47000000000E+01 0.  1.
          5    1    4    4  503    0  0.12742068384E+03  0.28670029213E+02 -0.40221600212E+01  0.13075270176E+03  0.47000000000E+01 0. -1.
         -5    1    4    4    0  503 -0.15587003792E+02 -0.10471052730E+02  0.36127383609E+02  0.40986284035E+02  0.47000000000E+01 0. -1.
<mgrwt>
<rscale>  0 0.16870557E+03</rscale>
<asrwt>0</asrwt>
<pdfrwt beam="1">  1        5 0.23230931E-01 0.16871139E+03</pdfrwt>
<pdfrwt beam="2">  1       -5 0.33040827E-01 0.16871139E+03</pdfrwt>
<totfact> 0.11948135E+02</totfact>
</mgrwt>
</event>
<event>
 8    1  0.1865596E-007  0.1412673E+03  0.7546771E-02  0.1211636E+00
          5   -1    0    0  501    0  0.00000000000E+00  0.00000000000E+00  0.67613525506E+02  0.67776683538E+02  0.47000000000E+01 0. -1.
         -5   -1    0    0    0  501 -0.00000000000E+00 -0.00000000000E+00 -0.30034859479E+03  0.30038536648E+03  0.47000000000E+01 0. -1.
         25    2    1    2    0    0 -0.65626585390E+02 -0.49066504414E+01 -0.14181459757E+03  0.20016947520E+03  0.12500205914E+03 0.  0.
         25    2    1    2    0    0  0.65626585390E+02  0.49066504414E+01 -0.90920471712E+02  0.16799257481E+03  0.12499619629E+03 0.  0.
          5    1    4    4  502    0 -0.27356915895E+02 -0.11541727266E+02 -0.62361927957E+02  0.69229418415E+02  0.47000000000E+01 0.  1.
         -5    1    4    4    0  502  0.92983501284E+02  0.16448377707E+02 -0.28558543756E+02  0.98763156398E+02  0.47000000000E+01 0.  1.
          5    1    3    3  503    0 -0.39030257162E+02  0.48632674704E+02 -0.12186313534E+03  0.13697157288E+03  0.47000000000E+01 0. -1.
         -5    1    3    3    0  503 -0.26596328228E+02 -0.53539325145E+02 -0.19951462230E+02  0.63197902317E+02  0.47000000000E+01 0. -1.
<mgrwt>
<rscale>  0 0.14126596E+03</rscale>
<asrwt>0</asrwt>
<pdfrwt beam="1">  1        5 0.10417460E-01 0.14126726E+03</pdfrwt>
<pdfrwt beam="2">  1       -5 0.46222855E-01 0.14126726E+03</pdfrwt>
<totfact> 0.24536336E+02</totfact>
</mgrwt>
</event>
<event>
 8    1  0.1865596E-007  0.1253376E+03  0.7546771E-02  0.1234545E+00
         -5   -1    0    0    0  501 -0.00000000000E+00  0.00000000000E+00  0.11990453348E+03  0.11999661308E+03  0.47000000000E+01 0. -1.
          5   -1    0    0  501    0  0.00000000000E+00 -0.00000000000E+00 -0.13505472600E+03  0.13513648292E+03  0.47000000000E+01 0. -1.
         25    2    1    2    0    0  0.74199310776E+01  0.54415256021E+01  0.14982142716E+02  0.12622983360E+03  0.12499936284E+03 0.  0.
         25    2    1    2    0    0 -0.74199310776E+01 -0.54415256021E+01 -0.30132335235E+02  0.12890326240E+03  0.12499371125E+03 0.  0.
          5    1    3    3  502    0  0.91303924627E+01 -0.47639619649E+02 -0.29350784993E+02  0.56889858556E+02  0.47000000000E+01 0.  1.
         -5    1    3    3    0  502 -0.17104613851E+01  0.53081145251E+02  0.44332927709E+02  0.69339975040E+02  0.47000000000E+01 0.  1.
          5    1    4    4  503    0 -0.52624066402E+01 -0.39701400092E+02 -0.67070201573E+02  0.78258520508E+02  0.47000000000E+01 0.  1.
         -5    1    4    4    0  503 -0.21575244374E+01  0.34259874490E+02  0.36937866339E+02  0.50644741893E+02  0.47000000000E+01 0.  1.
<mgrwt>
<rscale>  0 0.12533616E+03</rscale>
<asrwt>0</asrwt>
<pdfrwt beam="2">  1        5 0.20791022E-01 0.12533757E+03</pdfrwt>
<pdfrwt beam="1">  1       -5 0.18460223E-01 0.12533757E+03</pdfrwt>
<totfact> 0.40727184E+02</totfact>
</mgrwt>
</event>
<event>
 8    1  0.1865596E-007  0.1579200E+03  0.7546771E-02  0.1191067E+00
          5   -1    0    0  501    0  0.00000000000E+00  0.00000000000E+00  0.28777066392E+03  0.28780904262E+03  0.47000000000E+01 0. -1.
         -5   -1    0    0    0  501 -0.00000000000E+00 -0.00000000000E+00 -0.86624385119E+02  0.86751795931E+02  0.47000000000E+01 0. -1.
         25    2    1    2    0    0 -0.82760681037E+02  0.49643887301E+02  0.95120350714E+02  0.18434982026E+03  0.12499251673E+03 0.  0.
         25    2    1    2    0    0  0.82760681037E+02 -0.49643887301E+02  0.10602592809E+03  0.19021101829E+03  0.12499955272E+03 0.  0.
          5    1    3    3  502    0 -0.83075459635E+02 -0.21723328161E+02  0.45423077892E+02  0.97256264503E+02  0.47000000000E+01 0.  1.
         -5    1    3    3    0  502  0.31477859834E+00  0.71367215462E+02  0.49697272822E+02  0.87093555757E+02  0.47000000000E+01 0.  1.
          5    1    4    4  503    0  0.99794392674E+02 -0.33597588272E+01  0.40006434172E+02  0.10766992878E+03  0.47000000000E+01 0. -1.
         -5    1    4    4    0  503 -0.17033711637E+02 -0.46284128474E+02  0.66019493919E+02  0.82541089513E+02  0.47000000000E+01 0. -1.
<mgrwt>
<rscale>  0 0.15791863E+03</rscale>
<asrwt>0</asrwt>
<pdfrwt beam="1">  1        5 0.44285162E-01 0.15792002E+03</pdfrwt>
<pdfrwt beam="2">  1       -5 0.13339582E-01 0.15792002E+03</pdfrwt>
<totfact> 0.17959788E+02</totfact>
</mgrwt>
</event>
<event>
 8    1  0.1865596E-007  0.1579338E+03  0.7546771E-02  0.1191050E+00
         -5   -1    0    0    0  501 -0.00000000000E+00  0.00000000000E+00  0.28648200241E+02  0.29031179395E+02  0.47000000000E+01 0.  1.
          5   -1    0    0  501    0  0.00000000000E+00 -0.00000000000E+00 -0.95840109277E+03  0.95841261711E+03  0.47000000000E+01 0.  1.
         25    2    1    2    0    0 -0.86749238703E+02 -0.42337860566E+02 -0.31036139115E+03  0.34823452254E+03  0.12500065887E+03 0.  0.
         25    2    1    2    0    0  0.86749238703E+02  0.42337860566E+02 -0.61939150139E+03  0.63920927396E+03  0.12499895632E+03 0.  0.
          5    1    3    3  502    0 -0.11429498740E+03 -0.54310410046E+02 -0.26393861290E+03  0.29274331105E+03  0.47000000000E+01 0.  1.
         -5    1    3    3    0  502  0.27545748696E+02  0.11972549480E+02 -0.46422778247E+02  0.55491211488E+02  0.47000000000E+01 0.  1.
          5    1    4    4  503    0  0.10218290307E+03  0.25646606033E+02 -0.28287614986E+03  0.30189418716E+03  0.47000000000E+01 0. -1.
         -5    1    4    4    0  503 -0.15433664370E+02  0.16691254533E+02 -0.33651535153E+03  0.33731508681E+03  0.47000000000E+01 0. -1.
<mgrwt>
<rscale>  0 0.15793348E+03</rscale>
<asrwt>0</asrwt>
<pdfrwt beam="2">  1        5 0.14747664E+00 0.15793381E+03</pdfrwt>
<pdfrwt beam="1">  1       -5 0.44377626E-02 0.15793381E+03</pdfrwt>
<totfact> 0.70381336E+01</totfact>
</mgrwt>
</event>
<event>
 8    1  0.1865596E-007  0.1513593E+03  0.7546771E-02  0.1198813E+00
          5   -1    0    0  501    0  0.00000000000E+00  0.00000000000E+00  0.15251473766E+03  0.15258713970E+03  0.47000000000E+01 0.  1.
         -5   -1    0    0    0  501 -0.00000000000E+00 -0.00000000000E+00 -0.17139706841E+03  0.17146149731E+03  0.47000000000E+01 0.  1.
         25    2    1    2    0    0 -0.61123916050E+02  0.59568448406E+02 -0.66574691793E+02  0.16535332828E+03  0.12500000171E+03 0.  0.
         25    2    1    2    0    0  0.61123916050E+02 -0.59568448406E+02  0.47692361036E+02  0.15869530873E+03  0.12500042621E+03 0.  0.
          5    1    4    4  502    0 -0.24180396591E+02 -0.20769922906E+02 -0.24358925824E+02  0.40392184196E+02  0.47000000000E+01 0. -1.
         -5    1    4    4    0  502  0.85304312641E+02 -0.38798525500E+02  0.72051286860E+02  0.11830312453E+03  0.47000000000E+01 0. -1.
          5    1    3    3  503    0 -0.21773106132E+02  0.48434775755E+02  0.29430308042E+02  0.60895227108E+02  0.47000000000E+01 0.  1.
         -5    1    3    3    0  503 -0.39350809918E+02  0.11133672651E+02 -0.96004999835E+02  0.10445810118E+03  0.47000000000E+01 0.  1.
<mgrwt>
<rscale>  0 0.15135922E+03</rscale>
<asrwt>0</asrwt>
<pdfrwt beam="1">  1        5 0.23474331E-01 0.15135931E+03</pdfrwt>
<pdfrwt beam="2">  1       -5 0.26379305E-01 0.15135931E+03</pdfrwt>
<totfact> 0.17619289E+02</totfact>
</mgrwt>
</event>
<event>
 8    1  0.1865596E-007  0.1483319E+03  0.7546771E-02  0.1202538E+00
         -5   -1    0    0    0  501 -0.00000000000E+00  0.00000000000E+00  0.18160905138E+03  0.18166985866E+03  0.47000000000E+01 0.  1.
          5   -1    0    0  501    0  0.00000000000E+00 -0.00000000000E+00 -0.12496947460E+03  0.12505782495E+03  0.47000000000E+01 0.  1.
         25    2    1    2    0    0 -0.39728796011E+02  0.69279858182E+02  0.55550558296E+02  0.15839183438E+03  0.12499613069E+03 0.  0.
         25    2    1    2    0    0  0.39728796011E+02 -0.69279858182E+02  0.10890184896E+01  0.14833584923E+03  0.12499704886E+03 0.  0.
          5    1    4    4  502    0  0.11859819278E+02  0.15012813805E+02 -0.44323295296E+02  0.48504478118E+02  0.47000000000E+01 0. -1.
         -5    1    4    4    0  502  0.27868976734E+02 -0.84292671987E+02  0.45412313786E+02  0.99831371113E+02  0.47000000000E+01 0. -1.
          5    1    3    3  503    0 -0.95309236394E+01  0.93188290590E+02  0.40100018472E+01  0.93877932036E+02  0.47000000000E+01 0. -1.
         -5    1    3    3    0  503 -0.30197872372E+02 -0.23908432408E+02  0.51540556449E+02  0.64513902339E+02  0.47000000000E+01 0. -1.
<mgrwt>
<rscale>  0 0.14833166E+03</rscale>
<asrwt>0</asrwt>
<pdfrwt beam="2">  1        5 0.19237547E-01 0.14833185E+03</pdfrwt>
<pdfrwt beam="1">  1       -5 0.27951327E-01 0.14833185E+03</pdfrwt>
<totfact> 0.22754148E+02</totfact>
</mgrwt>
</event>
<event>
 8    1  0.1865596E-007  0.1351709E+03  0.7546771E-02  0.1219981E+00
          5   -1    0    0  501    0  0.00000000000E+00  0.00000000000E+00  0.94830357028E+02  0.94946756732E+02  0.47000000000E+01 0.  1.
         -5   -1    0    0    0  501 -0.00000000000E+00 -0.00000000000E+00 -0.24579682098E+03  0.24584175236E+03  0.47000000000E+01 0.  1.
         25    2    1    2    0    0  0.41594687124E+02  0.30253452805E+02 -0.15487447168E+03  0.20556109088E+03  0.12499548273E+03 0.  0.
         25    2    1    2    0    0 -0.41594687124E+02 -0.30253452805E+02  0.39080077245E+01  0.13522741822E+03  0.12500317080E+03 0.  0.
          5    1    3    3  502    0  0.64681522752E+02 -0.24600723697E+02 -0.11317942094E+03  0.13274248120E+03  0.47000000000E+01 0. -1.
         -5    1    3    3    0  502 -0.23086835628E+02  0.54854176502E+02 -0.41695050741E+02  0.72818609677E+02  0.47000000000E+01 0. -1.
          5    1    4    4  503    0 -0.81131875169E+02 -0.22778047248E+01 -0.15633008490E+02  0.82789193239E+02  0.47000000000E+01 0.  1.
         -5    1    4    4    0  503  0.39537188045E+02 -0.27975648080E+02  0.19541016214E+02  0.52438224976E+02  0.47000000000E+01 0.  1.
<mgrwt>
<rscale>  0 0.13516916E+03</rscale>
<asrwt>0</asrwt>
<pdfrwt beam="1">  1        5 0.14601696E-01 0.13517094E+03</pdfrwt>
<pdfrwt beam="2">  1       -5 0.37827305E-01 0.13517094E+03</pdfrwt>
<totfact> 0.20045258E+02</totfact>
</mgrwt>
</event>
<event>
 8    1  0.1865596E-007  0.1354543E+03  0.7546771E-02  0.1219590E+00
         -5   -1    0    0    0  501 -0.00000000000E+00  0.00000000000E+00  0.12203826321E+04  0.12203916825E+04  0.47000000000E+01 0.  1.
          5   -1    0    0  501    0  0.00000000000E+00 -0.00000000000E+00 -0.16092043636E+02  0.16764363047E+02  0.47000000000E+01 0.  1.
         25    2    1    2    0    0 -0.49300857338E+02 -0.17045176437E+02  0.78311197030E+03  0.79474035602E+03  0.12500705137E+03 0.  0.
         25    2    1    2    0    0  0.49300857338E+02  0.17045176437E+02  0.42117861821E+03  0.44241568957E+03  0.12497640326E+03 0.  0.
          5    1    4    4  502    0 -0.29441797541E+02  0.16832958588E+01  0.27425455748E+02  0.40545018811E+02  0.47000000000E+01 0.  1.
         -5    1    4    4    0  502  0.78742654879E+02  0.15361880578E+02  0.39375316246E+03  0.40187067076E+03  0.47000000000E+01 0.  1.
          5    1    3    3  503    0 -0.71725268500E+01  0.49740438809E+02  0.19922226016E+03  0.20551680062E+03  0.47000000000E+01 0.  1.
         -5    1    3    3    0  503 -0.42128330488E+02 -0.66785615246E+02  0.58388971014E+03  0.58922355540E+03  0.47000000000E+01 0.  1.
<mgrwt>
<rscale>  0 0.13544726E+03</rscale>
<asrwt>0</asrwt>
<pdfrwt beam="2">  1        5 0.25281114E-02 0.13545433E+03</pdfrwt>
<pdfrwt beam="1">  1       -5 0.18780364E+00 0.13545433E+03</pdfrwt>
<totfact> 0.84252595E+01</totfact>
</mgrwt>
</event>
<event>
 8    1  0.1865596E-007  0.1273228E+03  0.7546771E-02  0.1231492E+00
         -5   -1    0    0    0  501 -0.00000000000E+00  0.00000000000E+00  0.34841291817E+02  0.35156871526E+02  0.47000000000E+01 0.  1.
          5   -1    0    0  501    0  0.00000000000E+00 -0.00000000000E+00 -0.50691840848E+03  0.50694019653E+03  0.47000000000E+01 0.  1.
         25    2    1    2    0    0  0.24184307196E+02  0.67388781224E+00 -0.15606457760E+03  0.20139921598E+03  0.12498062641E+03 0.  0.
         25    2    1    2    0    0 -0.24184307196E+02 -0.67388781224E+00 -0.31601253907E+03  0.34069785207E+03  0.12500306685E+03 0.  0.
          5    1    3    3  502    0  0.85384835030E+01 -0.61807757111E+02 -0.71959812817E+02  0.95359368707E+02  0.47000000000E+01 0. -1.
         -5    1    3    3    0  502  0.15645823693E+02  0.62481644923E+02 -0.84104764779E+02  0.10603984727E+03  0.47000000000E+01 0. -1.
          5    1    4    4  503    0 -0.28398923452E+02  0.13441570659E+02 -0.32240451660E+03  0.32396595037E+03  0.47000000000E+01 0. -1.
         -5    1    4    4    0  503  0.42146162563E+01 -0.14115458471E+02  0.63919775286E+01  0.16731901708E+02  0.47000000000E+01 0. -1.
<mgrwt>
<rscale>  0 0.12731732E+03</rscale>
<asrwt>0</asrwt>
<pdfrwt beam="2">  1        5 0.78013393E-01 0.12732282E+03</pdfrwt>
<pdfrwt beam="1">  1       -5 0.53861505E-02 0.12732282E+03</pdfrwt>
<totfact> 0.23192311E+02</totfact>
</mgrwt>
</event>
<event>
 8    1  0.1865596E-007  0.1473442E+03  0.7546771E-02  0.1203778E+00
          5   -1    0    0  501    0  0.00000000000E+00  0.00000000000E+00  0.58198281875E+03  0.58200179666E+03  0.47000000000E+01 0.  1.
         -5   -1    0    0    0  501 -0.00000000000E+00 -0.00000000000E+00 -0.46567100363E+02  0.46803684003E+02  0.47000000000E+01 0.  1.
         25    2    1    2    0    0 -0.52625487816E+02 -0.57577552192E+02  0.12662863465E+03  0.19427447743E+03  0.12499257971E+03 0.  0.
         25    2    1    2    0    0  0.52625487816E+02  0.57577552192E+02  0.40878708373E+03  0.43453100324E+03  0.12500278583E+03 0.  0.
          5    1    3    3  502    0  0.23423518561E+02 -0.48606607562E+02  0.10620219998E+02  0.55191870717E+02  0.47000000000E+01 0. -1.
         -5    1    3    3    0  502 -0.76049006378E+02 -0.89709446297E+01  0.11600841465E+03  0.13908260671E+03  0.47000000000E+01 0. -1.
          5    1    4    4  503    0 -0.21942911450E+02  0.66934645744E+01  0.97221463075E+01  0.25355550866E+02  0.47000000000E+01 0. -1.
         -5    1    4    4    0  503  0.74568399266E+02  0.50884087617E+02  0.39906493743E+03  0.40917545237E+03  0.47000000000E+01 0. -1.
<mgrwt>
<rscale>  0 0.14734203E+03</rscale>
<asrwt>0</asrwt>
<pdfrwt beam="1">  1        5 0.89555479E-01 0.14734420E+03</pdfrwt>
<pdfrwt beam="2">  1       -5 0.71838277E-02 0.14734420E+03</pdfrwt>
<totfact> 0.10860210E+02</totfact>
</mgrwt>
</event>
<event>
 8    1  0.1865596E-007  0.1330214E+03  0.7546771E-02  0.1223049E+00
         -5   -1    0    0    0  501 -0.00000000000E+00  0.00000000000E+00  0.38555743679E+02  0.38841155630E+02  0.47000000000E+01 0.  1.
          5   -1    0    0  501    0  0.00000000000E+00 -0.00000000000E+00 -0.45879073844E+03  0.45881481197E+03  0.47000000000E+01 0.  1.
         25    2    1    2    0    0 -0.37682081190E+02 -0.25354511975E+02 -0.19402578789E+03  0.23524605752E+03  0.12502763971E+03 0.  0.
         25    2    1    2    0    0  0.37682081190E+02  0.25354511975E+02 -0.22620920687E+03  0.26240991008E+03  0.12500226043E+03 0.  0.
          5    1    4    4  502    0  0.46286716813E+02  0.14241264412E+02 -0.15334116263E+02  0.51014692853E+02  0.47000000000E+01 0. -1.
         -5    1    4    4    0  502 -0.86046356228E+01  0.11113247563E+02 -0.21087509061E+03  0.21139521722E+03  0.47000000000E+01 0. -1.
          5    1    3    3  503    0 -0.74974978321E+02 -0.20569145938E+02 -0.17763736170E+03  0.19396252064E+03  0.47000000000E+01 0. -1.
         -5    1    3    3    0  503  0.37292897131E+02 -0.47853660364E+01 -0.16388426185E+02  0.41283536881E+02  0.47000000000E+01 0. -1.
<mgrwt>
<rscale>  0 0.13301547E+03</rscale>
<asrwt>0</asrwt>
<pdfrwt beam="2">  1        5 0.70606993E-01 0.13302143E+03</pdfrwt>
<pdfrwt beam="1">  1       -5 0.59554598E-02 0.13302143E+03</pdfrwt>
<totfact> 0.24988106E+02</totfact>
</mgrwt>
</event>
<event>
 8    1  0.1865596E-007  0.1250202E+03  0.7546771E-02  0.1235040E+00
          5   -1    0    0  501    0  0.00000000000E+00  0.00000000000E+00  0.18473165349E+03  0.18479143324E+03  0.47000000000E+01 0. -1.
         -5   -1    0    0    0  501 -0.00000000000E+00 -0.00000000000E+00 -0.84947954443E+02  0.85077875879E+02  0.47000000000E+01 0. -1.
         25    2    1    2    0    0 -0.17447235395E+01  0.10991159686E+01  0.39737088222E+02  0.13117667318E+03  0.12499612511E+03 0.  0.
         25    2    1    2    0    0  0.17447235395E+01 -0.10991159686E+01  0.60046610821E+02  0.13869263594E+03  0.12500319866E+03 0.  0.
          5    1    4    4  502    0  0.33637327151E+02  0.37927041974E+02  0.70543766155E+02  0.86996800137E+02  0.47000000000E+01 0. -1.
         -5    1    4    4    0  502 -0.31892603611E+02 -0.39026157943E+02 -0.10497155334E+02  0.51695835799E+02  0.47000000000E+01 0. -1.
          5    1    3    3  503    0 -0.26884028540E+02 -0.15590747410E+02 -0.37022486393E+02  0.48565181911E+02  0.47000000000E+01 0. -1.
         -5    1    3    3    0  503  0.25139305000E+02  0.16689863379E+02  0.76759574615E+02  0.82611491274E+02  0.47000000000E+01 0. -1.
<mgrwt>
<rscale>  0 0.12501844E+03</rscale>
<asrwt>0</asrwt>
<pdfrwt beam="1">  1        5 0.28434847E-01 0.12502021E+03</pdfrwt>
<pdfrwt beam="2">  1       -5 0.13083509E-01 0.12502021E+03</pdfrwt>
<totfact> 0.41822768E+02</totfact>
</mgrwt>
</event>
<event>
 8    1  0.1865596E-007  0.1290324E+03  0.7546771E-02  0.1228901E+00
          5   -1    0    0  501    0  0.00000000000E+00  0.00000000000E+00  0.97736798138E+03  0.97737928207E+03  0.47000000000E+01 0.  1.
         -5   -1    0    0    0  501 -0.00000000000E+00 -0.00000000000E+00 -0.16932593263E+02  0.17572783349E+02  0.47000000000E+01 0.  1.
         25    2    1    2    0    0 -0.31784299335E+02  0.37439907129E+01  0.42280383049E+03  0.44205329684E+03  0.12499511599E+03 0.  0.
         25    2    1    2    0    0  0.31784299335E+02 -0.37439907129E+01  0.53763155762E+03  0.55289876858E+03  0.12500038956E+03 0.  0.
          5    1    3    3  502    0 -0.65818211205E+02  0.74375098449E+00  0.38606184475E+03  0.39166111380E+03  0.47000000000E+01 0. -1.
         -5    1    3    3    0  502  0.34033911869E+02  0.30002397284E+01  0.36741985742E+02  0.50392183043E+02  0.47000000000E+01 0. -1.
          5    1    4    4  503    0 -0.22321296427E+02  0.13481450198E+02  0.22893471806E+02  0.35017007652E+02  0.47000000000E+01 0.  1.
         -5    1    4    4    0  503  0.54105595762E+02 -0.17225440911E+02  0.51473808582E+03  0.51788176092E+03  0.47000000000E+01 0.  1.
<mgrwt>
<rscale>  0 0.12903111E+03</rscale>
<asrwt>0</asrwt>
<pdfrwt beam="1">  1        5 0.15041442E+00 0.12903239E+03</pdfrwt>
<pdfrwt beam="2">  1       -5 0.26551290E-02 0.12903239E+03</pdfrwt>
<totfact> 0.14459971E+02</totfact>
</mgrwt>
</event>
<event>
 8    1  0.1865596E-007  0.1521551E+03  0.7546771E-02  0.1197853E+00
          5   -1    0    0  501    0  0.00000000000E+00  0.00000000000E+00  0.23770134453E+03  0.23774780586E+03  0.47000000000E+01 0.  1.
         -5   -1    0    0    0  501 -0.00000000000E+00 -0.00000000000E+00 -0.98978705562E+02  0.99090232388E+02  0.47000000000E+01 0.  1.
         25    2    1    2    0    0 -0.31900382249E+02  0.80674122188E+02  0.47292088709E+02  0.15932541883E+03  0.12498839567E+03 0.  0.
         25    2    1    2    0    0  0.31900382249E+02 -0.80674122188E+02  0.91430550263E+02  0.17751261943E+03  0.12500094462E+03 0.  0.
          5    1    3    3  502    0 -0.71600203298E+02  0.17749755430E+02  0.61395672230E+01  0.74171606534E+02  0.47000000000E+01 0.  1.
         -5    1    3    3    0  502  0.39699821050E+02  0.62924366758E+02  0.41152521486E+02  0.85153812293E+02  0.47000000000E+01 0.  1.
          5    1    4    4  503    0 -0.45247543358E+02 -0.33434876977E+02  0.13568092543E+02  0.58063881317E+02  0.47000000000E+01 0. -1.
         -5    1    4    4    0  503  0.77147925606E+02 -0.47239245212E+02  0.77862457719E+02  0.11944873811E+03  0.47000000000E+01 0. -1.
<mgrwt>
<rscale>  0 0.15215256E+03</rscale>
<asrwt>0</asrwt>
<pdfrwt beam="1">  1        5 0.36581590E-01 0.15215513E+03</pdfrwt>
<pdfrwt beam="2">  1       -5 0.15239646E-01 0.15215513E+03</pdfrwt>
<totfact> 0.20649681E+02</totfact>
</mgrwt>
</event>
<event>
 8    1  0.1865596E-007  0.1276115E+03  0.7546771E-02  0.1231044E+00
         -5   -1    0    0    0  501 -0.00000000000E+00  0.00000000000E+00  0.32616600068E+03  0.32619986204E+03  0.47000000000E+01 0. -1.
          5   -1    0    0  501    0  0.00000000000E+00 -0.00000000000E+00 -0.49779911511E+02  0.50001295884E+02  0.47000000000E+01 0. -1.
         25    2    1    2    0    0 -0.14934790041E+01 -0.25640450533E+02  0.13835378724E+03  0.18821813184E+03  0.12499852611E+03 0.  0.
         25    2    1    2    0    0  0.14934790041E+01  0.25640450533E+02  0.13803230193E+03  0.18798302608E+03  0.12500015415E+03 0.  0.
          5    1    4    4  502    0 -0.66930560294E+01 -0.13187883215E+02  0.14634730713E+03  0.14716773276E+03  0.47000000000E+01 0. -1.
         -5    1    4    4    0  502  0.81865350334E+01  0.38828333749E+02 -0.83150051984E+01  0.40815293322E+02  0.47000000000E+01 0. -1.
          5    1    3    3  503    0  0.23918002470E+02 -0.65246268065E+02  0.11736997994E+03  0.13648057932E+03  0.47000000000E+01 0. -1.
         -5    1    3    3    0  503 -0.25411481474E+02  0.39605817532E+02  0.20983807294E+02  0.51737552528E+02  0.47000000000E+01 0. -1.
<mgrwt>
<rscale>  0 0.12761113E+03</rscale>
<asrwt>0</asrwt>
<pdfrwt beam="2">  1        5 0.76780822E-02 0.12761153E+03</pdfrwt>
<pdfrwt beam="1">  1       -5 0.50199019E-01 0.12761153E+03</pdfrwt>
<totfact> 0.33731418E+02</totfact>
</mgrwt>
</event>
<event>
 8    1  0.1865596E-007  0.1288572E+03  0.7546771E-02  0.1229162E+00
          5   -1    0    0  501    0  0.00000000000E+00  0.00000000000E+00  0.33539593775E+03  0.33542886736E+03  0.47000000000E+01 0.  1.
         -5   -1    0    0    0  501 -0.00000000000E+00 -0.00000000000E+00 -0.49554766373E+02  0.49777152091E+02  0.47000000000E+01 0.  1.
         25    2    1    2    0    0 -0.31232063449E+02 -0.21793497535E+01  0.15500116054E+03  0.20156702573E+03  0.12499485886E+03 0.  0.
         25    2    1    2    0    0  0.31232063449E+02  0.21793497535E+01  0.13084001084E+03  0.18363899372E+03  0.12499592084E+03 0.  0.
          5    1    4    4  502    0  0.20886933679E+02 -0.93360751276E+01 -0.20717391879E+02  0.31220612159E+02  0.47000000000E+01 0. -1.
         -5    1    4    4    0  502  0.10345129770E+02  0.11515424881E+02  0.15155740272E+03  0.15241838156E+03  0.47000000000E+01 0. -1.
          5    1    3    3  503    0 -0.39423389207E+02  0.27553822223E+02  0.16245597821E+03  0.16949174491E+03  0.47000000000E+01 0.  1.
         -5    1    3    3    0  503  0.81913257579E+01 -0.29733171977E+02 -0.74548176698E+01  0.32075280824E+02  0.47000000000E+01 0.  1.
<mgrwt>
<rscale>  0 0.12885692E+03</rscale>
<asrwt>0</asrwt>
<pdfrwt beam="1">  1        5 0.51619014E-01 0.12885718E+03</pdfrwt>
<pdfrwt beam="2">  1       -5 0.76434500E-02 0.12885718E+03</pdfrwt>
<totfact> 0.32152169E+02</totfact>
</mgrwt>
</event>
<event>
 8    1  0.1865596E-007  0.1828644E+03  0.7546771E-02  0.1165060E+00
          5   -1    0    0  501    0  0.00000000000E+00  0.00000000000E+00  0.34246896090E+03  0.34250121048E+03  0.47000000000E+01 0. -1.
         -5   -1    0    0    0  501 -0.00000000000E+00 -0.00000000000E+00 -0.10022289770E+03  0.10033304153E+03  0.47000000000E+01 0. -1.
         25    2    1    2    0    0 -0.40144391633E+02  0.12728844121E+03  0.84973443556E+02  0.20164123159E+03  0.12499912288E+03 0.  0.
         25    2    1    2    0    0  0.40144391633E+02 -0.12728844121E+03  0.15727261965E+03  0.24119302042E+03  0.12500190704E+03 0.  0.
          5    1    4    4  502    0  0.43527111961E+02 -0.13806853406E+03  0.17013457218E+03  0.22343990741E+03  0.47000000000E+01 0.  1.
         -5    1    4    4    0  502 -0.33827203286E+01  0.10780092848E+02 -0.12861952533E+02  0.17753113012E+02  0.47000000000E+01 0.  1.
          5    1    3    3  503    0 -0.46840013283E+02  0.64636045149E+02 -0.16934263405E+02  0.81735331736E+02  0.47000000000E+01 0. -1.
         -5    1    3    3    0  503  0.66956216503E+01  0.62652396059E+02  0.10190770696E+03  0.11990589985E+03  0.47000000000E+01 0. -1.
<mgrwt>
<rscale>  0 0.18286394E+03</rscale>
<asrwt>0</asrwt>
<pdfrwt beam="1">  1        5 0.52698486E-01 0.18286442E+03</pdfrwt>
<pdfrwt beam="2">  1       -5 0.15429861E-01 0.18286442E+03</pdfrwt>
<totfact> 0.99806826E+01</totfact>
</mgrwt>
</event>
<event>
 8    1  0.1865596E-007  0.1311039E+03  0.7546771E-02  0.1225843E+00
         -5   -1    0    0    0  501 -0.00000000000E+00  0.00000000000E+00  0.44830395456E+02  0.45076095181E+02  0.47000000000E+01 0.  1.
          5   -1    0    0  501    0  0.00000000000E+00 -0.00000000000E+00 -0.38208151794E+03  0.38211042429E+03  0.47000000000E+01 0.  1.
         25    2    1    2    0    0  0.33933923457E+02  0.20179032784E+02 -0.17233513997E+03  0.21653549702E+03  0.12501806460E+03 0.  0.
         25    2    1    2    0    0 -0.33933923457E+02 -0.20179032784E+02 -0.16491598252E+03  0.21065102245E+03  0.12497146653E+03 0.  0.
          5    1    3    3  502    0  0.30448264539E+02  0.57710052617E+02 -0.35303827145E+02  0.74337051311E+02  0.47000000000E+01 0. -1.
         -5    1    3    3    0  502  0.34856589186E+01 -0.37531019834E+02 -0.13703131282E+03  0.14219844571E+03  0.47000000000E+01 0. -1.
          5    1    4    4  503    0 -0.74666806634E+02  0.99419328259E+01 -0.12486016933E+03  0.14589765566E+03  0.47000000000E+01 0. -1.
         -5    1    4    4    0  503  0.40732883177E+02 -0.30120965610E+02 -0.40055813184E+02  0.64753366793E+02  0.47000000000E+01 0. -1.
<mgrwt>
<rscale>  0 0.13109275E+03</rscale>
<asrwt>0</asrwt>
<pdfrwt beam="2">  1        5 0.58802893E-01 0.13110386E+03</pdfrwt>
<pdfrwt beam="1">  1       -5 0.69181077E-02 0.13110386E+03</pdfrwt>
<totfact> 0.28958367E+02</totfact>
</mgrwt>
</event>
<event>
 8    1  0.1865596E-007  0.1297997E+03  0.7546771E-02  0.1227759E+00
          5   -1    0    0  501    0  0.00000000000E+00  0.00000000000E+00  0.15775437126E+03  0.15782436964E+03  0.47000000000E+01 0.  1.
         -5   -1    0    0    0  501 -0.00000000000E+00 -0.00000000000E+00 -0.11028585370E+03  0.11038595711E+03  0.47000000000E+01 0.  1.
         25    2    1    2    0    0  0.29475280981E+02  0.18713110286E+02 -0.62597188183E+00  0.12980115973E+03  0.12501590515E+03 0.  0.
         25    2    1    2    0    0 -0.29475280981E+02 -0.18713110286E+02  0.48094489440E+02  0.13840916702E+03  0.12500017966E+03 0.  0.
          5    1    4    4  502    0 -0.11427104760E+02 -0.66629893127E+02  0.54003907052E+02  0.86652370759E+02  0.47000000000E+01 0.  1.
         -5    1    4    4    0  502 -0.18048176221E+02  0.47916782841E+02 -0.59094176111E+01  0.51756796262E+02  0.47000000000E+01 0.  1.
          5    1    3    3  503    0  0.76032046313E+02  0.19100115177E+02 -0.16758597166E+02  0.80303343924E+02  0.47000000000E+01 0. -1.
         -5    1    3    3    0  503 -0.46556765332E+02 -0.38700489044E+00  0.16132625284E+02  0.49497815806E+02  0.47000000000E+01 0. -1.
<mgrwt>
<rscale>  0 0.12979586E+03</rscale>
<asrwt>0</asrwt>
<pdfrwt beam="1">  1        5 0.24282988E-01 0.12979965E+03</pdfrwt>
<pdfrwt beam="2">  1       -5 0.16980139E-01 0.12979965E+03</pdfrwt>
<totfact> 0.35881649E+02</totfact>
</mgrwt>
</event>
<event>
 8    1  0.1865596E-007  0.1765236E+03  0.7546771E-02  0.1171211E+00
         -5   -1    0    0    0  501 -0.00000000000E+00  0.00000000000E+00  0.25774893623E+02  0.26199907276E+02  0.47000000000E+01 0.  1.
          5   -1    0    0  501    0  0.00000000000E+00 -0.00000000000E+00 -0.16375626753E+04  0.16375694200E+04  0.47000000000E+01 0.  1.
         25    2    1    2    0    0 -0.77190836544E+02 -0.97861744684E+02 -0.37526390622E+03  0.41470903725E+03  0.12500095980E+03 0.  0.
         25    2    1    2    0    0  0.77190836544E+02  0.97861744684E+02 -0.12365238754E+04  0.12490602901E+04  0.12499986950E+03 0.  0.
          5    1    3    3  502    0 -0.96125440407E+02 -0.71691881937E+02 -0.17745244534E+03  0.21422251653E+03  0.47000000000E+01 0.  1.
         -5    1    3    3    0  502  0.18934603863E+02 -0.26169862747E+02 -0.19781146087E+03  0.20048652073E+03  0.47000000000E+01 0.  1.
          5    1    4    4  503    0 -0.32102788091E+02  0.87261833599E+01 -0.31639647989E+03  0.31817535694E+03  0.47000000000E+01 0.  1.
         -5    1    4    4    0  503  0.10929362464E+03  0.89135561324E+02 -0.92012739555E+03  0.93088493313E+03  0.47000000000E+01 0.  1.
<mgrwt>
<rscale>  0 0.17652342E+03</rscale>
<asrwt>0</asrwt>
<pdfrwt beam="2">  1        5 0.25196585E+00 0.17652361E+03</pdfrwt>
<pdfrwt beam="1">  1       -5 0.39985817E-02 0.17652361E+03</pdfrwt>
<totfact> 0.16200539E+01</totfact>
</mgrwt>
</event>
<event>
 8    1  0.1865596E-007  0.1360668E+03  0.7546771E-02  0.1218729E+00
          5   -1    0    0  501    0  0.00000000000E+00  0.00000000000E+00  0.48455716931E+02  0.48683123393E+02  0.47000000000E+01 0.  1.
         -5   -1    0    0    0  501 -0.00000000000E+00 -0.00000000000E+00 -0.38974915950E+03  0.38977749721E+03  0.47000000000E+01 0.  1.
         25    2    1    2    0    0  0.46477995740E+02  0.26860856031E+02 -0.20367787514E+03  0.24493484764E+03  0.12500677218E+03 0.  0.
         25    2    1    2    0    0 -0.46477995740E+02 -0.26860856031E+02 -0.13761556743E+03  0.19352577296E+03  0.12502987934E+03 0.  0.
          5    1    3    3  502    0  0.29682592877E+02 -0.48855077772E+00 -0.20978555812E+03  0.21192773626E+03  0.47000000000E+01 0.  1.
         -5    1    3    3    0  502  0.16795402863E+02  0.27349406809E+02  0.61076829769E+01  0.33007111377E+02  0.47000000000E+01 0.  1.
          5    1    4    4  503    0  0.50882209608E+01 -0.68668198827E+02 -0.78330472471E+02  0.10439810554E+03  0.47000000000E+01 0.  1.
         -5    1    4    4    0  503 -0.51566216701E+02  0.41807342796E+02 -0.59285094957E+02  0.89127667425E+02  0.47000000000E+01 0.  1.
<mgrwt>
<rscale>  0 0.13606151E+03</rscale>
<asrwt>0</asrwt>
<pdfrwt beam="1">  1        5 0.74743986E-02 0.13606682E+03</pdfrwt>
<pdfrwt beam="2">  1       -5 0.59981080E-01 0.13606682E+03</pdfrwt>
<totfact> 0.24627990E+02</totfact>
</mgrwt>
</event>
<event>
 8    1  0.1865596E-007  0.1356468E+03  0.7546771E-02  0.1219315E+00
          5   -1    0    0  501    0  0.00000000000E+00  0.00000000000E+00  0.29659403411E+03  0.29663127123E+03  0.47000000000E+01 0.  1.
         -5   -1    0    0    0  501 -0.00000000000E+00 -0.00000000000E+00 -0.66215827994E+02  0.66382421445E+02  0.47000000000E+01 0.  1.
         25    2    1    2    0    0 -0.52673573709E+02 -0.68962156635E+00  0.68929259752E+02  0.15215552469E+03  0.12500031959E+03 0.  0.
         25    2    1    2    0    0  0.52673573709E+02  0.68962156635E+00  0.16144894636E+03  0.21085816798E+03  0.12498169377E+03 0.  0.
          5    1    4    4  502    0 -0.35681141957E+02 -0.23806699631E+02  0.61683347608E+02  0.75278338257E+02  0.47000000000E+01 0.  1.
         -5    1    4    4    0  502  0.88354715666E+02  0.24496321197E+02  0.99765598755E+02  0.13557982972E+03  0.47000000000E+01 0.  1.
          5    1    3    3  503    0  0.30816606091E+02 -0.32203002245E+02  0.33798498516E+02  0.56134882796E+02  0.47000000000E+01 0.  1.
         -5    1    3    3    0  503 -0.83490179800E+02  0.31513380678E+02  0.35130761236E+02  0.96020641895E+02  0.47000000000E+01 0.  1.
<mgrwt>
<rscale>  0 0.13564253E+03</rscale>
<asrwt>0</asrwt>
<pdfrwt beam="1">  1        5 0.45645531E-01 0.13564682E+03</pdfrwt>
<pdfrwt beam="2">  1       -5 0.10202730E-01 0.13564682E+03</pdfrwt>
<totfact> 0.25768247E+02</totfact>
</mgrwt>
</event>
<event>
 8    1  0.1865596E-007  0.1307772E+03  0.7546771E-02  0.1226325E+00
          5   -1    0    0  501    0  0.00000000000E+00  0.00000000000E+00  0.50611992888E+02  0.50829753335E+02  0.47000000000E+01 0.  1.
         -5   -1    0    0    0  501 -0.00000000000E+00 -0.00000000000E+00 -0.34241508786E+03  0.34244734251E+03  0.47000000000E+01 0.  1.
         25    2    1    2    0    0  0.37668776028E+02  0.69103962248E+01 -0.17102449483E+03  0.21529527590E+03  0.12504394319E+03 0.  0.
         25    2    1    2    0    0 -0.37668776028E+02 -0.69103962248E+01 -0.12077860014E+03  0.17798181995E+03  0.12499347070E+03 0.  0.
          5    1    4    4  502    0  0.81905997722E+01 -0.55518238839E+02 -0.26278633226E+02  0.62145131206E+02  0.47000000000E+01 0. -1.
         -5    1    4    4    0  502 -0.45859375800E+02  0.48607842614E+02 -0.94499966918E+02  0.11583668875E+03  0.47000000000E+01 0. -1.
          5    1    3    3  503    0 -0.23558350482E+01 -0.54887278795E+02 -0.55583100882E+02  0.78292620571E+02  0.47000000000E+01 0.  1.
         -5    1    3    3    0  503  0.40024611076E+02  0.61797675019E+02 -0.11544139395E+03  0.13700265533E+03  0.47000000000E+01 0.  1.
<mgrwt>
<rscale>  0 0.13076514E+03</rscale>
<asrwt>0</asrwt>
<pdfrwt beam="1">  1        5 0.78056926E-02 0.13077721E+03</pdfrwt>
<pdfrwt beam="2">  1       -5 0.52698475E-01 0.13077721E+03</pdfrwt>
<totfact> 0.29839852E+02</totfact>
</mgrwt>
</event>
<event>
 8    1  0.1865596E-007  0.1575231E+03  0.7546771E-02  0.1191524E+00
          5   -1    0    0  501    0  0.00000000000E+00  0.00000000000E+00  0.40917431264E+03  0.40920130513E+03  0.47000000000E+01 0. -1.
         -5   -1    0    0    0  501 -0.00000000000E+00 -0.00000000000E+00 -0.83370316477E+02  0.83502692588E+02  0.47000000000E+01 0. -1.
         25    2    1    2    0    0 -0.41238943806E+01 -0.95740103928E+02  0.34066576628E+02  0.16115573015E+03  0.12500985446E+03 0.  0.
         25    2    1    2    0    0  0.41238943806E+01  0.95740103928E+02  0.29173741953E+03  0.33154826757E+03  0.12502142923E+03 0.  0.
          5    1    4    4  502    0  0.59069267502E+02  0.63869641033E+02  0.11932075268E+03  0.14774316035E+03  0.47000000000E+01 0.  1.
         -5    1    4    4    0  502 -0.54945373122E+02  0.31870462895E+02  0.17241666685E+03  0.18380510722E+03  0.47000000000E+01 0.  1.
          5    1    3    3  503    0  0.42102422631E+02 -0.45119950710E+02 -0.28580701875E+02  0.68171625059E+02  0.47000000000E+01 0.  1.
         -5    1    3    3    0  503 -0.46226317011E+02 -0.50620153218E+02  0.62647278504E+02  0.92984105094E+02  0.47000000000E+01 0.  1.
<mgrwt>
<rscale>  0 0.15752082E+03</rscale>
<asrwt>0</asrwt>
<pdfrwt beam="1">  1        5 0.62962152E-01 0.15752312E+03</pdfrwt>
<pdfrwt beam="2">  1       -5 0.12838462E-01 0.15752312E+03</pdfrwt>
<totfact> 0.90316331E+01</totfact>
</mgrwt>
</event>
<event>
 8    1  0.1865596E-007  0.1272997E+03  0.7546771E-02  0.1231521E+00
         -5   -1    0    0    0  501 -0.00000000000E+00  0.00000000000E+00  0.10238373991E+03  0.10249156159E+03  0.47000000000E+01 0.  1.
          5   -1    0    0  501    0  0.00000000000E+00 -0.00000000000E+00 -0.15836817030E+03  0.15843789750E+03  0.47000000000E+01 0.  1.
         25    2    1    2    0    0 -0.20555679279E+02  0.12424003037E+02 -0.22097716658E+02  0.12920339174E+03  0.12501326151E+03 0.  0.
         25    2    1    2    0    0  0.20555679279E+02 -0.12424003037E+02 -0.33886713736E+02  0.13172606736E+03  0.12500622245E+03 0.  0.
          5    1    3    3  502    0 -0.62504972338E+02 -0.77616941488E+01  0.20012111879E+02  0.66254736321E+02  0.47000000000E+01 0.  1.
         -5    1    3    3    0  502  0.41949293059E+02  0.20185697186E+02 -0.42109828537E+02  0.62948655414E+02  0.47000000000E+01 0.  1.
          5    1    4    4  503    0 -0.25206140772E+02 -0.33747019149E+02  0.28694084512E+02  0.51182529442E+02  0.47000000000E+01 0.  1.
         -5    1    4    4    0  503  0.45761820051E+02  0.21323016113E+02 -0.62580798248E+02  0.80543537915E+02  0.47000000000E+01 0.  1.
<mgrwt>
<rscale>  0 0.12729795E+03</rscale>
<asrwt>0</asrwt>
<pdfrwt beam="2">  1        5 0.24377992E-01 0.12729968E+03</pdfrwt>
<pdfrwt beam="1">  1       -5 0.15765002E-01 0.12729968E+03</pdfrwt>
<totfact> 0.40488260E+02</totfact>
</mgrwt>
</event>
<event>
 8    1  0.1865596E-007  0.1765839E+03  0.7546771E-02  0.1171151E+00
         -5   -1    0    0    0  501 -0.00000000000E+00  0.00000000000E+00  0.38580244055E+03  0.38583106813E+03  0.47000000000E+01 0. -1.
          5   -1    0    0  501    0  0.00000000000E+00 -0.00000000000E+00 -0.81220900974E+02  0.81356774488E+02  0.47000000000E+01 0. -1.
         25    2    1    2    0    0  0.11891710029E+03 -0.37621874978E+02  0.17057400368E+03  0.24551265362E+03  0.12499716052E+03 0.  0.
         25    2    1    2    0    0 -0.11891710029E+03  0.37621874978E+02  0.13400753591E+03  0.22167518900E+03  0.12500075008E+03 0.  0.
          5    1    4    4  502    0 -0.14413908134E+03  0.21387117867E+02  0.11654517079E+03  0.18665034266E+03  0.47000000000E+01 0.  1.
         -5    1    4    4    0  502  0.25221981044E+02  0.16234757111E+02  0.17462365115E+02  0.35024846347E+02  0.47000000000E+01 0.  1.
          5    1    3    3  503    0  0.36790260161E+02  0.57387445757E+00 -0.14168747445E+02  0.39707631240E+02  0.47000000000E+01 0.  1.
         -5    1    3    3    0  503  0.82126840132E+02 -0.38195749436E+02  0.18474275112E+03  0.20580502238E+03  0.47000000000E+01 0.  1.
<mgrwt>
<rscale>  0 0.17658325E+03</rscale>
<asrwt>0</asrwt>
<pdfrwt beam="2">  1        5 0.12508177E-01 0.17658389E+03</pdfrwt>
<pdfrwt beam="1">  1       -5 0.59366876E-01 0.17658389E+03</pdfrwt>
<totfact> 0.11141762E+02</totfact>
</mgrwt>
</event>
<event>
 8    1  0.1865596E-007  0.1261986E+03  0.7546771E-02  0.1233210E+00
          5   -1    0    0  501    0  0.00000000000E+00  0.00000000000E+00  0.35557946991E+02  0.35867221725E+02  0.47000000000E+01 0. -1.
         -5   -1    0    0    0  501 -0.00000000000E+00 -0.00000000000E+00 -0.44697619360E+03  0.44700090340E+03  0.47000000000E+01 0. -1.
         25    2    1    2    0    0  0.12085972094E+02 -0.12366682327E+02 -0.21907085747E+03  0.25282036492E+03  0.12500836280E+03 0.  0.
         25    2    1    2    0    0 -0.12085972094E+02  0.12366682327E+02 -0.19234738913E+03  0.23004776021E+03  0.12500179326E+03 0.  0.
          5    1    3    3  502    0  0.55150916952E+02  0.29714240442E+02 -0.84281036919E+02  0.10511870866E+03  0.47000000000E+01 0.  1.
         -5    1    3    3    0  502 -0.43064944858E+02 -0.42080922769E+02 -0.13478982055E+03  0.14770165626E+03  0.47000000000E+01 0.  1.
          5    1    4    4  503    0  0.27957764265E+01  0.33190415627E+02  0.22547513598E+01  0.33713409187E+02  0.47000000000E+01 0.  1.
         -5    1    4    4    0  503 -0.14881748521E+02 -0.20823733299E+02 -0.19460214049E+03  0.19633435102E+03  0.47000000000E+01 0.  1.
<mgrwt>
<rscale>  0 0.12619701E+03</rscale>
<asrwt>0</asrwt>
<pdfrwt beam="1">  1        5 0.54961448E-02 0.12619864E+03</pdfrwt>
<pdfrwt beam="2">  1       -5 0.68791255E-01 0.12619864E+03</pdfrwt>
<totfact> 0.29736380E+02</totfact>
</mgrwt>
</event>
<event>
 8    1  0.1865596E-007  0.1833195E+03  0.7546771E-02  0.1164629E+00
         -5   -1    0    0    0  501 -0.00000000000E+00  0.00000000000E+00  0.10439074591E+02  0.11448330810E+02  0.47000000000E+01 0. -1.
          5   -1    0    0  501    0  0.00000000000E+00 -0.00000000000E+00 -0.32208967451E+04  0.32209001742E+04  0.47000000000E+01 0. -1.
         25    2    1    2    0    0 -0.86812263491E+02 -0.10219349493E+03 -0.12551819953E+04  0.12684979463E+04  0.12500127551E+03 0.  0.
         25    2    1    2    0    0  0.86812263491E+02  0.10219349493E+03 -0.19552756752E+04  0.19638505588E+04  0.12500468691E+03 0.  0.
          5    1    4    4  502    0 -0.27234352420E+02  0.25093790371E+02 -0.22259282224E+03  0.22570126889E+03  0.47000000000E+01 0. -1.
         -5    1    4    4    0  502  0.11404661591E+03  0.77099704557E+02 -0.17326828529E+04  0.17381492899E+04  0.47000000000E+01 0. -1.
          5    1    3    3  503    0  0.27984394765E+02 -0.40422673836E+02 -0.24498955191E+03  0.24991816552E+03  0.47000000000E+01 0. -1.
         -5    1    3    3    0  503 -0.11479665826E+03 -0.61770821091E+02 -0.10101924434E+04  0.10185797808E+04  0.47000000000E+01 0. -1.
<mgrwt>
<rscale>  0 0.18331895E+03</rscale>
<asrwt>0</asrwt>
<pdfrwt beam="2">  1        5 0.49559972E+00 0.18331953E+03</pdfrwt>
<pdfrwt beam="1">  1       -5 0.16839129E-02 0.18331953E+03</pdfrwt>
<totfact> 0.13366654E+00</totfact>
</mgrwt>
</event>
<event>
 8    1  0.1865596E-007  0.1275418E+03  0.7546771E-02  0.1231151E+00
         -5   -1    0    0    0  501 -0.00000000000E+00  0.00000000000E+00  0.98578719337E+02  0.98690698174E+02  0.47000000000E+01 0. -1.
          5   -1    0    0  501    0  0.00000000000E+00 -0.00000000000E+00 -0.17061823900E+03  0.17068296189E+03  0.47000000000E+01 0. -1.
         25    2    1    2    0    0 -0.19404608463E+02 -0.16245451623E+02 -0.11093447488E+02  0.12801833147E+03  0.12500070035E+03 0.  0.
         25    2    1    2    0    0  0.19404608463E+02  0.16245451623E+02 -0.60946072177E+02  0.14135532859E+03  0.12500580659E+03 0.  0.
          5    1    3    3  502    0 -0.23302201722E+02  0.49786561828E+02  0.14325120151E+02  0.56999942203E+02  0.47000000000E+01 0. -1.
         -5    1    3    3    0  502  0.38975932598E+01 -0.66032013450E+02 -0.25418567639E+02  0.71018389269E+02  0.47000000000E+01 0. -1.
          5    1    4    4  503    0  0.31710891222E+02 -0.25039233345E+02 -0.83220986352E+02  0.92630267181E+02  0.47000000000E+01 0.  1.
         -5    1    4    4    0  503 -0.12306282760E+02  0.41284684967E+02  0.22274914175E+02  0.48725061413E+02  0.47000000000E+01 0.  1.
<mgrwt>
<rscale>  0 0.12754053E+03</rscale>
<asrwt>0</asrwt>
<pdfrwt beam="2">  1        5 0.26262552E-01 0.12754178E+03</pdfrwt>
<pdfrwt beam="1">  1       -5 0.15179549E-01 0.12754178E+03</pdfrwt>
<totfact> 0.37624492E+02</totfact>
</mgrwt>
</event>
<event>
 8    1  0.1865596E-007  0.1588292E+03  0.7546771E-02  0.1190026E+00
          5   -1    0    0  501    0  0.00000000000E+00  0.00000000000E+00  0.20671248726E+03  0.20676591206E+03  0.47000000000E+01 0. -1.
         -5   -1    0    0    0  501 -0.00000000000E+00 -0.00000000000E+00 -0.14698181726E+03  0.14705694341E+03  0.47000000000E+01 0. -1.
         25    2    1    2    0    0  0.61712790689E+02  0.76114762625E+02 -0.43150324930E+02  0.16458430311E+03  0.12499646661E+03 0.  0.
         25    2    1    2    0    0 -0.61712790689E+02 -0.76114762625E+02  0.10288099493E+03  0.18923855236E+03  0.12499921982E+03 0.  0.
          5    1    4    4  502    0  0.24810455062E+02 -0.15071928544E+02  0.73626335392E+02  0.79282084822E+02  0.47000000000E+01 0. -1.
         -5    1    4    4    0  502 -0.86523245751E+02 -0.61042834081E+02  0.29254659537E+02  0.10995646753E+03  0.47000000000E+01 0. -1.
          5    1    3    3  503    0  0.11477613472E+02  0.49333758641E+01  0.41151062177E+02  0.43261688903E+02  0.47000000000E+01 0.  1.
         -5    1    3    3    0  503  0.50235177217E+02  0.71181386761E+02 -0.84301387107E+02  0.12132261421E+03  0.47000000000E+01 0.  1.
<mgrwt>
<rscale>  0 0.15882871E+03</rscale>
<asrwt>0</asrwt>
<pdfrwt beam="1">  1        5 0.31811810E-01 0.15882925E+03</pdfrwt>
<pdfrwt beam="2">  1       -5 0.22622476E-01 0.15882925E+03</pdfrwt>
<totfact> 0.13306565E+02</totfact>
</mgrwt>
</event>
<event>
 8    1  0.1865596E-007  0.1250775E+03  0.7546771E-02  0.1234951E+00
         -5   -1    0    0    0  501 -0.00000000000E+00  0.00000000000E+00  0.26716773308E+03  0.26720907095E+03  0.47000000000E+01 0. -1.
          5   -1    0    0  501    0  0.00000000000E+00 -0.00000000000E+00 -0.67508207880E+02  0.67671619836E+02  0.47000000000E+01 0. -1.
         25    2    1    2    0    0  0.36679424711E+01 -0.23937019138E+01  0.16118990340E+03  0.20402082993E+03  0.12499252168E+03 0.  0.
         25    2    1    2    0    0 -0.36679424711E+01  0.23937019138E+01  0.38469621801E+02  0.13085986086E+03  0.12500083108E+03 0.  0.
          5    1    4    4  502    0  0.10015171245E+01  0.46187391644E+02  0.64506058801E+02  0.79482072227E+02  0.47000000000E+01 0.  1.
         -5    1    4    4    0  502 -0.46694595956E+01 -0.43793689731E+02 -0.26036437000E+02  0.51377788633E+02  0.47000000000E+01 0.  1.
          5    1    3    3  503    0  0.52543793596E+02  0.31924726223E+02  0.10566343319E+03  0.12233923943E+03  0.47000000000E+01 0. -1.
         -5    1    3    3    0  503 -0.48875851125E+02 -0.34318428137E+02  0.55526470207E+02  0.81681590500E+02  0.47000000000E+01 0. -1.
<mgrwt>
<rscale>  0 0.12507547E+03</rscale>
<asrwt>0</asrwt>
<pdfrwt beam="2">  1        5 0.10401628E-01 0.12507754E+03</pdfrwt>
<pdfrwt beam="1">  1       -5 0.41118478E-01 0.12507754E+03</pdfrwt>
<totfact> 0.30039220E+02</totfact>
</mgrwt>
</event>
<event>
 8    1  0.1865596E-007  0.1284491E+03  0.7546771E-02  0.1229777E+00
         -5   -1    0    0    0  501 -0.00000000000E+00  0.00000000000E+00  0.26891235178E+02  0.27298874142E+02  0.47000000000E+01 0.  1.
          5   -1    0    0  501    0  0.00000000000E+00 -0.00000000000E+00 -0.60853380024E+03  0.60855195016E+03  0.47000000000E+01 0.  1.
         25    2    1    2    0    0  0.22500767407E+02 -0.19144529671E+02 -0.28840285385E+03  0.31571408504E+03  0.12500551921E+03 0.  0.
         25    2    1    2    0    0 -0.22500767407E+02  0.19144529671E+02 -0.29323971122E+03  0.32013673926E+03  0.12500082415E+03 0.  0.
          5    1    3    3  502    0 -0.38635574720E+02 -0.67137398297E+01 -0.21791622664E+03  0.22146637164E+03  0.47000000000E+01 0.  1.
         -5    1    3    3    0  502  0.61136342127E+02 -0.12430789842E+02 -0.70486627212E+02  0.94247713397E+02  0.47000000000E+01 0.  1.
          5    1    4    4  503    0  0.24296982496E+02  0.59503194479E+01 -0.25955466107E+03  0.26079965825E+03  0.47000000000E+01 0. -1.
         -5    1    4    4    0  503 -0.46797749903E+02  0.13194210223E+02 -0.33685050146E+02  0.59337081009E+02  0.47000000000E+01 0. -1.
<mgrwt>
<rscale>  0 0.12844798E+03</rscale>
<asrwt>0</asrwt>
<pdfrwt beam="2">  1        5 0.93653327E-01 0.12844912E+03</pdfrwt>
<pdfrwt beam="1">  1       -5 0.41698666E-02 0.12844912E+03</pdfrwt>
<totfact> 0.23155959E+02</totfact>
</mgrwt>
</event>
<event>
 8    1  0.1865596E-007  0.1397512E+03  0.7546771E-02  0.1213669E+00
         -5   -1    0    0    0  501 -0.00000000000E+00  0.00000000000E+00  0.44725087626E+02  0.44971362701E+02  0.47000000000E+01 0.  1.
          5   -1    0    0  501    0  0.00000000000E+00 -0.00000000000E+00 -0.62461635307E+03  0.62463403568E+03  0.47000000000E+01 0.  1.
         25    2    1    2    0    0 -0.46560052223E+02  0.41645440929E+02 -0.10559336709E+03  0.17514721733E+03  0.12499762939E+03 0.  0.
         25    2    1    2    0    0  0.46560052223E+02 -0.41645440929E+02 -0.47429789836E+03  0.49445818104E+03  0.12501286013E+03 0.  0.
          5    1    4    4  502    0 -0.18193953106E+02 -0.66051461280E+02 -0.19734333372E+03  0.20895046502E+03  0.47000000000E+01 0.  1.
         -5    1    4    4    0  502  0.64754005329E+02  0.24406020351E+02 -0.27695456464E+03  0.28550771602E+03  0.47000000000E+01 0.  1.
          5    1    3    3  503    0  0.28870175320E+02  0.50884374239E+02 -0.23614966466E+02  0.63265023558E+02  0.47000000000E+01 0. -1.
         -5    1    3    3    0  503 -0.75430227543E+02 -0.92389333092E+01 -0.81978400620E+02  0.11188219378E+03  0.47000000000E+01 0. -1.
<mgrwt>
<rscale>  0 0.13974779E+03</rscale>
<asrwt>0</asrwt>
<pdfrwt beam="2">  1        5 0.96115122E-01 0.13975119E+03</pdfrwt>
<pdfrwt beam="1">  1       -5 0.69010876E-02 0.13975119E+03</pdfrwt>
<totfact> 0.96572365E+01</totfact>
</mgrwt>
</event>
<event>
 8    1  0.1865596E-007  0.1746631E+03  0.7546771E-02  0.1173072E+00
          5   -1    0    0  501    0  0.00000000000E+00  0.00000000000E+00  0.16872624759E+03  0.16879169596E+03  0.47000000000E+01 0.  1.
         -5   -1    0    0    0  501 -0.00000000000E+00 -0.00000000000E+00 -0.19374992667E+03  0.19380692476E+03  0.47000000000E+01 0.  1.
         25    2    1    2    0    0 -0.11488285333E+03 -0.41019427962E+02 -0.59600457538E+02  0.18455197125E+03  0.12500620822E+03 0.  0.
         25    2    1    2    0    0  0.11488285333E+03  0.41019427962E+02  0.34576778461E+02  0.17804664948E+03  0.12499756927E+03 0.  0.
          5    1    4    4  502    0  0.90007924392E+02  0.47350324392E+02  0.77405066695E+02  0.12789493353E+03  0.47000000000E+01 0.  1.
         -5    1    4    4    0  502  0.24874928936E+02 -0.63308964297E+01 -0.42828288234E+02  0.50151715945E+02  0.47000000000E+01 0.  1.
          5    1    3    3  503    0 -0.10727325487E+03 -0.39880786888E+02  0.94342710983E+01  0.11493095251E+03  0.47000000000E+01 0. -1.
         -5    1    3    3    0  503 -0.76095984583E+01 -0.11386410744E+01 -0.69034728636E+02  0.69621018738E+02  0.47000000000E+01 0. -1.
<mgrwt>
<rscale>  0 0.17466160E+03</rscale>
<asrwt>0</asrwt>
<pdfrwt beam="1">  1        5 0.25967303E-01 0.17466315E+03</pdfrwt>
<pdfrwt beam="2">  1       -5 0.29817100E-01 0.17466315E+03</pdfrwt>
<totfact> 0.11948805E+02</totfact>
</mgrwt>
</event>
<event>
 8    1  0.1865596E-007  0.1281646E+03  0.7546771E-02  0.1230206E+00
          5   -1    0    0  501    0  0.00000000000E+00  0.00000000000E+00  0.75605391878E+02  0.75751338477E+02  0.47000000000E+01 0.  1.
         -5   -1    0    0    0  501 -0.00000000000E+00 -0.00000000000E+00 -0.21698316862E+03  0.21703406522E+03  0.47000000000E+01 0.  1.
         25    2    1    2    0    0  0.12314419477E+02  0.25496985974E+02 -0.73914893786E+02  0.14794962757E+03  0.12499575814E+03 0.  0.
         25    2    1    2    0    0 -0.12314419477E+02 -0.25496985974E+02 -0.67462882960E+02  0.14483577613E+03  0.12499768098E+03 0.  0.
          5    1    3    3  502    0  0.65403472988E+02  0.14029838252E+02 -0.17084144513E+02  0.69198328260E+02  0.47000000000E+01 0. -1.
         -5    1    3    3    0  502 -0.53089053511E+02  0.11467147722E+02 -0.56830749273E+02  0.78751299307E+02  0.47000000000E+01 0. -1.
          5    1    4    4  503    0  0.54154884147E+01  0.38945297330E+02  0.11539563226E+02  0.41247002537E+02  0.47000000000E+01 0. -1.
         -5    1    4    4    0  503 -0.17729907892E+02 -0.64442283304E+02 -0.79002446185E+02  0.10358877359E+03  0.47000000000E+01 0. -1.
<mgrwt>
<rscale>  0 0.12816412E+03</rscale>
<asrwt>0</asrwt>
<pdfrwt beam="1">  1        5 0.11646741E-01 0.12816459E+03</pdfrwt>
<pdfrwt beam="2">  1       -5 0.33397168E-01 0.12816459E+03</pdfrwt>
<totfact> 0.37815782E+02</totfact>
</mgrwt>
</event>
<event>
 8    1  0.1865596E-007  0.3652899E+03  0.7546771E-02  0.1056509E+00
         -5   -1    0    0    0  501 -0.00000000000E+00  0.00000000000E+00  0.13131624636E+04  0.13131708745E+04  0.47000000000E+01 0. -1.
          5   -1    0    0  501    0  0.00000000000E+00 -0.00000000000E+00 -0.10155084344E+03  0.10165954851E+03  0.47000000000E+01 0. -1.
         25    2    1    2    0    0  0.34249742558E+03 -0.22516461237E+02  0.60628524271E+03  0.70782661456E+03  0.12500097278E+03 0.  0.
         25    2    1    2    0    0 -0.34249742558E+03  0.22516461237E+02  0.60532637743E+03  0.70700380850E+03  0.12499153762E+03 0.  0.
          5    1    3    3  502    0  0.20472254236E+02  0.23744559477E+02  0.10933661931E+03  0.11383981562E+03  0.47000000000E+01 0.  1.
         -5    1    3    3    0  502  0.32202517134E+03 -0.46261020714E+02  0.49694862341E+03  0.59398679894E+03  0.47000000000E+01 0.  1.
          5    1    4    4  503    0 -0.20016814198E+03  0.66956915552E+02  0.29593030011E+03  0.36352076437E+03  0.47000000000E+01 0. -1.
         -5    1    4    4    0  503 -0.14232928359E+03 -0.44440454316E+02  0.30939607731E+03  0.34348304413E+03  0.47000000000E+01 0. -1.
<mgrwt>
<rscale>  0 0.36528911E+03</rscale>
<asrwt>0</asrwt>
<pdfrwt beam="2">  1        5 0.15632216E-01 0.36528991E+03</pdfrwt>
<pdfrwt beam="1">  1       -5 0.20203400E+00 0.36528991E+03</pdfrwt>
<totfact> 0.36951885E+00</totfact>
</mgrwt>
</event>
<event>
 8    1  0.1865596E-007  0.1376360E+03  0.7546771E-02  0.1216548E+00
          5   -1    0    0  501    0  0.00000000000E+00  0.00000000000E+00  0.16067135897E+03  0.16074008708E+03  0.47000000000E+01 0.  1.
         -5   -1    0    0    0  501 -0.00000000000E+00 -0.00000000000E+00 -0.12024627919E+03  0.12033809729E+03  0.47000000000E+01 0.  1.
         25    2    1    2    0    0 -0.48296457384E+02 -0.31392675630E+02  0.40425241998E+02  0.14344984918E+03  0.12500244461E+03 0.  0.
         25    2    1    2    0    0  0.48296457384E+02  0.31392675630E+02 -0.16221706818E-03  0.13762833519E+03  0.12499404293E+03 0.  0.
          5    1    3    3  502    0 -0.66553410674E+02 -0.12259821189E+02  0.74042754263E+02  0.10041951577E+03  0.47000000000E+01 0.  1.
         -5    1    3    3    0  502  0.18256953289E+02 -0.19132854441E+02 -0.33617512265E+02  0.43030333410E+02  0.47000000000E+01 0.  1.
          5    1    4    4  503    0  0.13238675532E+02  0.65087899534E+02 -0.37156012634E+02  0.76251927651E+02  0.47000000000E+01 0. -1.
         -5    1    4    4    0  503  0.35057781852E+02 -0.33695223904E+02  0.37155850417E+02  0.61376407540E+02  0.47000000000E+01 0. -1.
<mgrwt>
<rscale>  0 0.13763406E+03</rscale>
<asrwt>0</asrwt>
<pdfrwt beam="1">  1        5 0.24731020E-01 0.13763597E+03</pdfrwt>
<pdfrwt beam="2">  1       -5 0.18511777E-01 0.13763597E+03</pdfrwt>
<totfact> 0.30175699E+02</totfact>
</mgrwt>
</event>
<event>
 8    1  0.1865596E-007  0.1544514E+03  0.7546771E-02  0.1195123E+00
         -5   -1    0    0    0  501 -0.00000000000E+00  0.00000000000E+00  0.24672015338E+03  0.24676491664E+03  0.47000000000E+01 0.  1.
          5   -1    0    0  501    0  0.00000000000E+00 -0.00000000000E+00 -0.10331959338E+03  0.10342643944E+03  0.47000000000E+01 0.  1.
         25    2    1    2    0    0 -0.21913039102E+02  0.87968139457E+02  0.11649067938E+03  0.19341323505E+03  0.12498010349E+03 0.  0.
         25    2    1    2    0    0  0.21913039102E+02 -0.87968139457E+02  0.26909880628E+02  0.15677812103E+03  0.12504664217E+03 0.  0.
          5    1    3    3  502    0 -0.29867656836E+02 -0.10163102406E+02  0.83642898169E+02  0.89518657215E+02  0.47000000000E+01 0.  1.
         -5    1    3    3    0  502  0.79546177335E+01  0.98131241863E+02  0.32847781209E+02  0.10389457783E+03  0.47000000000E+01 0.  1.
          5    1    4    4  503    0 -0.13853435644E+02 -0.65381087982E+02  0.69522381780E+02  0.96550794472E+02  0.47000000000E+01 0.  1.
         -5    1    4    4    0  503  0.35766474746E+02 -0.22587051475E+02 -0.42612501153E+02  0.60227326560E+02  0.47000000000E+01 0.  1.
<mgrwt>
<rscale>  0 0.15443794E+03</rscale>
<asrwt>0</asrwt>
<pdfrwt beam="2">  1        5 0.15906985E-01 0.15445141E+03</pdfrwt>
<pdfrwt beam="1">  1       -5 0.37968608E-01 0.15445141E+03</pdfrwt>
<totfact> 0.17798957E+02</totfact>
</mgrwt>
</event>
<event>
 8    1  0.1865596E-007  0.1426382E+03  0.7546771E-02  0.1209823E+00
          5   -1    0    0  501    0  0.00000000000E+00  0.00000000000E+00  0.21858142430E+03  0.21863194883E+03  0.47000000000E+01 0.  1.
         -5   -1    0    0    0  501 -0.00000000000E+00 -0.00000000000E+00 -0.98776695520E+02  0.98888450174E+02  0.47000000000E+01 0.  1.
         25    2    1    2    0    0  0.66630769877E+02  0.16772866332E+02  0.21407091833E+02  0.14423524314E+03  0.12499821297E+03 0.  0.
         25    2    1    2    0    0 -0.66630769877E+02 -0.16772866332E+02  0.98397636949E+02  0.17328515586E+03  0.12499864698E+03 0.  0.
          5    1    3    3  502    0  0.81614409340E+02  0.17797753414E+02  0.59735990082E+02  0.10280150947E+03  0.47000000000E+01 0.  1.
         -5    1    3    3    0  502 -0.14983639463E+02 -0.10248870823E+01 -0.38328898249E+02  0.41433733673E+02  0.47000000000E+01 0.  1.
          5    1    4    4  503    0 -0.56962919610E+02 -0.33003642631E+02 -0.67550109140E+01  0.66345571140E+02  0.47000000000E+01 0. -1.
         -5    1    4    4    0  503 -0.96678502668E+01  0.16230776300E+02  0.10515264786E+03  0.10693958472E+03  0.47000000000E+01 0. -1.
<mgrwt>
<rscale>  0 0.14263808E+03</rscale>
<asrwt>0</asrwt>
<pdfrwt beam="1">  1        5 0.33640394E-01 0.14263818E+03</pdfrwt>
<pdfrwt beam="2">  1       -5 0.15208898E-01 0.14263818E+03</pdfrwt>
<totfact> 0.24003293E+02</totfact>
</mgrwt>
</event>
<event>
 8    1  0.1865596E-007  0.1330141E+03  0.7546771E-02  0.1223053E+00
         -5   -1    0    0    0  501 -0.00000000000E+00  0.00000000000E+00  0.13528791522E+02  0.14321948193E+02  0.47000000000E+01 0.  1.
          5   -1    0    0  501    0  0.00000000000E+00 -0.00000000000E+00 -0.12703208297E+04  0.12703295244E+04  0.47000000000E+01 0.  1.
         25    2    1    2    0    0 -0.37479495195E+02 -0.25720520530E+02 -0.61396188472E+03  0.62820394907E+03  0.12499899199E+03 0.  0.
         25    2    1    2    0    0  0.37479495195E+02  0.25720520530E+02 -0.64283015350E+03  0.65644752349E+03  0.12500594831E+03 0.  0.
          5    1    4    4  502    0  0.69415502193E+02  0.43548305604E+02 -0.28097649174E+03  0.29271973930E+03  0.47000000000E+01 0.  1.
         -5    1    4    4    0  502 -0.31936006998E+02 -0.17827785074E+02 -0.36185366176E+03  0.36372778419E+03  0.47000000000E+01 0.  1.
          5    1    3    3  503    0  0.32757362707E+02 -0.47220635615E+02 -0.22037458479E+03  0.22779350487E+03  0.47000000000E+01 0.  1.
         -5    1    3    3    0  503 -0.70236857902E+02  0.21500115085E+02 -0.39358729994E+03  0.40041044420E+03  0.47000000000E+01 0.  1.
<mgrwt>
<rscale>  0 0.13301244E+03</rscale>
<asrwt>0</asrwt>
<pdfrwt beam="2">  1        5 0.19549556E+00 0.13301408E+03</pdfrwt>
<pdfrwt beam="1">  1       -5 0.21430344E-02 0.13301408E+03</pdfrwt>
<totfact> 0.96559615E+01</totfact>
</mgrwt>
</event>
<event>
 8    1  0.1865596E-007  0.1422915E+03  0.7546771E-02  0.1210279E+00
         -5   -1    0    0    0  501 -0.00000000000E+00  0.00000000000E+00  0.99999432502E+02  0.10010982220E+03  0.47000000000E+01 0.  1.
          5   -1    0    0  501    0  0.00000000000E+00 -0.00000000000E+00 -0.21753568318E+03  0.21758645054E+03  0.47000000000E+01 0.  1.
         25    2    1    2    0    0 -0.57813027026E+02 -0.35764333485E+02 -0.16629377508E+02  0.14325701494E+03  0.12499840995E+03 0.  0.
         25    2    1    2    0    0  0.57813027026E+02  0.35764333485E+02 -0.10090687317E+03  0.17443925780E+03  0.12500169585E+03 0.  0.
          5    1    3    3  502    0  0.28394212698E+02  0.21260525931E+02  0.85080201362E+01  0.36779310546E+02  0.47000000000E+01 0. -1.
         -5    1    3    3    0  502 -0.86207239724E+02 -0.57024859416E+02 -0.25137397644E+02  0.10647770439E+03  0.47000000000E+01 0. -1.
          5    1    4    4  503    0  0.86301890499E+02  0.58428481784E+02 -0.84402137348E+02  0.13419282610E+03  0.47000000000E+01 0.  1.
         -5    1    4    4    0  503 -0.28488863473E+02 -0.22664148299E+02 -0.16504735826E+02  0.40246431703E+02  0.47000000000E+01 0.  1.
<mgrwt>
<rscale>  0 0.14229073E+03</rscale>
<asrwt>0</asrwt>
<pdfrwt beam="2">  1        5 0.33479425E-01 0.14229145E+03</pdfrwt>
<pdfrwt beam="1">  1       -5 0.15396925E-01 0.14229145E+03</pdfrwt>
<totfact> 0.23680145E+02</totfact>
</mgrwt>
</event>
<event>
 8    1  0.1865596E-007  0.1588765E+03  0.7546771E-02  0.1189971E+00
         -5   -1    0    0    0  501 -0.00000000000E+00  0.00000000000E+00  0.18694070148E+03  0.18699977506E+03  0.47000000000E+01 0. -1.
          5   -1    0    0  501    0  0.00000000000E+00 -0.00000000000E+00 -0.20115302025E+03  0.20120792121E+03  0.47000000000E+01 0. -1.
         25    2    1    2    0    0 -0.54596661764E+02 -0.81472900149E+02  0.10425290455E+03  0.19002739708E+03  0.12499245817E+03 0.  0.
         25    2    1    2    0    0  0.54596661764E+02  0.81472900149E+02 -0.11846522332E+03  0.19818029918E+03  0.12499117135E+03 0.  0.
          5    1    4    4  502    0  0.46484265330E+02  0.90124582081E+02 -0.25936227685E+02  0.10477597590E+03  0.47000000000E+01 0. -1.
         -5    1    4    4    0  502  0.81123964339E+01 -0.86516819319E+01 -0.92528995631E+02  0.93404323287E+02  0.47000000000E+01 0. -1.
          5    1    3    3  503    0  0.12116780370E+02  0.27206415263E+02  0.11495009729E+02  0.32268105718E+02  0.47000000000E+01 0.  1.
         -5    1    3    3    0  503 -0.66713442134E+02 -0.10867931541E+03  0.92757894818E+02  0.15775929136E+03  0.47000000000E+01 0.  1.
<mgrwt>
<rscale>  0 0.15887625E+03</rscale>
<asrwt>0</asrwt>
<pdfrwt beam="2">  1        5 0.30955386E-01 0.15887650E+03</pdfrwt>
<pdfrwt beam="1">  1       -5 0.28768875E-01 0.15887650E+03</pdfrwt>
<totfact> 0.88407941E+01</totfact>
</mgrwt>
</event>
<event>
 8    1  0.1865596E-007  0.1460087E+03  0.7546771E-02  0.1205465E+00
         -5   -1    0    0    0  501 -0.00000000000E+00  0.00000000000E+00  0.23662138020E+02  0.24124402079E+02  0.47000000000E+01 0.  1.
          5   -1    0    0  501    0  0.00000000000E+00 -0.00000000000E+00 -0.89178132323E+03  0.89179370846E+03  0.47000000000E+01 0.  1.
         25    2    1    2    0    0 -0.32618913661E+02 -0.68039185244E+02 -0.43573141108E+03  0.45954369362E+03  0.12500087795E+03 0.  0.
         25    2    1    2    0    0  0.32618913661E+02  0.68039185244E+02 -0.43238777412E+03  0.45637441692E+03  0.12500038780E+03 0.  0.
          5    1    4    4  502    0  0.42006195290E+02 -0.27081619734E+02 -0.15729288828E+03  0.16510928887E+03  0.47000000000E+01 0. -1.
         -5    1    4    4    0  502 -0.93872816289E+01  0.95120804979E+02 -0.27509488585E+03  0.29126512805E+03  0.47000000000E+01 0. -1.
          5    1    3    3  503    0 -0.69170133355E+02 -0.53512280749E+01 -0.26500366024E+03  0.27397476696E+03  0.47000000000E+01 0.  1.
         -5    1    3    3    0  503  0.36551219694E+02 -0.62687957170E+02 -0.17072775084E+03  0.18556892667E+03  0.47000000000E+01 0.  1.
<mgrwt>
<rscale>  0 0.14600861E+03</rscale>
<asrwt>0</asrwt>
<pdfrwt beam="2">  1        5 0.13723361E+00 0.14600871E+03</pdfrwt>
<pdfrwt beam="1">  1       -5 0.36768411E-02 0.14600871E+03</pdfrwt>
<totfact> 0.11365124E+02</totfact>
</mgrwt>
</event>
<event>
 8    1  0.1865596E-007  0.1379908E+03  0.7546771E-02  0.1216058E+00
          5   -1    0    0  501    0  0.00000000000E+00  0.00000000000E+00  0.10957124026E+04  0.10957224827E+04  0.47000000000E+01 0.  1.
         -5   -1    0    0    0  501 -0.00000000000E+00 -0.00000000000E+00 -0.19628083290E+02  0.20182954532E+02  0.47000000000E+01 0.  1.
         25    2    1    2    0    0 -0.52826023817E+02  0.25054243351E+02  0.33887849554E+03  0.36589618445E+03  0.12499231640E+03 0.  0.
         25    2    1    2    0    0  0.52826023817E+02 -0.25054243351E+02  0.73720582373E+03  0.75000925279E+03  0.12499259508E+03 0.  0.
          5    1    3    3  502    0 -0.42890878153E+02  0.64736891382E+02  0.29756398333E+03  0.30756610136E+03  0.47000000000E+01 0.  1.
         -5    1    3    3    0  502 -0.99351456644E+01 -0.39682648031E+02  0.41314512209E+02  0.58330083089E+02  0.47000000000E+01 0.  1.
          5    1    4    4  503    0  0.81724093649E+02 -0.51326598591E+02  0.57772074408E+03  0.58574447957E+03  0.47000000000E+01 0. -1.
         -5    1    4    4    0  503 -0.28898069832E+02  0.26272355240E+02  0.15948507965E+03  0.16426477322E+03  0.47000000000E+01 0. -1.
<mgrwt>
<rscale>  0 0.13799071E+03</rscale>
<asrwt>0</asrwt>
<pdfrwt beam="1">  1        5 0.16861464E+00 0.13799077E+03</pdfrwt>
<pdfrwt beam="2">  1       -5 0.30631621E-02 0.13799077E+03</pdfrwt>
<totfact> 0.85305159E+01</totfact>
</mgrwt>
</event>
<event>
 8    1  0.1865596E-007  0.1367369E+03  0.7546771E-02  0.1217790E+00
         -5   -1    0    0    0  501 -0.00000000000E+00  0.00000000000E+00  0.67271111432E+03  0.67272753276E+03  0.47000000000E+01 0. -1.
          5   -1    0    0  501    0  0.00000000000E+00 -0.00000000000E+00 -0.30780737330E+02  0.31137498142E+02  0.47000000000E+01 0. -1.
         25    2    1    2    0    0 -0.50469996308E+02 -0.22905459015E+02  0.43377873758E+03  0.45481867062E+03  0.12499659749E+03 0.  0.
         25    2    1    2    0    0  0.50469996308E+02  0.22905459015E+02  0.20815163941E+03  0.24904636028E+03  0.12500041600E+03 0.  0.
          5    1    4    4  502    0 -0.63458067922E+00 -0.27855947101E+02 -0.50019755063E+00  0.28261222180E+02  0.47000000000E+01 0.  1.
         -5    1    4    4    0  502  0.51104576987E+02  0.50761406115E+02  0.20865183696E+03  0.22078513810E+03  0.47000000000E+01 0.  1.
          5    1    3    3  503    0 -0.21763744219E+02 -0.74142115167E+02  0.26340987854E+03  0.27454975490E+03  0.47000000000E+01 0.  1.
         -5    1    3    3    0  503 -0.28706252089E+02  0.51236656152E+02  0.17036885904E+03  0.18026891572E+03  0.47000000000E+01 0.  1.
<mgrwt>
<rscale>  0 0.13673604E+03</rscale>
<asrwt>0</asrwt>
<pdfrwt beam="2">  1        5 0.47642046E-02 0.13673692E+03</pdfrwt>
<pdfrwt beam="1">  1       -5 0.10352271E+00 0.13673692E+03</pdfrwt>
<totfact> 0.14895201E+02</totfact>
</mgrwt>
</event>
<event>
 8    1  0.1865596E-007  0.1660554E+03  0.7546771E-02  0.1182029E+00
         -5   -1    0    0    0  501 -0.00000000000E+00  0.00000000000E+00  0.20796709758E+03  0.20802020016E+03  0.47000000000E+01 0. -1.
          5   -1    0    0  501    0  0.00000000000E+00 -0.00000000000E+00 -0.15341023442E+03  0.15348221404E+03  0.47000000000E+01 0. -1.
         25    2    1    2    0    0  0.93350747520E+02 -0.56828945816E+02  0.94037093805E+02  0.19083338617E+03  0.12502205853E+03 0.  0.
         25    2    1    2    0    0 -0.93350747520E+02  0.56828945816E+02 -0.39480230651E+02  0.17066902803E+03  0.12500134948E+03 0.  0.
          5    1    3    3  502    0  0.46112783241E+02 -0.17045423993E+02 -0.25960400605E+02  0.55793975095E+02  0.47000000000E+01 0.  1.
         -5    1    3    3    0  502  0.47237964279E+02 -0.39783521823E+02  0.11999749441E+03  0.13503941107E+03  0.47000000000E+01 0.  1.
          5    1    4    4  503    0 -0.15483386315E+02 -0.30487054022E+02  0.19417912027E+02  0.39602285568E+02  0.47000000000E+01 0.  1.
         -5    1    4    4    0  503 -0.77867361205E+02  0.87315999838E+02 -0.58898142678E+02  0.13106674246E+03  0.47000000000E+01 0.  1.
<mgrwt>
<rscale>  0 0.16605153E+03</rscale>
<asrwt>0</asrwt>
<pdfrwt beam="2">  1        5 0.23611196E-01 0.16605543E+03</pdfrwt>
<pdfrwt beam="1">  1       -5 0.32004560E-01 0.16605543E+03</pdfrwt>
<totfact> 0.12284359E+02</totfact>
</mgrwt>
</event>
<event>
 8    1  0.1865596E-007  0.1379450E+03  0.7546771E-02  0.1216122E+00
          5   -1    0    0  501    0  0.00000000000E+00  0.00000000000E+00  0.24223491961E+02  0.24675241899E+02  0.47000000000E+01 0. -1.
         -5   -1    0    0    0  501 -0.00000000000E+00 -0.00000000000E+00 -0.77923981267E+03  0.77925398662E+03  0.47000000000E+01 0. -1.
         25    2    1    2    0    0 -0.11762692837E+02  0.57138783761E+02 -0.36040112678E+03  0.38589869096E+03  0.12500250376E+03 0.  0.
         25    2    1    2    0    0  0.11762692837E+02 -0.57138783761E+02 -0.39461519393E+03  0.41803053756E+03  0.12500070997E+03 0.  0.
          5    1    4    4  502    0  0.38063827674E+02 -0.76552989014E+02 -0.36057527930E+03  0.37060199290E+03  0.47000000000E+01 0. -1.
         -5    1    4    4    0  502 -0.26301134838E+02  0.19414205253E+02 -0.34039914637E+02  0.47428544653E+02  0.47000000000E+01 0. -1.
          5    1    3    3  503    0 -0.24003113312E+02  0.93702718874E+02 -0.22317264267E+03  0.24327857985E+03  0.47000000000E+01 0.  1.
         -5    1    3    3    0  503  0.12240420475E+02 -0.36563935113E+02 -0.13722848410E+03  0.14262011111E+03  0.47000000000E+01 0.  1.
<mgrwt>
<rscale>  0 0.13794461E+03</rscale>
<asrwt>0</asrwt>
<pdfrwt beam="1">  1        5 0.37625320E-02 0.13794502E+03</pdfrwt>
<pdfrwt beam="2">  1       -5 0.11991887E+00 0.13794502E+03</pdfrwt>
<totfact> 0.15260438E+02</totfact>
</mgrwt>
</event>
<event>
 8    1  0.1865596E-007  0.1278254E+03  0.7546771E-02  0.1230721E+00
          5   -1    0    0  501    0  0.00000000000E+00  0.00000000000E+00  0.13394023064E+03  0.13402266742E+03  0.47000000000E+01 0.  1.
         -5   -1    0    0    0  501 -0.00000000000E+00 -0.00000000000E+00 -0.12255788727E+03  0.12264797484E+03  0.47000000000E+01 0.  1.
         25    2    1    2    0    0  0.26402089797E+02 -0.37945882174E+01  0.15646777860E+02  0.12877410460E+03  0.12500591631E+03 0.  0.
         25    2    1    2    0    0 -0.26402089797E+02  0.37945882174E+01 -0.42644344975E+01  0.12789653766E+03  0.12501147827E+03 0.  0.
          5    1    3    3  502    0 -0.49774904336E+02 -0.10251508080E+02  0.96907504933E+01  0.51948389433E+02  0.47000000000E+01 0. -1.
         -5    1    3    3    0  502  0.76176994133E+02  0.64569198630E+01  0.59560273662E+01  0.76825715169E+02  0.47000000000E+01 0. -1.
          5    1    4    4  503    0 -0.89466807303E+01 -0.59209741887E+02  0.97946158973E+01  0.60859355328E+02  0.47000000000E+01 0.  1.
         -5    1    4    4    0  503 -0.17455409067E+02  0.63004330104E+02 -0.14059050395E+02  0.67037182336E+02  0.47000000000E+01 0.  1.
<mgrwt>
<rscale>  0 0.12782406E+03</rscale>
<asrwt>0</asrwt>
<pdfrwt beam="1">  1        5 0.20619461E-01 0.12782542E+03</pdfrwt>
<pdfrwt beam="2">  1       -5 0.18868331E-01 0.12782542E+03</pdfrwt>
<totfact> 0.40015926E+02</totfact>
</mgrwt>
</event>
<event>
 8    1  0.1865596E-007  0.1506674E+03  0.7546771E-02  0.1199658E+00
          5   -1    0    0  501    0  0.00000000000E+00  0.00000000000E+00  0.14466780529E+03  0.14474413248E+03  0.47000000000E+01 0. -1.
         -5   -1    0    0    0  501 -0.00000000000E+00 -0.00000000000E+00 -0.15675836184E+03  0.15682880478E+03  0.47000000000E+01 0. -1.
         25    2    1    2    0    0  0.56197244862E+01 -0.83927557031E+02 -0.68003685095E+01  0.15081269279E+03  0.12499122834E+03 0.  0.
         25    2    1    2    0    0 -0.56197244862E+01  0.83927557031E+02 -0.52901880438E+01  0.15076024446E+03  0.12500099635E+03 0.  0.
          5    1    4    4  502    0 -0.59535010026E+02  0.38172798841E+02 -0.28197385490E+02  0.76280813699E+02  0.47000000000E+01 0. -1.
         -5    1    4    4    0  502  0.53915285540E+02  0.45754758190E+02  0.22907197446E+02  0.74479430762E+02  0.47000000000E+01 0. -1.
          5    1    3    3  503    0 -0.21601857209E+02 -0.71232355537E+02  0.47610306922E+02  0.88484575127E+02  0.47000000000E+01 0. -1.
         -5    1    3    3    0  503  0.27221581695E+02 -0.12695201495E+02 -0.54410675431E+02  0.62328117666E+02  0.47000000000E+01 0. -1.
<mgrwt>
<rscale>  0 0.15066537E+03</rscale>
<asrwt>0</asrwt>
<pdfrwt beam="1">  1        5 0.22267875E-01 0.15066740E+03</pdfrwt>
<pdfrwt beam="2">  1       -5 0.24127961E-01 0.15066740E+03</pdfrwt>
<totfact> 0.23082406E+02</totfact>
</mgrwt>
</event>
<event>
 8    1  0.1865596E-007  0.1440413E+03  0.7546771E-02  0.1207994E+00
          5   -1    0    0  501    0  0.00000000000E+00  0.00000000000E+00  0.23275070321E+02  0.23744870993E+02  0.47000000000E+01 0.  1.
         -5   -1    0    0    0  501 -0.00000000000E+00 -0.00000000000E+00 -0.91457142368E+03  0.91458350030E+03  0.47000000000E+01 0.  1.
         25    2    1    2    0    0 -0.61568345352E+02 -0.36499482896E+02 -0.53415467763E+03  0.55323514030E+03  0.12500010970E+03 0.  0.
         25    2    1    2    0    0  0.61568345352E+02  0.36499482896E+02 -0.35714167573E+03  0.38509323099E+03  0.12499498634E+03 0.  0.
          5    1    4    4  502    0 -0.24252692067E+02  0.32280711510E+02 -0.42144611853E+02  0.58553357857E+02  0.47000000000E+01 0. -1.
         -5    1    4    4    0  502  0.85821037419E+02  0.42187713860E+01 -0.31499706388E+03  0.32653987314E+03  0.47000000000E+01 0. -1.
          5    1    3    3  503    0 -0.53998339265E+02 -0.52748085503E+01 -0.73702622203E+02  0.91639569882E+02  0.47000000000E+01 0.  1.
         -5    1    3    3    0  503 -0.75700060867E+01 -0.31224674346E+02 -0.46045205542E+03  0.46159557041E+03  0.47000000000E+01 0.  1.
<mgrwt>
<rscale>  0 0.14404020E+03</rscale>
<asrwt>0</asrwt>
<pdfrwt beam="1">  1        5 0.36178482E-02 0.14404132E+03</pdfrwt>
<pdfrwt beam="2">  1       -5 0.14074034E+00 0.14404132E+03</pdfrwt>
<totfact> 0.10863618E+02</totfact>
</mgrwt>
</event>
<event>
 8    1  0.1865596E-007  0.1250590E+03  0.7546771E-02  0.1234983E+00
         -5   -1    0    0    0  501 -0.00000000000E+00  0.00000000000E+00  0.55247675876E+03  0.55249675019E+03  0.47000000000E+01 0. -1.
          5   -1    0    0  501    0  0.00000000000E+00 -0.00000000000E+00 -0.37647315725E+02  0.37939562218E+02  0.47000000000E+01 0. -1.
         25    2    1    2    0    0 -0.24570662854E+01  0.26673933564E+01  0.40544481016E+03  0.42428951292E+03  0.12499177783E+03 0.  0.
         25    2    1    2    0    0  0.24570662854E+01 -0.26673933564E+01  0.10938463287E+03  0.16614679949E+03  0.12500643547E+03 0.  0.
          5    1    3    3  502    0  0.32113851106E+02  0.45013990509E+02  0.10388026775E+03  0.11777418564E+03  0.47000000000E+01 0. -1.
         -5    1    3    3    0  502 -0.34570917391E+02 -0.42346597153E+02  0.30156454241E+03  0.30651532728E+03  0.47000000000E+01 0. -1.
          5    1    4    4  503    0  0.58231113191E+02 -0.21223359165E+02  0.76712590256E+02  0.98732998645E+02  0.47000000000E+01 0. -1.
         -5    1    4    4    0  503 -0.55774046905E+02  0.18555965809E+02  0.32672042618E+02  0.67413800843E+02  0.47000000000E+01 0. -1.
<mgrwt>
<rscale>  0 0.12505537E+03</rscale>
<asrwt>0</asrwt>
<pdfrwt beam="2">  1        5 0.58159136E-02 0.12505903E+03</pdfrwt>
<pdfrwt beam="1">  1       -5 0.85020434E-01 0.12505903E+03</pdfrwt>
<totfact> 0.16608298E+02</totfact>
</mgrwt>
</event>
<event>
 8    1  0.1865596E-007  0.1740427E+03  0.7546771E-02  0.1173696E+00
         -5   -1    0    0    0  501 -0.00000000000E+00  0.00000000000E+00  0.48763217539E+02  0.48989196613E+02  0.47000000000E+01 0. -1.
          5   -1    0    0  501    0  0.00000000000E+00 -0.00000000000E+00 -0.62255332500E+03  0.62257106620E+03  0.47000000000E+01 0. -1.
         25    2    1    2    0    0 -0.12032011666E+03  0.13739889237E+02 -0.31036630438E+03  0.35583439996E+03  0.12500064907E+03 0.  0.
         25    2    1    2    0    0  0.12032011666E+03 -0.13739889237E+02 -0.26342380308E+03  0.31572586286E+03  0.12500002166E+03 0.  0.
          5    1    3    3  502    0 -0.95554237188E+02  0.64799854457E+02 -0.18466776132E+03  0.21783917337E+03  0.47000000000E+01 0.  1.
         -5    1    3    3    0  502 -0.24765879475E+02 -0.51059965220E+02 -0.12569854306E+03  0.13799522659E+03  0.47000000000E+01 0.  1.
          5    1    4    4  503    0  0.27441288628E+02 -0.10906447753E+02 -0.20208494155E+03  0.20428506682E+03  0.47000000000E+01 0. -1.
         -5    1    4    4    0  503  0.92878828034E+02 -0.28334414838E+01 -0.61338861536E+02  0.11144079604E+03  0.47000000000E+01 0. -1.
<mgrwt>
<rscale>  0 0.17404263E+03</rscale>
<asrwt>0</asrwt>
<pdfrwt beam="2">  1        5 0.95796177E-01 0.17404275E+03</pdfrwt>
<pdfrwt beam="1">  1       -5 0.75207816E-02 0.17404275E+03</pdfrwt>
<totfact> 0.89840979E+01</totfact>
</mgrwt>
</event>
<event>
 8    1  0.1865596E-007  0.1478153E+03  0.7546771E-02  0.1203187E+00
         -5   -1    0    0    0  501 -0.00000000000E+00  0.00000000000E+00  0.12307363928E+03  0.12316334960E+03  0.47000000000E+01 0.  1.
          5   -1    0    0  501    0  0.00000000000E+00 -0.00000000000E+00 -0.17830338484E+03  0.17836531907E+03  0.47000000000E+01 0.  1.
         25    2    1    2    0    0 -0.76344992129E+02  0.19887354285E+02 -0.16491411708E+02  0.14873243631E+03  0.12500122506E+03 0.  0.
         25    2    1    2    0    0  0.76344992129E+02 -0.19887354285E+02 -0.38738333858E+02  0.15279623236E+03  0.12498786113E+03 0.  0.
          5    1    3    3  502    0 -0.54512056577E+02 -0.47213318763E+02  0.10519107361E+02  0.73030154050E+02  0.47000000000E+01 0. -1.
         -5    1    3    3    0  502 -0.21832935552E+02  0.67100673049E+02 -0.27010519069E+02  0.75702282256E+02  0.47000000000E+01 0. -1.
          5    1    4    4  503    0  0.58403759845E+02  0.48936770391E+02 -0.23840995782E+02  0.79976807514E+02  0.47000000000E+01 0. -1.
         -5    1    4    4    0  503  0.17941232284E+02 -0.68824124676E+02 -0.14897338076E+02  0.72819424847E+02  0.47000000000E+01 0. -1.
<mgrwt>
<rscale>  0 0.14781250E+03</rscale>
<asrwt>0</asrwt>
<pdfrwt beam="2">  1        5 0.27442955E-01 0.14781533E+03</pdfrwt>
<pdfrwt beam="1">  1       -5 0.18946071E-01 0.14781533E+03</pdfrwt>
<totfact> 0.24231660E+02</totfact>
</mgrwt>
</event>
<event>
 8    1  0.1865596E-007  0.1399753E+03  0.7546771E-02  0.1213365E+00
          5   -1    0    0  501    0  0.00000000000E+00  0.00000000000E+00  0.20068267324E+03  0.20073770283E+03  0.47000000000E+01 0. -1.
         -5   -1    0    0    0  501 -0.00000000000E+00 -0.00000000000E+00 -0.10805497426E+03  0.10815714245E+03  0.47000000000E+01 0. -1.
         25    2    1    2    0    0 -0.61895951196E+02  0.11678300900E+02 -0.19214316059E+01  0.13997881622E+03  0.12499154214E+03 0.  0.
         25    2    1    2    0    0  0.61895951196E+02 -0.11678300900E+02  0.94549130583E+02  0.16891602906E+03  0.12500238115E+03 0.  0.
          5    1    3    3  502    0 -0.89311826613E+02  0.41322751235E+02  0.54232557739E+01  0.98669518321E+02  0.47000000000E+01 0.  1.
         -5    1    3    3    0  502  0.27415875417E+02 -0.29644450335E+02 -0.73446873798E+01  0.41309297903E+02  0.47000000000E+01 0.  1.
          5    1    4    4  503    0  0.35420558440E+02 -0.29746350424E+02 -0.19454621515E+02  0.50398746235E+02  0.47000000000E+01 0. -1.
         -5    1    4    4    0  503  0.26475392756E+02  0.18068049524E+02  0.11400375210E+03  0.11851728282E+03  0.47000000000E+01 0. -1.
<mgrwt>
<rscale>  0 0.13997289E+03</rscale>
<asrwt>0</asrwt>
<pdfrwt beam="1">  1        5 0.30886349E-01 0.13997531E+03</pdfrwt>
<pdfrwt beam="2">  1       -5 0.16635935E-01 0.13997531E+03</pdfrwt>
<totfact> 0.23994140E+02</totfact>
</mgrwt>
</event>
<event>
 8    1  0.1865596E-007  0.1606456E+03  0.7546771E-02  0.1187995E+00
          5   -1    0    0  501    0  0.00000000000E+00  0.00000000000E+00  0.16527785877E+02  0.17183064512E+02  0.47000000000E+01 0.  1.
         -5   -1    0    0    0  501 -0.00000000000E+00 -0.00000000000E+00 -0.15789661960E+04  0.15789731911E+04  0.47000000000E+01 0.  1.
         25    2    1    2    0    0  0.31816647504E+01  0.10074911855E+03 -0.92255240198E+03  0.93643470463E+03  0.12508602541E+03 0.  0.
         25    2    1    2    0    0 -0.31816647504E+01 -0.10074911855E+03 -0.63988600813E+03  0.65972155094E+03  0.12497165077E+03 0.  0.
          5    1    3    3  502    0  0.52570435742E+02  0.14905032924E+02 -0.46749852581E+03  0.47070454890E+03  0.47000000000E+01 0. -1.
         -5    1    3    3    0  502 -0.49388770991E+02  0.85844085622E+02 -0.45505387618E+03  0.46573015573E+03  0.47000000000E+01 0. -1.
          5    1    4    4  503    0  0.23851812344E+02 -0.10713806203E+03 -0.60493292392E+03  0.61482794807E+03  0.47000000000E+01 0. -1.
         -5    1    4    4    0  503 -0.27033477094E+02  0.63889434843E+01 -0.34953084208E+02  0.44893602866E+02  0.47000000000E+01 0. -1.
<mgrwt>
<rscale>  0 0.16062337E+03</rscale>
<asrwt>0</asrwt>
<pdfrwt beam="1">  1        5 0.25936817E-02 0.16064564E+03</pdfrwt>
<pdfrwt beam="2">  1       -5 0.24296870E+00 0.16064564E+03</pdfrwt>
<totfact> 0.36592579E+01</totfact>
</mgrwt>
</event>
<event>
 8    1  0.1865596E-007  0.1313559E+03  0.7546771E-02  0.1225458E+00
          5   -1    0    0  501    0  0.00000000000E+00  0.00000000000E+00  0.34885846418E+03  0.34889012315E+03  0.47000000000E+01 0. -1.
         -5   -1    0    0    0  501 -0.00000000000E+00 -0.00000000000E+00 -0.51226735056E+02  0.51441893283E+02  0.47000000000E+01 0. -1.
         25    2    1    2    0    0 -0.34343051469E+02 -0.21211252511E+02  0.18740269934E+03  0.22885398054E+03  0.12500004108E+03 0.  0.
         25    2    1    2    0    0  0.34343051469E+02  0.21211252511E+02  0.11022902979E+03  0.17147803590E+03  0.12499966148E+03 0.  0.
          5    1    3    3  502    0 -0.26379379951E+02 -0.41242211786E+02  0.19825684135E+03  0.20426614223E+03  0.47000000000E+01 0. -1.
         -5    1    3    3    0  502 -0.79636715175E+01  0.20030959275E+02 -0.10854142016E+02  0.24587838303E+02  0.47000000000E+01 0. -1.
          5    1    4    4  503    0  0.80911903798E+01  0.61672152519E+02  0.10579591025E+03  0.12281606729E+03  0.47000000000E+01 0. -1.
         -5    1    4    4    0  503  0.26251861089E+02 -0.40460900008E+02  0.44331195381E+01  0.48661968609E+02  0.47000000000E+01 0. -1.
<mgrwt>
<rscale>  0 0.13135581E+03</rscale>
<asrwt>0</asrwt>
<pdfrwt beam="1">  1        5 0.53689521E-01 0.13135590E+03</pdfrwt>
<pdfrwt beam="2">  1       -5 0.79000218E-02 0.13135590E+03</pdfrwt>
<totfact> 0.28135291E+02</totfact>
</mgrwt>
</event>
<event>
 8    1  0.1865596E-007  0.1347381E+03  0.7546771E-02  0.1220592E+00
         -5   -1    0    0    0  501 -0.00000000000E+00  0.00000000000E+00  0.85808584189E+02  0.85937204519E+02  0.47000000000E+01 0. -1.
          5   -1    0    0  501    0  0.00000000000E+00 -0.00000000000E+00 -0.28490126587E+03  0.28494003105E+03  0.47000000000E+01 0. -1.
         25    2    1    2    0    0  0.41993965314E+02  0.27651639589E+02 -0.52867781041E+01  0.13483680660E+03  0.12499963239E+03 0.  0.
         25    2    1    2    0    0 -0.41993965314E+02 -0.27651639589E+02 -0.19380590358E+03  0.23604042897E+03  0.12500499810E+03 0.  0.
          5    1    3    3  502    0 -0.22699644232E+01  0.69159024906E+02 -0.20076562817E+02  0.72203059762E+02  0.47000000000E+01 0.  1.
         -5    1    3    3    0  502  0.44263929737E+02 -0.41507385317E+02  0.14789784713E+02  0.62633746842E+02  0.47000000000E+01 0.  1.
          5    1    4    4  503    0 -0.37284670395E+02 -0.25892908282E+02 -0.21185983146E+03  0.21671932893E+03  0.47000000000E+01 0. -1.
         -5    1    4    4    0  503 -0.47092949189E+01 -0.17587313070E+01  0.18053927884E+02  0.19321100033E+02  0.47000000000E+01 0. -1.
<mgrwt>
<rscale>  0 0.13473686E+03</rscale>
<asrwt>0</asrwt>
<pdfrwt beam="2">  1        5 0.43843839E-01 0.13473810E+03</pdfrwt>
<pdfrwt beam="1">  1       -5 0.13214197E-01 0.13473810E+03</pdfrwt>
<totfact> 0.17701858E+02</totfact>
</mgrwt>
</event>
<event>
 8    1  0.1865596E-007  0.1367179E+03  0.7546771E-02  0.1217816E+00
          5   -1    0    0  501    0  0.00000000000E+00  0.00000000000E+00  0.15667945254E+03  0.15674993094E+03  0.47000000000E+01 0. -1.
         -5   -1    0    0    0  501 -0.00000000000E+00 -0.00000000000E+00 -0.11916133477E+03  0.11925398821E+03  0.47000000000E+01 0. -1.
         25    2    1    2    0    0  0.49996580624E+02  0.23793444686E+02  0.19944383324E+02  0.13816115205E+03  0.12499975770E+03 0.  0.
         25    2    1    2    0    0 -0.49996580624E+02 -0.23793444686E+02  0.17573734447E+02  0.13784276710E+03  0.12500402480E+03 0.  0.
          5    1    4    4  502    0  0.63575080802E+01  0.14277105849E+02 -0.43409446725E+02  0.46375895952E+02  0.47000000000E+01 0. -1.
         -5    1    4    4    0  502 -0.56354088705E+02 -0.38070550535E+02  0.60983181171E+02  0.91466871148E+02  0.47000000000E+01 0. -1.
          5    1    3    3  503    0  0.52065358409E+02  0.70342421853E+02  0.10097798355E+01  0.87646834020E+02  0.47000000000E+01 0. -1.
         -5    1    3    3    0  503 -0.20687777850E+01 -0.46548977166E+02  0.18934603489E+02  0.50514318030E+02  0.47000000000E+01 0. -1.
<mgrwt>
<rscale>  0 0.13671695E+03</rscale>
<asrwt>0</asrwt>
<pdfrwt beam="1">  1        5 0.24117080E-01 0.13671793E+03</pdfrwt>
<pdfrwt beam="2">  1       -5 0.18345062E-01 0.13671793E+03</pdfrwt>
<totfact> 0.32120263E+02</totfact>
</mgrwt>
</event>
<event>
 8    1  0.1865596E-007  0.1388163E+03  0.7546771E-02  0.1214931E+00
         -5   -1    0    0    0  501 -0.00000000000E+00  0.00000000000E+00  0.34157910292E+03  0.34161143651E+03  0.47000000000E+01 0.  1.
          5   -1    0    0  501    0  0.00000000000E+00 -0.00000000000E+00 -0.56714755274E+02  0.56909168557E+02  0.47000000000E+01 0.  1.
         25    2    1    2    0    0 -0.35942665035E+02 -0.48503698236E+02  0.15982330226E+03  0.21169119276E+03  0.12500075694E+03 0.  0.
         25    2    1    2    0    0  0.35942665035E+02  0.48503698236E+02  0.12504104539E+03  0.18682941230E+03  0.12500192941E+03 0.  0.
          5    1    3    3  502    0  0.25577650634E+02  0.29521702624E+02  0.45204045420E+02  0.59926979401E+02  0.47000000000E+01 0.  1.
         -5    1    3    3    0  502 -0.61520315669E+02 -0.78025400860E+02  0.11461925684E+03  0.15176421336E+03  0.47000000000E+01 0.  1.
          5    1    4    4  503    0 -0.22656531037E+02 -0.26604987571E+02  0.85667628808E+01  0.36285302652E+02  0.47000000000E+01 0.  1.
         -5    1    4    4    0  503  0.58599196072E+02  0.75108685807E+02  0.11647428251E+03  0.15054410965E+03  0.47000000000E+01 0.  1.
<mgrwt>
<rscale>  0 0.13881604E+03</rscale>
<asrwt>0</asrwt>
<pdfrwt beam="2">  1        5 0.87427890E-02 0.13881630E+03</pdfrwt>
<pdfrwt beam="1">  1       -5 0.52568074E-01 0.13881630E+03</pdfrwt>
<totfact> 0.25202532E+02</totfact>
</mgrwt>
</event>
<event>
 8    1  0.1865596E-007  0.1410240E+03  0.7546771E-02  0.1211965E+00
         -5   -1    0    0    0  501 -0.00000000000E+00  0.00000000000E+00  0.14912141536E+03  0.14919546413E+03  0.47000000000E+01 0. -1.
          5   -1    0    0  501    0  0.00000000000E+00 -0.00000000000E+00 -0.13384557865E+03  0.13392807370E+03  0.47000000000E+01 0. -1.
         25    2    1    2    0    0 -0.60784169316E+02  0.23702057449E+02  0.17491143064E+02  0.14210460997E+03  0.12502510676E+03 0.  0.
         25    2    1    2    0    0  0.60784169316E+02 -0.23702057449E+02 -0.22153063599E+01  0.14101892787E+03  0.12499971067E+03 0.  0.
          5    1    3    3  502    0 -0.12242150490E+02 -0.12842676212E+02  0.63273229541E+02  0.65881683020E+02  0.47000000000E+01 0. -1.
         -5    1    3    3    0  502 -0.48542018826E+02  0.36544733661E+02 -0.45782086477E+02  0.76222926946E+02  0.47000000000E+01 0. -1.
          5    1    4    4  503    0  0.81674317811E+02  0.20443908345E+02  0.20757307335E+02  0.86842405460E+02  0.47000000000E+01 0. -1.
         -5    1    4    4    0  503 -0.20890148495E+02 -0.44145965795E+02 -0.22972613695E+02  0.54176522407E+02  0.47000000000E+01 0. -1.
<mgrwt>
<rscale>  0 0.14101841E+03</rscale>
<asrwt>0</asrwt>
<pdfrwt beam="2">  1        5 0.20603669E-01 0.14102404E+03</pdfrwt>
<pdfrwt beam="1">  1       -5 0.22953798E-01 0.14102404E+03</pdfrwt>
<totfact> 0.28734235E+02</totfact>
</mgrwt>
</event>
<event>
 8    1  0.1865596E-007  0.1551039E+03  0.7546771E-02  0.1194340E+00
         -5   -1    0    0    0  501 -0.00000000000E+00  0.00000000000E+00  0.25737362633E+03  0.25741653701E+03  0.47000000000E+01 0.  1.
          5   -1    0    0  501    0  0.00000000000E+00 -0.00000000000E+00 -0.93586023972E+02  0.93703969409E+02  0.47000000000E+01 0.  1.
         25    2    1    2    0    0  0.30857442544E+02 -0.86486508245E+02  0.90554167954E+02  0.17960306850E+03  0.12500042804E+03 0.  0.
         25    2    1    2    0    0 -0.30857442544E+02  0.86486508245E+02  0.73233434401E+02  0.17151743793E+03  0.12499199067E+03 0.  0.
          5    1    3    3  502    0  0.13715788899E+02  0.29111103036E+02  0.14191299631E+01  0.32552774305E+02  0.47000000000E+01 0.  1.
         -5    1    3    3    0  502  0.17141653645E+02 -0.11559761128E+03  0.89135037991E+02  0.14705029419E+03  0.47000000000E+01 0.  1.
          5    1    4    4  503    0 -0.69246812243E+02  0.40106871713E+02  0.76812036057E+02  0.11102189445E+03  0.47000000000E+01 0. -1.
         -5    1    4    4    0  503  0.38389369699E+02  0.46379636532E+02 -0.35786016560E+01  0.60495543477E+02  0.47000000000E+01 0. -1.
<mgrwt>
<rscale>  0 0.15510215E+03</rscale>
<asrwt>0</asrwt>
<pdfrwt beam="2">  1        5 0.14410224E-01 0.15510385E+03</pdfrwt>
<pdfrwt beam="1">  1       -5 0.39608316E-01 0.15510385E+03</pdfrwt>
<totfact> 0.19564586E+02</totfact>
</mgrwt>
</event>
<event>
 8    1  0.1865596E-007  0.1538510E+03  0.7546771E-02  0.1195826E+00
          5   -1    0    0  501    0  0.00000000000E+00  0.00000000000E+00  0.10456039522E+03  0.10466597464E+03  0.47000000000E+01 0. -1.
         -5   -1    0    0    0  501 -0.00000000000E+00 -0.00000000000E+00 -0.25264505288E+03  0.25268876656E+03  0.47000000000E+01 0. -1.
         25    2    1    2    0    0 -0.35834043655E+02 -0.82188204906E+02 -0.13194969716E+03  0.20268412791E+03  0.12502461124E+03 0.  0.
         25    2    1    2    0    0  0.35834043655E+02  0.82188204906E+02 -0.16134960501E+02  0.15467061329E+03  0.12499472771E+03 0.  0.
          5    1    4    4  502    0  0.28946153384E+02  0.84265805856E+02 -0.61586384800E+02  0.10841392265E+03  0.47000000000E+01 0. -1.
         -5    1    4    4    0  502  0.68878902715E+01 -0.20776009504E+01  0.45451424299E+02  0.46256690639E+02  0.47000000000E+01 0. -1.
          5    1    3    3  503    0  0.11166091894E+02 -0.10028174149E+03 -0.70936966020E+02  0.12343116475E+03  0.47000000000E+01 0.  1.
         -5    1    3    3    0  503 -0.47000135550E+02  0.18093536583E+02 -0.61012731139E+02  0.79252963155E+02  0.47000000000E+01 0.  1.
<mgrwt>
<rscale>  0 0.15384494E+03</rscale>
<asrwt>0</asrwt>
<pdfrwt beam="1">  1        5 0.16097699E-01 0.15385101E+03</pdfrwt>
<pdfrwt beam="2">  1       -5 0.38879954E-01 0.15385101E+03</pdfrwt>
<totfact> 0.16573581E+02</totfact>
</mgrwt>
</event>
<event>
 8    1  0.1865596E-007  0.1425570E+03  0.7546771E-02  0.1209933E+00
         -5   -1    0    0    0  501 -0.00000000000E+00  0.00000000000E+00  0.33988553948E+03  0.33991803416E+03  0.47000000000E+01 0.  1.
          5   -1    0    0  501    0  0.00000000000E+00 -0.00000000000E+00 -0.62232793785E+02  0.62410020207E+02  0.47000000000E+01 0.  1.
         25    2    1    2    0    0  0.26139082584E+01 -0.68481147284E+02  0.17965500779E+03  0.22933658676E+03  0.12499139232E+03 0.  0.
         25    2    1    2    0    0 -0.26139082584E+01  0.68481147284E+02  0.97997737913E+02  0.17299146761E+03  0.12500396466E+03 0.  0.
          5    1    3    3  502    0 -0.29449734701E+02 -0.59682961937E+02  0.25273737276E+02  0.71345599832E+02  0.47000000000E+01 0. -1.
         -5    1    3    3    0  502  0.32063642959E+02 -0.87981853471E+01  0.15438127051E+03  0.15799098692E+03  0.47000000000E+01 0. -1.
          5    1    4    4  503    0  0.18484054486E+02  0.91613944646E+02  0.10491528802E+03  0.14058478859E+03  0.47000000000E+01 0. -1.
         -5    1    4    4    0  503 -0.21097962744E+02 -0.23132797362E+02 -0.69175501052E+01  0.32406679022E+02  0.47000000000E+01 0. -1.
<mgrwt>
<rscale>  0 0.14255422E+03</rscale>
<asrwt>0</asrwt>
<pdfrwt beam="2">  1        5 0.95904083E-02 0.14255698E+03</pdfrwt>
<pdfrwt beam="1">  1       -5 0.52306216E-01 0.14255698E+03</pdfrwt>
<totfact> 0.21892286E+02</totfact>
</mgrwt>
</event>
<event>
 8    1  0.1865596E-007  0.1408785E+03  0.7546771E-02  0.1212158E+00
          5   -1    0    0  501    0  0.00000000000E+00  0.00000000000E+00  0.47482347000E+02  0.47714392762E+02  0.47000000000E+01 0. -1.
         -5   -1    0    0    0  501 -0.00000000000E+00 -0.00000000000E+00 -0.44973366851E+03  0.44975822681E+03  0.47000000000E+01 0. -1.
         25    2    1    2    0    0 -0.61648613744E+02  0.20462688079E+02 -0.26856503495E+03  0.30327202758E+03  0.12500988575E+03 0.  0.
         25    2    1    2    0    0  0.61648613744E+02 -0.20462688079E+02 -0.13368628655E+03  0.19420059199E+03  0.12499029378E+03 0.  0.
          5    1    4    4  502    0  0.36448054120E+02 -0.46112477494E+02 -0.35123816145E+01  0.59069857410E+02  0.47000000000E+01 0.  1.
         -5    1    4    4    0  502  0.25200559624E+02  0.25649789415E+02 -0.13017390494E+03  0.13513073458E+03  0.47000000000E+01 0.  1.
          5    1    3    3  503    0 -0.36399957942E+02 -0.37250602028E+02 -0.39167029815E+02  0.65335369549E+02  0.47000000000E+01 0.  1.
         -5    1    3    3    0  503 -0.25248655801E+02  0.57713290106E+02 -0.22939800514E+03  0.23793665803E+03  0.47000000000E+01 0.  1.
<mgrwt>
<rscale>  0 0.14087413E+03</rscale>
<asrwt>0</asrwt>
<pdfrwt beam="1">  1        5 0.73247156E-02 0.14087847E+03</pdfrwt>
<pdfrwt beam="2">  1       -5 0.69209531E-01 0.14087847E+03</pdfrwt>
<totfact> 0.18776217E+02</totfact>
</mgrwt>
</event>
<event>
 8    1  0.1865596E-007  0.1444850E+03  0.7546771E-02  0.1207426E+00
          5   -1    0    0  501    0  0.00000000000E+00  0.00000000000E+00  0.19379205026E+03  0.19384903596E+03  0.47000000000E+01 0.  1.
         -5   -1    0    0    0  501 -0.00000000000E+00 -0.00000000000E+00 -0.13161398943E+03  0.13169788235E+03  0.47000000000E+01 0.  1.
         25    2    1    2    0    0  0.21559696562E+02 -0.69128055882E+02 -0.38425103001E+02  0.14950721670E+03  0.12502963920E+03 0.  0.
         25    2    1    2    0    0 -0.21559696562E+02  0.69128055882E+02  0.10060316382E+03  0.17603970161E+03  0.12500188536E+03 0.  0.
          5    1    4    4  502    0  0.22330032382E+02  0.90633920354E+02  0.79078245028E+02  0.12242792452E+03  0.47000000000E+01 0. -1.
         -5    1    4    4    0  502 -0.43889728944E+02 -0.21505864471E+02  0.21524918795E+02  0.53611777088E+02  0.47000000000E+01 0. -1.
          5    1    3    3  503    0 -0.31198344154E+01 -0.39676517034E+02  0.43347559465E+02  0.59034399144E+02  0.47000000000E+01 0.  1.
         -5    1    3    3    0  503  0.24679530977E+02 -0.29451538848E+02 -0.81772662466E+02  0.90472817556E+02  0.47000000000E+01 0.  1.
<mgrwt>
<rscale>  0 0.14447901E+03</rscale>
<asrwt>0</asrwt>
<pdfrwt beam="1">  1        5 0.29824998E-01 0.14448501E+03</pdfrwt>
<pdfrwt beam="2">  1       -5 0.20259143E-01 0.14448501E+03</pdfrwt>
<totfact> 0.18041530E+02</totfact>
</mgrwt>
</event>
<event>
 8    1  0.1865596E-007  0.1301805E+03  0.7546771E-02  0.1227190E+00
          5   -1    0    0  501    0  0.00000000000E+00  0.00000000000E+00  0.24779345299E+04  0.24779389873E+04  0.47000000000E+01 0.  1.
         -5   -1    0    0    0  501 -0.00000000000E+00 -0.00000000000E+00 -0.60515586472E+01  0.76623339826E+01  0.47000000000E+01 0.  1.
         25    2    1    2    0    0 -0.33791616839E+02 -0.13371048120E+02  0.11647072247E+04  0.11719598483E+04  0.12500523354E+03 0.  0.
         25    2    1    2    0    0  0.33791616839E+02  0.13371048120E+02  0.13071757466E+04  0.13136414730E+04  0.12499931503E+03 0.  0.
          5    1    3    3  502    0 -0.51088292500E+02  0.70989642171E-01  0.11265043277E+04  0.11276719864E+04  0.47000000000E+01 0. -1.
         -5    1    3    3    0  502  0.17296675661E+02 -0.13442037762E+02  0.38202897072E+02  0.44287861912E+02  0.47000000000E+01 0. -1.
          5    1    4    4  503    0  0.51870137527E+02 -0.36760978783E+02  0.98440863579E+03  0.98647064475E+03  0.47000000000E+01 0.  1.
         -5    1    4    4    0  503 -0.18078520688E+02  0.50132026903E+02  0.32276711077E+03  0.32717082820E+03  0.47000000000E+01 0.  1.
<mgrwt>
<rscale>  0 0.13017910E+03</rscale>
<asrwt>0</asrwt>
<pdfrwt beam="1">  1        5 0.38134503E+00 0.13018052E+03</pdfrwt>
<pdfrwt beam="2">  1       -5 0.10552575E-02 0.13018052E+03</pdfrwt>
<totfact> 0.18359041E+01</totfact>
</mgrwt>
</event>
<event>
 8    1  0.1865596E-007  0.1920246E+03  0.7546771E-02  0.1156655E+00
         -5   -1    0    0    0  501 -0.00000000000E+00  0.00000000000E+00  0.69762478984E+03  0.69764062195E+03  0.47000000000E+01 0. -1.
          5   -1    0    0  501    0  0.00000000000E+00 -0.00000000000E+00 -0.53045118815E+02  0.53252930718E+02  0.47000000000E+01 0. -1.
         25    2    1    2    0    0 -0.13218038368E+03 -0.61459494207E+02  0.35131647149E+03  0.40035573809E+03  0.12495011254E+03 0.  0.
         25    2    1    2    0    0  0.13218038368E+03  0.61459494207E+02  0.29326319953E+03  0.35053781458E+03  0.12499812794E+03 0.  0.
          5    1    3    3  502    0 -0.14472215986E+03 -0.17339520988E+02  0.27086562016E+03  0.30762873196E+03  0.47000000000E+01 0. -1.
         -5    1    3    3    0  502  0.12541776176E+02 -0.44119973218E+02  0.80450851334E+02  0.92727006135E+02  0.47000000000E+01 0. -1.
          5    1    4    4  503    0  0.24802525144E+02  0.45359009273E+02  0.20217772565E+03  0.20873554495E+03  0.47000000000E+01 0. -1.
         -5    1    4    4    0  503  0.10737785854E+03  0.16100484933E+02  0.91085473883E+02  0.14180226963E+03  0.47000000000E+01 0. -1.
<mgrwt>
<rscale>  0 0.19201681E+03</rscale>
<asrwt>0</asrwt>
<pdfrwt beam="2">  1        5 0.81779916E-02 0.19202462E+03</pdfrwt>
<pdfrwt beam="1">  1       -5 0.10734408E+00 0.19202462E+03</pdfrwt>
<totfact> 0.60423681E+01</totfact>
</mgrwt>
</event>
<event>
 8    1  0.1865596E-007  0.1271933E+03  0.7546771E-02  0.1231686E+00
          5   -1    0    0  501    0  0.00000000000E+00  0.00000000000E+00  0.12358889189E+03  0.12367822848E+03  0.47000000000E+01 0.  1.
         -5   -1    0    0    0  501 -0.00000000000E+00 -0.00000000000E+00 -0.15340247942E+03  0.15347446267E+03  0.47000000000E+01 0.  1.
         25    2    1    2    0    0 -0.15955980595E+02 -0.17208880533E+02 -0.68175214477E+02  0.14431214834E+03  0.12500958924E+03 0.  0.
         25    2    1    2    0    0  0.15955980595E+02  0.17208880533E+02  0.38361626952E+02  0.13284054281E+03  0.12499702599E+03 0.  0.
          5    1    3    3  502    0  0.28537574078E+02  0.31682294621E+02 -0.65105850252E+02  0.77968087470E+02  0.47000000000E+01 0. -1.
         -5    1    3    3    0  502 -0.44493554673E+02 -0.48891175154E+02 -0.30693642253E+01  0.66344060866E+02  0.47000000000E+01 0. -1.
          5    1    4    4  503    0  0.80014855702E+01  0.51295641881E+02 -0.26882059320E+02  0.58651528203E+02  0.47000000000E+01 0. -1.
         -5    1    4    4    0  503  0.79544950253E+01 -0.34086761347E+02  0.65243686271E+02  0.74189014608E+02  0.47000000000E+01 0. -1.
<mgrwt>
<rscale>  0 0.12719022E+03</rscale>
<asrwt>0</asrwt>
<pdfrwt beam="1">  1        5 0.19026085E-01 0.12719330E+03</pdfrwt>
<pdfrwt beam="2">  1       -5 0.23612791E-01 0.12719330E+03</pdfrwt>
<totfact> 0.30463171E+02</totfact>
</mgrwt>
</event>
<event>
 8    1  0.1865596E-007  0.2033506E+03  0.7546771E-02  0.1146943E+00
         -5   -1    0    0    0  501 -0.00000000000E+00  0.00000000000E+00  0.39830706990E+02  0.40107047003E+02  0.47000000000E+01 0.  1.
          5   -1    0    0  501    0  0.00000000000E+00 -0.00000000000E+00 -0.14613638397E+04  0.14613713977E+04  0.47000000000E+01 0.  1.
         25    2    1    2    0    0  0.16000403110E+03  0.11167523669E+02 -0.30496937202E+03  0.36654846475E+03  0.12500182233E+03 0.  0.
         25    2    1    2    0    0 -0.16000403110E+03 -0.11167523669E+02 -0.11165637606E+04  0.11349299799E+04  0.12500169655E+03 0.  0.
          5    1    4    4  502    0 -0.10107775725E+03 -0.18704999253E+02 -0.98664046294E+03  0.99199197735E+03  0.47000000000E+01 0.  1.
         -5    1    4    4    0  502 -0.58926273850E+02  0.75374755840E+01 -0.12992329770E+03  0.14293800256E+03  0.47000000000E+01 0.  1.
          5    1    3    3  503    0 -0.60832780199E+01 -0.11177379605E+02  0.47439651554E+01  0.14371335766E+02  0.47000000000E+01 0. -1.
         -5    1    3    3    0  503  0.16608730912E+03  0.22344903275E+02 -0.30971333718E+03  0.35217712898E+03  0.47000000000E+01 0. -1.
<mgrwt>
<rscale>  0 0.20335056E+03</rscale>
<asrwt>0</asrwt>
<pdfrwt beam="2">  1        5 0.22484700E+00 0.20335058E+03</pdfrwt>
<pdfrwt beam="1">  1       -5 0.61496405E-02 0.20335058E+03</pdfrwt>
<totfact> 0.12182256E+01</totfact>
</mgrwt>
</event>
<event>
 8    1  0.1865596E-007  0.1347650E+03  0.7546771E-02  0.1220558E+00
         -5   -1    0    0    0  501 -0.00000000000E+00  0.00000000000E+00  0.28895037600E+02  0.29274787752E+02  0.47000000000E+01 0.  1.
          5   -1    0    0  501    0  0.00000000000E+00 -0.00000000000E+00 -0.67402019241E+03  0.67403657896E+03  0.47000000000E+01 0.  1.
         25    2    1    2    0    0  0.48027716535E+02 -0.15170024969E+02 -0.22674027676E+03  0.26375761512E+03  0.12498053935E+03 0.  0.
         25    2    1    2    0    0 -0.48027716535E+02  0.15170024969E+02 -0.41838487805E+03  0.43955375159E+03  0.12499921258E+03 0.  0.
          5    1    4    4  502    0  0.40274090059E+02  0.18228951103E+02 -0.10768036868E+03  0.11649656127E+03  0.47000000000E+01 0.  1.
         -5    1    4    4    0  502 -0.88301806594E+02 -0.30589261336E+01 -0.31070450937E+03  0.32305719032E+03  0.47000000000E+01 0.  1.
          5    1    3    3  503    0 -0.14528302607E+02 -0.55445868518E+02 -0.12532535341E+03  0.13789071803E+03  0.47000000000E+01 0. -1.
         -5    1    3    3    0  503  0.62556019142E+02  0.40275843549E+02 -0.10141492336E+03  0.12586689709E+03  0.47000000000E+01 0. -1.
<mgrwt>
<rscale>  0 0.13476063E+03</rscale>
<asrwt>0</asrwt>
<pdfrwt beam="2">  1        5 0.10372587E+00 0.13476496E+03</pdfrwt>
<pdfrwt beam="1">  1       -5 0.44758630E-02 0.13476496E+03</pdfrwt>
<totfact> 0.16357540E+02</totfact>
</mgrwt>
</event>
<event>
 8    1  0.1865596E-007  0.1512786E+03  0.7546771E-02  0.1198912E+00
          5   -1    0    0  501    0  0.00000000000E+00  0.00000000000E+00  0.36686127170E+03  0.36689137721E+03  0.47000000000E+01 0.  1.
         -5   -1    0    0    0  501 -0.00000000000E+00 -0.00000000000E+00 -0.65128196917E+02  0.65297565296E+02  0.47000000000E+01 0.  1.
         25    2    1    2    0    0  0.82241848166E+02  0.22284528400E+02  0.19616213903E+03  0.24771554231E+03  0.12499233303E+03 0.  0.
         25    2    1    2    0    0 -0.82241848166E+02 -0.22284528400E+02  0.10557093575E+03  0.18447340020E+03  0.12499956444E+03 0.  0.
          5    1    4    4  502    0 -0.48234477563E+02  0.26539808729E+02  0.11155417072E+03  0.12448834997E+03  0.47000000000E+01 0. -1.
         -5    1    4    4    0  502 -0.34007370603E+02 -0.48824337129E+02 -0.59832349613E+01  0.59985050238E+02  0.47000000000E+01 0. -1.
          5    1    3    3  503    0  0.39084280888E+02 -0.45263528445E+02  0.13179708671E+03  0.14480652639E+03  0.47000000000E+01 0.  1.
         -5    1    3    3    0  503  0.43157567278E+02  0.67548056845E+02  0.64365052318E+02  0.10290901592E+03  0.47000000000E+01 0.  1.
<mgrwt>
<rscale>  0 0.15127710E+03</rscale>
<asrwt>0</asrwt>
<pdfrwt beam="1">  1        5 0.56455540E-01 0.15127859E+03</pdfrwt>
<pdfrwt beam="2">  1       -5 0.10035067E-01 0.15127859E+03</pdfrwt>
<totfact> 0.17501929E+02</totfact>
</mgrwt>
</event>
<event>
 8    1  0.1865596E-007  0.1443323E+03  0.7546771E-02  0.1207616E+00
          5   -1    0    0  501    0  0.00000000000E+00  0.00000000000E+00  0.35461365798E+03  0.35464480318E+03  0.47000000000E+01 0. -1.
         -5   -1    0    0    0  501 -0.00000000000E+00 -0.00000000000E+00 -0.58639105264E+02  0.58827159256E+02  0.47000000000E+01 0. -1.
         25    2    1    2    0    0  0.53434562658E+02 -0.48493156061E+02  0.14400393460E+03  0.20388458196E+03  0.12499980364E+03 0.  0.
         25    2    1    2    0    0 -0.53434562658E+02  0.48493156061E+02  0.15197061812E+03  0.20958738048E+03  0.12499985046E+03 0.  0.
          5    1    4    4  502    0  0.29756313365E+01 -0.31486562010E+02  0.41525520462E+01  0.32242699290E+02  0.47000000000E+01 0.  1.
         -5    1    4    4    0  502 -0.56410193995E+02  0.79979718070E+02  0.14781806607E+03  0.17734468119E+03  0.47000000000E+01 0.  1.
          5    1    3    3  503    0  0.90963064210E+02 -0.45639413800E+02  0.80202100324E+02  0.12965994771E+03  0.47000000000E+01 0.  1.
         -5    1    3    3    0  503 -0.37528501551E+02 -0.28537422602E+01  0.63801834273E+02  0.74224634255E+02  0.47000000000E+01 0.  1.
<mgrwt>
<rscale>  0 0.14433225E+03</rscale>
<asrwt>0</asrwt>
<pdfrwt beam="1">  1        5 0.54572807E-01 0.14433226E+03</pdfrwt>
<pdfrwt beam="2">  1       -5 0.90382626E-02 0.14433226E+03</pdfrwt>
<totfact> 0.22247302E+02</totfact>
</mgrwt>
</event>
<event>
 8    1  0.1865596E-007  0.1301143E+03  0.7546771E-02  0.1227289E+00
         -5   -1    0    0    0  501 -0.00000000000E+00  0.00000000000E+00  0.73518427528E+02  0.73668508782E+02  0.47000000000E+01 0.  1.
          5   -1    0    0  501    0  0.00000000000E+00 -0.00000000000E+00 -0.25141905650E+03  0.25146298331E+03  0.47000000000E+01 0.  1.
         25    2    1    2    0    0  0.24480278498E+02  0.26540478152E+02 -0.41361135829E+02  0.13652406328E+03  0.12499758111E+03 0.  0.
         25    2    1    2    0    0 -0.24480278498E+02 -0.26540478152E+02 -0.13653949315E+03  0.18860742880E+03  0.12500419191E+03 0.  0.
          5    1    3    3  502    0  0.46881657002E+01  0.74813491885E+02 -0.37630979697E+02  0.84007250274E+02  0.47000000000E+01 0. -1.
         -5    1    3    3    0  502  0.19792112798E+02 -0.48273013734E+02 -0.37301561323E+01  0.52516813010E+02  0.47000000000E+01 0. -1.
          5    1    4    4  503    0 -0.31066586160E+02 -0.30016119810E+02  0.76736417566E+01  0.44125672820E+02  0.47000000000E+01 0.  1.
         -5    1    4    4    0  503  0.65863076616E+01  0.34756416580E+01 -0.14421313490E+03  0.14448175598E+03  0.47000000000E+01 0.  1.
<mgrwt>
<rscale>  0 0.13011270E+03</rscale>
<asrwt>0</asrwt>
<pdfrwt beam="2">  1        5 0.38694778E-01 0.13011429E+03</pdfrwt>
<pdfrwt beam="1">  1       -5 0.11325451E-01 0.13011429E+03</pdfrwt>
<totfact> 0.29714190E+02</totfact>
</mgrwt>
</event>
<event>
 8    1  0.1865596E-007  0.1639100E+03  0.7546771E-02  0.1184356E+00
         -5   -1    0    0    0  501 -0.00000000000E+00  0.00000000000E+00  0.44026997058E+03  0.44029505675E+03  0.47000000000E+01 0.  1.
          5   -1    0    0  501    0  0.00000000000E+00 -0.00000000000E+00 -0.66435403299E+02  0.66601447518E+02  0.47000000000E+01 0.  1.
         25    2    1    2    0    0 -0.10576423486E+03  0.74363731588E+01  0.25995833104E+03  0.30731125262E+03  0.12498199507E+03 0.  0.
         25    2    1    2    0    0  0.10576423486E+03 -0.74363731588E+01  0.11387623624E+03  0.19958525164E+03  0.12500040988E+03 0.  0.
          5    1    4    4  502    0  0.10172101983E+03  0.40549202066E+02  0.10208981433E+03  0.14978592676E+03  0.47000000000E+01 0.  1.
         -5    1    4    4    0  502  0.40432150224E+01 -0.47985575224E+02  0.11786421909E+02  0.49799324883E+02  0.47000000000E+01 0.  1.
          5    1    3    3  503    0 -0.47488002132E+02 -0.50110910094E+01  0.83546969566E+01  0.48704335955E+02  0.47000000000E+01 0.  1.
         -5    1    3    3    0  503 -0.58276232725E+02  0.12447464168E+02  0.25160363408E+03  0.25860691667E+03  0.47000000000E+01 0.  1.
<mgrwt>
<rscale>  0 0.16390645E+03</rscale>
<asrwt>0</asrwt>
<pdfrwt beam="2">  1        5 0.10235533E-01 0.16390996E+03</pdfrwt>
<pdfrwt beam="1">  1       -5 0.67748546E-01 0.16390996E+03</pdfrwt>
<totfact> 0.11593658E+02</totfact>
</mgrwt>
</event>
<event>
 8    1  0.1865596E-007  0.1253844E+03  0.7546771E-02  0.1234470E+00
         -5   -1    0    0    0  501 -0.00000000000E+00  0.00000000000E+00  0.62019228843E+02  0.62197063807E+02  0.47000000000E+01 0.  1.
          5   -1    0    0  501    0  0.00000000000E+00 -0.00000000000E+00 -0.28337788894E+03  0.28341686248E+03  0.47000000000E+01 0.  1.
         25    2    1    2    0    0  0.70816282840E+01  0.67618735347E+01 -0.54053807530E+02  0.13653960471E+03  0.12500150860E+03 0.  0.
         25    2    1    2    0    0 -0.70816282840E+01 -0.67618735347E+01 -0.16730485256E+03  0.20907432158E+03  0.12500114343E+03 0.  0.
          5    1    4    4  502    0 -0.19136115627E+02 -0.34732730241E+02 -0.10077670491E+01  0.39945701467E+02  0.47000000000E+01 0. -1.
         -5    1    4    4    0  502  0.12054487343E+02  0.27970856706E+02 -0.16629708551E+03  0.16912862011E+03  0.47000000000E+01 0. -1.
          5    1    3    3  503    0  0.32561817837E+02 -0.37027320330E+02  0.14089396029E+02  0.51496558255E+02  0.47000000000E+01 0.  1.
         -5    1    3    3    0  503 -0.25480189553E+02  0.43789193864E+02 -0.68143203559E+02  0.85043046455E+02  0.47000000000E+01 0.  1.
<mgrwt>
<rscale>  0 0.12538432E+03</rscale>
<asrwt>0</asrwt>
<pdfrwt beam="2">  1        5 0.43613275E-01 0.12538441E+03</pdfrwt>
<pdfrwt beam="1">  1       -5 0.95580976E-02 0.12538441E+03</pdfrwt>
<totfact> 0.30857804E+02</totfact>
</mgrwt>
</event>
<event>
 8    1  0.1865596E-007  0.1411610E+03  0.7546771E-02  0.1211776E+00
         -5   -1    0    0    0  501 -0.00000000000E+00  0.00000000000E+00  0.50135124483E+03  0.50137327481E+03  0.47000000000E+01 0. -1.
          5   -1    0    0  501    0  0.00000000000E+00 -0.00000000000E+00 -0.50841755037E+02  0.51058535577E+02  0.47000000000E+01 0. -1.
         25    2    1    2    0    0 -0.44901955874E+02  0.47801339991E+02  0.35489715287E+03  0.38194033951E+03  0.12500112035E+03 0.  0.
         25    2    1    2    0    0  0.44901955874E+02 -0.47801339991E+02  0.95612336925E+02  0.17049147087E+03  0.12499787567E+03 0.  0.
          5    1    4    4  502    0  0.24974322607E+02 -0.85679392500E+02  0.90403176385E+02  0.12712001962E+03  0.47000000000E+01 0.  1.
         -5    1    4    4    0  502  0.19927633267E+02  0.37878052510E+02  0.52091605404E+01  0.43371451245E+02  0.47000000000E+01 0.  1.
          5    1    3    3  503    0 -0.18824103060E+02  0.67504526874E+02  0.86064547308E+02  0.11108737240E+03  0.47000000000E+01 0.  1.
         -5    1    3    3    0  503 -0.26077852814E+02 -0.19703186883E+02  0.26883260556E+03  0.27085296711E+03  0.47000000000E+01 0.  1.
<mgrwt>
<rscale>  0 0.14116030E+03</rscale>
<asrwt>0</asrwt>
<pdfrwt beam="2">  1        5 0.78401783E-02 0.14116102E+03</pdfrwt>
<pdfrwt beam="1">  1       -5 0.77149333E-01 0.14116102E+03</pdfrwt>
<totfact> 0.13068410E+02</totfact>
</mgrwt>
</event>
<event>
 8    1  0.1865596E-007  0.1878918E+03  0.7546771E-02  0.1160379E+00
         -5   -1    0    0    0  501 -0.00000000000E+00  0.00000000000E+00  0.22452128354E+03  0.22457047171E+03  0.47000000000E+01 0. -1.
          5   -1    0    0  501    0  0.00000000000E+00 -0.00000000000E+00 -0.23812568739E+03  0.23817206595E+03  0.47000000000E+01 0. -1.
         25    2    1    2    0    0  0.13294339303E+03  0.44707688769E+02  0.12810895384E+03  0.22740981816E+03  0.12502239061E+03 0.  0.
         25    2    1    2    0    0 -0.13294339303E+03 -0.44707688769E+02 -0.14171335770E+03  0.23533271950E+03  0.12500435964E+03 0.  0.
          5    1    3    3  502    0  0.29411927958E+02  0.29029191002E+02 -0.19850017525E+02  0.46085449246E+02  0.47000000000E+01 0. -1.
         -5    1    3    3    0  502  0.10353146508E+03  0.15678497767E+02  0.14795897137E+03  0.18132436891E+03  0.47000000000E+01 0. -1.
          5    1    4    4  503    0  0.32575091323E+01 -0.42871548138E+02 -0.67431704262E+02  0.80110584476E+02  0.47000000000E+01 0. -1.
         -5    1    4    4    0  503 -0.13620090217E+03 -0.18361406303E+01 -0.74281653435E+02  0.15522213502E+03  0.47000000000E+01 0. -1.
<mgrwt>
<rscale>  0 0.18788878E+03</rscale>
<asrwt>0</asrwt>
<pdfrwt beam="2">  1        5 0.36642073E-01 0.18789178E+03</pdfrwt>
<pdfrwt beam="1">  1       -5 0.34549087E-01 0.18789178E+03</pdfrwt>
<totfact> 0.46013259E+01</totfact>
</mgrwt>
</event>
<event>
 8    1  0.1865596E-007  0.1540112E+03  0.7546771E-02  0.1195630E+00
         -5   -1    0    0    0  501 -0.00000000000E+00  0.00000000000E+00  0.86462890959E+02  0.86590539396E+02  0.47000000000E+01 0. -1.
          5   -1    0    0  501    0  0.00000000000E+00 -0.00000000000E+00 -0.31924119715E+03  0.31927579294E+03  0.47000000000E+01 0. -1.
         25    2    1    2    0    0  0.71211304354E+02  0.54980187647E+02 -0.39993892011E+02  0.15911688594E+03  0.12499920436E+03 0.  0.
         25    2    1    2    0    0 -0.71211304354E+02 -0.54980187647E+02 -0.19278441418E+03  0.24674944640E+03  0.12500235216E+03 0.  0.
          5    1    4    4  502    0 -0.10564002828E+03 -0.28080777647E+02 -0.14750699292E+03  0.18365388264E+03  0.47000000000E+01 0.  1.
         -5    1    4    4    0  502  0.34428723928E+02 -0.26899410000E+02 -0.45277421259E+02  0.63095563755E+02  0.47000000000E+01 0.  1.
          5    1    3    3  503    0 -0.12865006184E+02 -0.84223941433E+01  0.28984281896E+02  0.33145492970E+02  0.47000000000E+01 0. -1.
         -5    1    3    3    0  503  0.84076310538E+02  0.63402581790E+02 -0.68978173907E+02  0.12597139297E+03  0.47000000000E+01 0. -1.
<mgrwt>
<rscale>  0 0.15401059E+03</rscale>
<asrwt>0</asrwt>
<pdfrwt beam="2">  1        5 0.49126510E-01 0.15401123E+03</pdfrwt>
<pdfrwt beam="1">  1       -5 0.13314464E-01 0.15401123E+03</pdfrwt>
<totfact> 0.14375207E+02</totfact>
</mgrwt>
</event>
<event>
 8    1  0.1865596E-007  0.1886851E+03  0.7546771E-02  0.1159653E+00
         -5   -1    0    0    0  501 -0.00000000000E+00  0.00000000000E+00  0.42454506448E+03  0.42457107977E+03  0.47000000000E+01 0.  1.
          5   -1    0    0  501    0  0.00000000000E+00 -0.00000000000E+00 -0.84277596145E+02  0.84408549401E+02  0.47000000000E+01 0.  1.
         25    2    1    2    0    0  0.14114149032E+03  0.74723116989E+01  0.15028929558E+03  0.24122384934E+03  0.12500126956E+03 0.  0.
         25    2    1    2    0    0 -0.14114149032E+03 -0.74723116989E+01  0.18997817275E+03  0.26775577983E+03  0.12499878311E+03 0.  0.
          5    1    3    3  502    0  0.42127770046E+02  0.36007109791E+02 -0.38536407329E+01  0.55751246726E+02  0.47000000000E+01 0. -1.
         -5    1    3    3    0  502  0.99013720270E+02 -0.28534798093E+02  0.15414293632E+03  0.18547260261E+03  0.47000000000E+01 0. -1.
          5    1    4    4  503    0 -0.56842787324E+02 -0.37877529158E+00 -0.28760721580E+01  0.57110487062E+02  0.47000000000E+01 0. -1.
         -5    1    4    4    0  503 -0.84298702993E+02 -0.70935364073E+01  0.19285424491E+03  0.21064529277E+03  0.47000000000E+01 0. -1.
<mgrwt>
<rscale>  0 0.18868470E+03</rscale>
<asrwt>0</asrwt>
<pdfrwt beam="2">  1        5 0.12977859E-01 0.18868512E+03</pdfrwt>
<pdfrwt beam="1">  1       -5 0.65326700E-01 0.18868512E+03</pdfrwt>
<totfact> 0.86006890E+01</totfact>
</mgrwt>
</event>
<event>
 8    1  0.1865596E-007  0.1304979E+03  0.7546771E-02  0.1226720E+00
         -5   -1    0    0    0  501 -0.00000000000E+00  0.00000000000E+00  0.30659962401E+02  0.31018112361E+02  0.47000000000E+01 0. -1.
          5   -1    0    0  501    0  0.00000000000E+00 -0.00000000000E+00 -0.55183907946E+03  0.55185909399E+03  0.47000000000E+01 0. -1.
         25    2    1    2    0    0  0.26472159228E+02  0.26554968092E+02 -0.26163241532E+03  0.29237172547E+03  0.12499505415E+03 0.  0.
         25    2    1    2    0    0 -0.26472159228E+02 -0.26554968092E+02 -0.25954670174E+03  0.29050548089E+03  0.12499200972E+03 0.  0.
          5    1    4    4  502    0 -0.35318735487E+02  0.35723335650E+02 -0.47574801978E+02  0.69347109309E+02  0.47000000000E+01 0.  1.
         -5    1    4    4    0  502  0.88465762586E+01 -0.62278303742E+02 -0.21197189977E+03  0.22115837158E+03  0.47000000000E+01 0.  1.
          5    1    3    3  503    0  0.27516196777E+02 -0.47671765695E+02 -0.95070919578E+02  0.10995593699E+03  0.47000000000E+01 0. -1.
         -5    1    3    3    0  503 -0.10440375484E+01  0.74226733787E+02 -0.16656149574E+03  0.18241578848E+03  0.47000000000E+01 0. -1.
<mgrwt>
<rscale>  0 0.13049718E+03</rscale>
<asrwt>0</asrwt>
<pdfrwt beam="2">  1        5 0.84927402E-01 0.13049791E+03</pdfrwt>
<pdfrwt beam="1">  1       -5 0.47460073E-02 0.13049791E+03</pdfrwt>
<totfact> 0.23707652E+02</totfact>
</mgrwt>
</event>
<event>
 8    1  0.1865596E-007  0.1281493E+03  0.7546771E-02  0.1230228E+00
         -5   -1    0    0    0  501 -0.00000000000E+00  0.00000000000E+00  0.38118161623E+03  0.38121059081E+03  0.47000000000E+01 0. -1.
          5   -1    0    0  501    0  0.00000000000E+00 -0.00000000000E+00 -0.71018519033E+02  0.71173871931E+02  0.47000000000E+01 0. -1.
         25    2    1    2    0    0  0.22053386906E+02 -0.17643052712E+02  0.29711558964E+03  0.32357367537E+03  0.12499848240E+03 0.  0.
         25    2    1    2    0    0 -0.22053386906E+02  0.17643052712E+02  0.13047507554E+02  0.12881078738E+03  0.12499740920E+03 0.  0.
          5    1    4    4  502    0  0.16686313848E+02  0.64627309609E+02  0.36112855676E+01  0.67009354575E+02  0.47000000000E+01 0.  1.
         -5    1    4    4    0  502 -0.38739700754E+02 -0.46984256897E+02  0.94362219860E+01  0.61801432800E+02  0.47000000000E+01 0.  1.
          5    1    3    3  503    0 -0.13506149439E+02 -0.39513839522E+02  0.27071317140E+03  0.27395523495E+03  0.47000000000E+01 0. -1.
         -5    1    3    3    0  503  0.35559536345E+02  0.21870786810E+02  0.26402418235E+02  0.49618440417E+02  0.47000000000E+01 0. -1.
<mgrwt>
<rscale>  0 0.12814906E+03</rscale>
<asrwt>0</asrwt>
<pdfrwt beam="2">  1        5 0.10940105E-01 0.12814933E+03</pdfrwt>
<pdfrwt beam="1">  1       -5 0.58657506E-01 0.12814933E+03</pdfrwt>
<totfact> 0.13103256E+02</totfact>
</mgrwt>
</event>
<event>
 8    1  0.1865596E-007  0.1513542E+03  0.7546771E-02  0.1198819E+00
          5   -1    0    0  501    0  0.00000000000E+00  0.00000000000E+00  0.67162951655E+03  0.67164596143E+03  0.47000000000E+01 0. -1.
         -5   -1    0    0    0  501 -0.00000000000E+00 -0.00000000000E+00 -0.33934676085E+02  0.34258608276E+02  0.47000000000E+01 0. -1.
         25    2    1    2    0    0  0.66445274355E+02 -0.53549556900E+02  0.31424938170E+03  0.34879806465E+03  0.12499954590E+03 0.  0.
         25    2    1    2    0    0 -0.66445274355E+02  0.53549556900E+02  0.32344545877E+03  0.35710650506E+03  0.12500224649E+03 0.  0.
          5    1    3    3  502    0 -0.28082486565E+02 -0.27163640251E+02  0.34633691997E+02  0.52422056662E+02  0.47000000000E+01 0. -1.
         -5    1    3    3    0  502  0.94527760920E+02 -0.26385916649E+02  0.27961568970E+03  0.29637600799E+03  0.47000000000E+01 0. -1.
          5    1    4    4  503    0 -0.23516096524E+02 -0.53950050383E+00  0.26622152360E+03  0.26729999529E+03  0.47000000000E+01 0.  1.
         -5    1    4    4    0  503 -0.42929177831E+02  0.54089057404E+02  0.57223935174E+02  0.89806509769E+02  0.47000000000E+01 0.  1.
<mgrwt>
<rscale>  0 0.15135363E+03</rscale>
<asrwt>0</asrwt>
<pdfrwt beam="1">  1        5 0.10335380E+00 0.15135419E+03</pdfrwt>
<pdfrwt beam="2">  1       -5 0.52469024E-02 0.15135419E+03</pdfrwt>
<totfact> 0.13158447E+02</totfact>
</mgrwt>
</event>
<event>
 8    1  0.1865596E-007  0.1823339E+03  0.7546771E-02  0.1165563E+00
         -5   -1    0    0    0  501 -0.00000000000E+00  0.00000000000E+00  0.26633119715E+03  0.26637266485E+03  0.47000000000E+01 0.  1.
          5   -1    0    0  501    0  0.00000000000E+00 -0.00000000000E+00 -0.13871025887E+03  0.13878986244E+03  0.47000000000E+01 0.  1.
         25    2    1    2    0    0  0.11218095581E+03  0.70966971083E+02  0.12809011915E+03  0.22282799986E+03  0.12499744423E+03 0.  0.
         25    2    1    2    0    0 -0.11218095581E+03 -0.70966971083E+02 -0.46918086500E+00  0.18233452743E+03  0.12499912771E+03 0.  0.
          5    1    4    4  502    0 -0.10669630795E+03 -0.10328779180E+02 -0.34142116038E+02  0.11259911144E+03  0.47000000000E+01 0.  1.
         -5    1    4    4    0  502 -0.54846478629E+01 -0.60638191903E+02  0.33672935173E+02  0.69735415985E+02  0.47000000000E+01 0.  1.
          5    1    3    3  503    0  0.21670354153E+02  0.50390515355E+02  0.11690361341E+03  0.12921823833E+03  0.47000000000E+01 0. -1.
         -5    1    3    3    0  503  0.90510601662E+02  0.20576455728E+02  0.11186505736E+02  0.93609761532E+02  0.47000000000E+01 0. -1.
<mgrwt>
<rscale>  0 0.18233364E+03</rscale>
<asrwt>0</asrwt>
<pdfrwt beam="2">  1        5 0.21349353E-01 0.18233392E+03</pdfrwt>
<pdfrwt beam="1">  1       -5 0.40983344E-01 0.18233392E+03</pdfrwt>
<totfact> 0.92680277E+01</totfact>
</mgrwt>
</event>
<event>
 8    1  0.1865596E-007  0.1382671E+03  0.7546771E-02  0.1215689E+00
         -5   -1    0    0    0  501 -0.00000000000E+00  0.00000000000E+00  0.37525838567E+02  0.37819023786E+02  0.47000000000E+01 0. -1.
          5   -1    0    0  501    0  0.00000000000E+00 -0.00000000000E+00 -0.10211701377E+04  0.10211809536E+04  0.47000000000E+01 0. -1.
         25    2    1    2    0    0  0.58563606634E+02  0.78970165777E+01 -0.11615806360E+03  0.18056378238E+03  0.12497409682E+03 0.  0.
         25    2    1    2    0    0 -0.58563606634E+02 -0.78970165777E+01 -0.86748623549E+03  0.87843619502E+03  0.12500288427E+03 0.  0.
          5    1    4    4  502    0 -0.31819848323E+02 -0.54531583196E+02 -0.69074067192E+03  0.69363604445E+03  0.47000000000E+01 0.  1.
         -5    1    4    4    0  502 -0.26743758312E+02  0.46634566618E+02 -0.17674556356E+03  0.18480015057E+03  0.47000000000E+01 0.  1.
          5    1    3    3  503    0 -0.12299612679E+02 -0.34141497861E+02  0.17598169066E+01  0.36634810001E+02  0.47000000000E+01 0.  1.
         -5    1    3    3    0  503  0.70863219313E+02  0.42038514439E+02 -0.11791788051E+03  0.14392897238E+03  0.47000000000E+01 0.  1.
<mgrwt>
<rscale>  0 0.13826055E+03</rscale>
<asrwt>0</asrwt>
<pdfrwt beam="2">  1        5 0.15712646E+00 0.13826706E+03</pdfrwt>
<pdfrwt beam="1">  1       -5 0.57965914E-02 0.13826706E+03</pdfrwt>
<totfact> 0.36467105E+01</totfact>
</mgrwt>
</event>
<event>
 8    1  0.1865596E-007  0.1504782E+03  0.7546771E-02  0.1199888E+00
          5   -1    0    0  501    0  0.00000000000E+00  0.00000000000E+00  0.21252803508E+02  0.21766296353E+02  0.47000000000E+01 0. -1.
         -5   -1    0    0    0  501 -0.00000000000E+00 -0.00000000000E+00 -0.10531245312E+04  0.10531350190E+04  0.47000000000E+01 0. -1.
         25    2    1    2    0    0  0.39798833723E+02 -0.73720175336E+02 -0.53197169390E+03  0.55284496833E+03  0.12500025790E+03 0.  0.
         25    2    1    2    0    0 -0.39798833723E+02  0.73720175336E+02 -0.49990003378E+03  0.52205634700E+03  0.12499669697E+03 0.  0.
          5    1    3    3  502    0 -0.30454598467E+01  0.62155263412E+01 -0.34382963979E+03  0.34393141582E+03  0.47000000000E+01 0. -1.
         -5    1    3    3    0  502  0.42844293570E+02 -0.79935701677E+02 -0.18814205411E+03  0.20891355250E+03  0.47000000000E+01 0. -1.
          5    1    4    4  503    0  0.35686737525E+02  0.62723746529E+02 -0.20374851807E+03  0.21620212818E+03  0.47000000000E+01 0.  1.
         -5    1    4    4    0  503 -0.75485571248E+02  0.10996428807E+02 -0.29615151571E+03  0.30585421882E+03  0.47000000000E+01 0.  1.
<mgrwt>
<rscale>  0 0.15047742E+03</rscale>
<asrwt>0</asrwt>
<pdfrwt beam="1">  1        5 0.33099691E-02 0.15047816E+03</pdfrwt>
<pdfrwt beam="2">  1       -5 0.16205943E+00 0.15047816E+03</pdfrwt>
<totfact> 0.86402126E+01</totfact>
</mgrwt>
</event>
<event>
 8    1  0.1865596E-007  0.1357638E+03  0.7546771E-02  0.1219148E+00
         -5   -1    0    0    0  501 -0.00000000000E+00  0.00000000000E+00  0.68678736883E+03  0.68680345077E+03  0.47000000000E+01 0.  1.
          5   -1    0    0  501    0  0.00000000000E+00 -0.00000000000E+00 -0.26839083855E+02  0.27247503045E+02  0.47000000000E+01 0.  1.
         25    2    1    2    0    0 -0.23314945644E+02  0.47562239928E+02  0.29754481512E+03  0.32705463371E+03  0.12500425222E+03 0.  0.
         25    2    1    2    0    0  0.23314945644E+02 -0.47562239928E+02  0.36240346986E+03  0.38699632010E+03  0.12499649374E+03 0.  0.
          5    1    4    4  502    0  0.26710493291E+02 -0.87107074411E+02  0.29336484218E+03  0.30722323071E+03  0.47000000000E+01 0.  1.
         -5    1    4    4    0  502 -0.33955476471E+01  0.39544834483E+02  0.69038627678E+02  0.79773089383E+02  0.47000000000E+01 0.  1.
          5    1    3    3  503    0  0.16299200069E+02  0.43040241525E+02  0.27903788515E+03  0.28284688024E+03  0.47000000000E+01 0. -1.
         -5    1    3    3    0  503 -0.39614145713E+02  0.45219984030E+01  0.18506929968E+02  0.44207753471E+02  0.47000000000E+01 0. -1.
<mgrwt>
<rscale>  0 0.13576204E+03</rscale>
<asrwt>0</asrwt>
<pdfrwt beam="2">  1        5 0.41617444E-02 0.13576383E+03</pdfrwt>
<pdfrwt beam="1">  1       -5 0.10569223E+00 0.13576383E+03</pdfrwt>
<totfact> 0.17647926E+02</totfact>
</mgrwt>
</event>
<event>
 8    1  0.1865596E-007  0.1386447E+03  0.7546771E-02  0.1215185E+00
          5   -1    0    0  501    0  0.00000000000E+00  0.00000000000E+00  0.35754818092E+02  0.36062404478E+02  0.47000000000E+01 0.  1.
         -5   -1    0    0    0  501 -0.00000000000E+00 -0.00000000000E+00 -0.61885690980E+03  0.61887475697E+03  0.47000000000E+01 0.  1.
         25    2    1    2    0    0 -0.15254951669E+02 -0.57859314082E+02 -0.41228783534E+03  0.43497542203E+03  0.12506776094E+03 0.  0.
         25    2    1    2    0    0  0.15254951669E+02  0.57859314082E+02 -0.17081425637E+03  0.21996173941E+03  0.12500097139E+03 0.  0.
          5    1    4    4  502    0  0.21398545423E+02  0.20051884634E+02 -0.17821084186E+03  0.18066867459E+03  0.47000000000E+01 0. -1.
         -5    1    4    4    0  502 -0.61435937540E+01  0.37807429448E+02  0.73965854912E+01  0.39293064816E+02  0.47000000000E+01 0. -1.
          5    1    3    3  503    0  0.95713412875E+01 -0.55547259248E+02 -0.62598853788E+02  0.84367144551E+02  0.47000000000E+01 0. -1.
         -5    1    3    3    0  503 -0.24826292957E+02 -0.23120548346E+01 -0.34968898155E+03  0.35060827748E+03  0.47000000000E+01 0. -1.
<mgrwt>
<rscale>  0 0.13862966E+03</rscale>
<asrwt>0</asrwt>
<pdfrwt beam="1">  1        5 0.55257751E-02 0.13864472E+03</pdfrwt>
<pdfrwt beam="2">  1       -5 0.95233780E-01 0.13864472E+03</pdfrwt>
<totfact> 0.14319535E+02</totfact>
</mgrwt>
</event>
<event>
 8    1  0.1865596E-007  0.1285396E+03  0.7546771E-02  0.1229640E+00
         -5   -1    0    0    0  501 -0.00000000000E+00  0.00000000000E+00  0.60515597432E+02  0.60697837956E+02  0.47000000000E+01 0. -1.
          5   -1    0    0  501    0  0.00000000000E+00 -0.00000000000E+00 -0.32565202799E+03  0.32568594279E+03  0.47000000000E+01 0. -1.
         25    2    1    2    0    0 -0.39167973319E+01 -0.29713286052E+02 -0.54474485988E+02  0.13960273424E+03  0.12499293226E+03 0.  0.
         25    2    1    2    0    0  0.39167973319E+01  0.29713286052E+02 -0.21066194457E+03  0.24678104651E+03  0.12499683738E+03 0.  0.
          5    1    3    3  502    0  0.60347926191E+02 -0.15860625521E+02 -0.24525479025E+02  0.67208784834E+02  0.47000000000E+01 0. -1.
         -5    1    3    3    0  502 -0.64264723523E+02 -0.13852660532E+02 -0.29949006963E+02  0.72393949411E+02  0.47000000000E+01 0. -1.
          5    1    4    4  503    0 -0.44587520904E+02 -0.17520214214E+02 -0.38217375058E+02  0.61462693423E+02  0.47000000000E+01 0.  1.
         -5    1    4    4    0  503  0.48504318236E+02  0.47233500267E+02 -0.17244456951E+03  0.18531835308E+03  0.47000000000E+01 0.  1.
<mgrwt>
<rscale>  0 0.12853866E+03</rscale>
<asrwt>0</asrwt>
<pdfrwt beam="2">  1        5 0.50116938E-01 0.12853960E+03</pdfrwt>
<pdfrwt beam="1">  1       -5 0.93267194E-02 0.12853960E+03</pdfrwt>
<totfact> 0.24288457E+02</totfact>
</mgrwt>
</event>
<event>
 8    1  0.1865596E-007  0.1578025E+03  0.7546771E-02  0.1191201E+00
          5   -1    0    0  501    0  0.00000000000E+00  0.00000000000E+00  0.48213951536E+03  0.48216242312E+03  0.47000000000E+01 0. -1.
         -5   -1    0    0    0  501 -0.00000000000E+00 -0.00000000000E+00 -0.57617855577E+02  0.57809231800E+02  0.47000000000E+01 0. -1.
         25    2    1    2    0    0 -0.15425761758E+02  0.95069184196E+02  0.12457361792E+03  0.20104779786E+03  0.12500210732E+03 0.  0.
         25    2    1    2    0    0  0.15425761758E+02 -0.95069184196E+02  0.29994804186E+03  0.33892385706E+03  0.12499779661E+03 0.  0.
          5    1    3    3  502    0  0.15273875186E+02  0.75154813878E+02  0.14106740593E+03  0.16063511549E+03  0.47000000000E+01 0.  1.
         -5    1    3    3    0  502 -0.30699636944E+02  0.19914370319E+02 -0.16493788011E+02  0.40412682374E+02  0.47000000000E+01 0.  1.
          5    1    4    4  503    0  0.53410917318E+02 -0.22976992556E+02  0.20776233404E+03  0.21579607439E+03  0.47000000000E+01 0.  1.
         -5    1    4    4    0  503 -0.37985155560E+02 -0.72092191641E+02  0.92185707821E+02  0.12312778267E+03  0.47000000000E+01 0.  1.
<mgrwt>
<rscale>  0 0.15780165E+03</rscale>
<asrwt>0</asrwt>
<pdfrwt beam="1">  1        5 0.74191792E-01 0.15780251E+03</pdfrwt>
<pdfrwt beam="2">  1       -5 0.88807690E-02 0.15780251E+03</pdfrwt>
<totfact> 0.11948684E+02</totfact>
</mgrwt>
</event>
<event>
 8    1  0.1865596E-007  0.1258554E+03  0.7546771E-02  0.1233742E+00
          5   -1    0    0  501    0  0.00000000000E+00  0.00000000000E+00  0.16273497730E+02  0.16938616483E+02  0.47000000000E+01 0. -1.
         -5   -1    0    0    0  501 -0.00000000000E+00 -0.00000000000E+00 -0.10477177084E+04  0.10477282503E+04  0.47000000000E+01 0. -1.
         25    2    1    2    0    0  0.14547596743E+02  0.16169958271E+01 -0.67565184249E+03  0.68727359762E+03  0.12500135387E+03 0.  0.
         25    2    1    2    0    0 -0.14547596743E+02 -0.16169958271E+01 -0.35579236818E+03  0.37739326918E+03  0.12499289227E+03 0.  0.
          5    1    4    4  502    0 -0.34431275867E+02 -0.11830494333E+02 -0.35239258254E+03  0.35429944339E+03  0.47000000000E+01 0.  1.
         -5    1    4    4    0  502  0.19883679123E+02  0.10213498506E+02 -0.33997856371E+01  0.23093825789E+02  0.47000000000E+01 0.  1.
          5    1    3    3  503    0 -0.31702504291E+02 -0.47464023609E+02 -0.26761539005E+03  0.27367493365E+03  0.47000000000E+01 0. -1.
         -5    1    3    3    0  503  0.46250101034E+02  0.49081019436E+02 -0.40803645244E+03  0.41359866397E+03  0.47000000000E+01 0. -1.
<mgrwt>
<rscale>  0 0.12585331E+03</rscale>
<asrwt>0</asrwt>
<pdfrwt beam="1">  1        5 0.25555897E-02 0.12585542E+03</pdfrwt>
<pdfrwt beam="2">  1       -5 0.16123926E+00 0.12585542E+03</pdfrwt>
<totfact> 0.12582925E+02</totfact>
</mgrwt>
</event>
<event>
 8    1  0.1865596E-007  0.1381961E+03  0.7546771E-02  0.1215781E+00
          5   -1    0    0  501    0  0.00000000000E+00  0.00000000000E+00  0.14581119367E+03  0.14588692265E+03  0.47000000000E+01 0. -1.
         -5   -1    0    0    0  501 -0.00000000000E+00 -0.00000000000E+00 -0.15086547351E+03  0.15093866668E+03  0.47000000000E+01 0. -1.
         25    2    1    2    0    0 -0.34843666316E+02 -0.47528412456E+02 -0.56601459363E+02  0.14932894374E+03  0.12498950821E+03 0.  0.
         25    2    1    2    0    0  0.34843666316E+02  0.47528412456E+02  0.51547179526E+02  0.14749664559E+03  0.12500047068E+03 0.  0.
          5    1    3    3  502    0 -0.17101364648E+02  0.31078694810E+02 -0.58510313728E+02  0.68584901811E+02  0.47000000000E+01 0.  1.
         -5    1    3    3    0  502 -0.17742301668E+02 -0.78607107266E+02  0.19088543649E+01  0.80744041924E+02  0.47000000000E+01 0.  1.
          5    1    4    4  503    0  0.36434997158E+02  0.67249567438E+02  0.81130015857E+02  0.11159831007E+03  0.47000000000E+01 0.  1.
         -5    1    4    4    0  503 -0.15913308422E+01 -0.19721154982E+02 -0.29582836331E+02  0.35898335519E+02  0.47000000000E+01 0.  1.
<mgrwt>
<rscale>  0 0.13819357E+03</rscale>
<asrwt>0</asrwt>
<pdfrwt beam="1">  1        5 0.22443947E-01 0.13819605E+03</pdfrwt>
<pdfrwt beam="2">  1       -5 0.23221529E-01 0.13819605E+03</pdfrwt>
<totfact> 0.23763881E+02</totfact>
</mgrwt>
</event>
<event>
 8    1  0.1865596E-007  0.1421690E+03  0.7546771E-02  0.1210441E+00
         -5   -1    0    0    0  501 -0.00000000000E+00  0.00000000000E+00  0.35345416103E+03  0.35348540840E+03  0.47000000000E+01 0.  1.
          5   -1    0    0  501    0  0.00000000000E+00 -0.00000000000E+00 -0.57086023872E+02  0.57279177032E+02  0.47000000000E+01 0.  1.
         25    2    1    2    0    0  0.60243883967E+02 -0.30921415039E+02  0.15315678555E+03  0.20896884148E+03  0.12500206514E+03 0.  0.
         25    2    1    2    0    0 -0.60243883967E+02  0.30921415039E+02  0.14321135161E+03  0.20179574394E+03  0.12500628616E+03 0.  0.
          5    1    3    3  502    0  0.92599046187E+01 -0.66005466060E+02  0.12296876846E+03  0.13994954591E+03  0.47000000000E+01 0. -1.
         -5    1    3    3    0  502  0.50983979348E+02  0.35084051021E+02  0.30188017087E+02  0.69019295577E+02  0.47000000000E+01 0. -1.
          5    1    4    4  503    0  0.12967143378E+02 -0.38224536459E+02  0.50639000639E+02  0.64928117027E+02  0.47000000000E+01 0.  1.
         -5    1    4    4    0  503 -0.73211027345E+02  0.69145951498E+02  0.92572350973E+02  0.13686762692E+03  0.47000000000E+01 0.  1.
<mgrwt>
<rscale>  0 0.14216809E+03</rscale>
<asrwt>0</asrwt>
<pdfrwt beam="2">  1        5 0.87997267E-02 0.14216902E+03</pdfrwt>
<pdfrwt beam="1">  1       -5 0.54394825E-01 0.14216902E+03</pdfrwt>
<totfact> 0.23347551E+02</totfact>
</mgrwt>
</event>
<event>
 8    1  0.1865596E-007  0.1361243E+03  0.7546771E-02  0.1218645E+00
          5   -1    0    0  501    0  0.00000000000E+00  0.00000000000E+00  0.22345412498E+03  0.22350354800E+03  0.47000000000E+01 0. -1.
         -5   -1    0    0    0  501 -0.00000000000E+00 -0.00000000000E+00 -0.84343130355E+02  0.84473982019E+02  0.47000000000E+01 0. -1.
         25    2    1    2    0    0 -0.29742409684E+02  0.44953649198E+02  0.48701970143E+02  0.14456511508E+03  0.12498699569E+03 0.  0.
         25    2    1    2    0    0  0.29742409684E+02 -0.44953649198E+02  0.90409024480E+02  0.16341241494E+03  0.12499753653E+03 0.  0.
          5    1    4    4  502    0  0.50252594291E+02 -0.28456964692E+02  0.11391985559E+03  0.12780823749E+03  0.47000000000E+01 0. -1.
         -5    1    4    4    0  502 -0.20510184607E+02 -0.16496684506E+02 -0.23510831112E+02  0.35604177450E+02  0.47000000000E+01 0. -1.
          5    1    3    3  503    0 -0.55779293698E+01 -0.43416498350E+02  0.20722345914E+02  0.48658105647E+02  0.47000000000E+01 0.  1.
         -5    1    3    3    0  503 -0.24164480314E+02  0.88370147548E+02  0.27979624229E+02  0.95907009433E+02  0.47000000000E+01 0.  1.
<mgrwt>
<rscale>  0 0.13612188E+03</rscale>
<asrwt>0</asrwt>
<pdfrwt beam="1">  1        5 0.34391425E-01 0.13612430E+03</pdfrwt>
<pdfrwt beam="2">  1       -5 0.12989734E-01 0.13612430E+03</pdfrwt>
<totfact> 0.30025340E+02</totfact>
</mgrwt>
</event>
<event>
 8    1  0.1865596E-007  0.1277702E+03  0.7546771E-02  0.1230812E+00
         -5   -1    0    0    0  501 -0.00000000000E+00  0.00000000000E+00  0.10699227394E+03  0.10709545593E+03  0.47000000000E+01 0. -1.
          5   -1    0    0  501    0  0.00000000000E+00 -0.00000000000E+00 -0.15812980711E+03  0.15819963937E+03  0.47000000000E+01 0. -1.
         25    2    1    2    0    0 -0.25105411688E+02  0.79187101888E+01 -0.20028903064E+00  0.12774577798E+03  0.12500382397E+03 0.  0.
         25    2    1    2    0    0  0.25105411688E+02 -0.79187101888E+01 -0.50937244142E+02  0.13754931733E+03  0.12502889342E+03 0.  0.
          5    1    3    3  502    0 -0.62171719514E+00 -0.39435761271E+02  0.43315900698E+02  0.58770086376E+02  0.47000000000E+01 0. -1.
         -5    1    3    3    0  502 -0.24483694492E+02  0.47354471460E+02 -0.43516189729E+02  0.68975691600E+02  0.47000000000E+01 0. -1.
          5    1    4    4  503    0 -0.22141726197E+02 -0.55871547920E+02 -0.23401344389E+02  0.64665282998E+02  0.47000000000E+01 0. -1.
         -5    1    4    4    0  503  0.47247137885E+02  0.47952837731E+02 -0.27535899753E+02  0.72884034328E+02  0.47000000000E+01 0. -1.
<mgrwt>
<rscale>  0 0.12776402E+03</rscale>
<asrwt>0</asrwt>
<pdfrwt beam="2">  1        5 0.24340972E-01 0.12777015E+03</pdfrwt>
<pdfrwt beam="1">  1       -5 0.16473659E-01 0.12777015E+03</pdfrwt>
<totfact> 0.37532983E+02</totfact>
</mgrwt>
</event>
<event>
 8    1  0.1865596E-007  0.1359687E+03  0.7546771E-02  0.1218862E+00
         -5   -1    0    0    0  501 -0.00000000000E+00  0.00000000000E+00  0.18161631804E+03  0.18167712288E+03  0.47000000000E+01 0. -1.
          5   -1    0    0  501    0  0.00000000000E+00 -0.00000000000E+00 -0.10185393630E+03  0.10196231824E+03  0.47000000000E+01 0. -1.
         25    2    1    2    0    0  0.38940670792E+02 -0.36645627112E+02  0.46132256465E+02  0.14357352328E+03  0.12500357464E+03 0.  0.
         25    2    1    2    0    0 -0.38940670792E+02  0.36645627112E+02  0.33630125274E+02  0.14006591784E+03  0.12501279209E+03 0.  0.
          5    1    3    3  502    0  0.40929561414E+02 -0.67128917290E+02 -0.10099060987E+02  0.79407818046E+02  0.47000000000E+01 0. -1.
         -5    1    3    3    0  502 -0.19888906221E+01  0.30483290178E+02  0.56231317452E+02  0.64165705235E+02  0.47000000000E+01 0. -1.
          5    1    4    4  503    0 -0.69094165893E+02 -0.11903966734E+02  0.42376466174E+02  0.82058290683E+02  0.47000000000E+01 0.  1.
         -5    1    4    4    0  503  0.30153495101E+02  0.48549593846E+02 -0.87463409005E+01  0.58007627159E+02  0.47000000000E+01 0.  1.
<mgrwt>
<rscale>  0 0.13596654E+03</rscale>
<asrwt>0</asrwt>
<pdfrwt beam="2">  1        5 0.15682851E-01 0.13596866E+03</pdfrwt>
<pdfrwt beam="1">  1       -5 0.27953986E-01 0.13596866E+03</pdfrwt>
<totfact> 0.32160271E+02</totfact>
</mgrwt>
</event>
<event>
 8    1  0.1865596E-007  0.1273311E+03  0.7546771E-02  0.1231472E+00
          5   -1    0    0  501    0  0.00000000000E+00  0.00000000000E+00  0.11920287365E+03  0.11929549483E+03  0.47000000000E+01 0. -1.
         -5   -1    0    0    0  501 -0.00000000000E+00 -0.00000000000E+00 -0.16412741293E+03  0.16419469442E+03  0.47000000000E+01 0. -1.
         25    2    1    2    0    0  0.24125510736E+02 -0.24717891433E+01 -0.81295124794E+02  0.15106987492E+03  0.12500023913E+03 0.  0.
         25    2    1    2    0    0 -0.24125510736E+02  0.24717891433E+01  0.36370585515E+02  0.13242031433E+03  0.12499668054E+03 0.  0.
          5    1    4    4  502    0  0.19659109413E+02  0.18663353644E-01  0.72588792231E+02  0.75350538743E+02  0.47000000000E+01 0. -1.
         -5    1    4    4    0  502 -0.43784620148E+02  0.24531257896E+01 -0.36218206716E+02  0.57069775586E+02  0.47000000000E+01 0. -1.
          5    1    3    3  503    0 -0.70151539675E+00  0.48108625064E+02  0.42487813745E+01  0.48529105417E+02  0.47000000000E+01 0.  1.
         -5    1    3    3    0  503  0.24827026133E+02 -0.50580414207E+02 -0.85543906168E+02  0.10254076950E+03  0.47000000000E+01 0.  1.
<mgrwt>
<rscale>  0 0.12733023E+03</rscale>
<asrwt>0</asrwt>
<pdfrwt beam="1">  1        5 0.18351204E-01 0.12733110E+03</pdfrwt>
<pdfrwt beam="2">  1       -5 0.25262672E-01 0.12733110E+03</pdfrwt>
<totfact> 0.28641496E+02</totfact>
</mgrwt>
</event>
<event>
 8    1  0.1865596E-007  0.1461182E+03  0.7546771E-02  0.1205326E+00
          5   -1    0    0  501    0  0.00000000000E+00  0.00000000000E+00  0.58970973855E+03  0.58972846781E+03  0.47000000000E+01 0. -1.
         -5   -1    0    0    0  501 -0.00000000000E+00 -0.00000000000E+00 -0.36645112250E+02  0.36945287275E+02  0.47000000000E+01 0. -1.
         25    2    1    2    0    0 -0.28074550875E+02  0.70263564157E+02  0.31685974975E+03  0.34892697373E+03  0.12499913251E+03 0.  0.
         25    2    1    2    0    0  0.28074550875E+02 -0.70263564157E+02  0.23620487655E+03  0.27774678136E+03  0.12500152796E+03 0.  0.
          5    1    4    4  502    0  0.64164082423E+02 -0.49141541627E+01  0.68430411588E+02  0.94053121236E+02  0.47000000000E+01 0.  1.
         -5    1    4    4    0  502 -0.36089531548E+02 -0.65349409994E+02  0.16777446497E+03  0.18369366012E+03  0.47000000000E+01 0.  1.
          5    1    3    3  503    0 -0.46913610246E+02 -0.61434071744E+01  0.21461288699E+03  0.21981676356E+03  0.47000000000E+01 0.  1.
         -5    1    3    3    0  503  0.18839059371E+02  0.76406971331E+02  0.10224686275E+03  0.12911021017E+03  0.47000000000E+01 0.  1.
<mgrwt>
<rscale>  0 0.14611770E+03</rscale>
<asrwt>0</asrwt>
<pdfrwt beam="1">  1        5 0.90749110E-01 0.14611821E+03</pdfrwt>
<pdfrwt beam="2">  1       -5 0.56622404E-02 0.14611821E+03</pdfrwt>
<totfact> 0.15690755E+02</totfact>
</mgrwt>
</event>
<event>
 8    1  0.1865596E-007  0.1290307E+03  0.7546771E-02  0.1228905E+00
         -5   -1    0    0    0  501 -0.00000000000E+00  0.00000000000E+00  0.14281434519E+03  0.14289166243E+03  0.47000000000E+01 0. -1.
          5   -1    0    0  501    0  0.00000000000E+00 -0.00000000000E+00 -0.11658669778E+03  0.11668139568E+03  0.47000000000E+01 0. -1.
         25    2    1    2    0    0  0.31640174764E+02 -0.45598427146E+01  0.80903664012E+01  0.12928408615E+03  0.12500811205E+03 0.  0.
         25    2    1    2    0    0 -0.31640174764E+02  0.45598427146E+01  0.18137281013E+02  0.13028897197E+03  0.12499744969E+03 0.  0.
          5    1    4    4  502    0 -0.77673479040E+01 -0.58258559378E+02  0.21702259393E+02  0.62828890624E+02  0.47000000000E+01 0. -1.
         -5    1    4    4    0  502 -0.23872826860E+02  0.62818402092E+02 -0.35649783798E+01  0.67460081341E+02  0.47000000000E+01 0. -1.
          5    1    3    3  503    0 -0.26735317293E+02 -0.16509670754E+01  0.50200255402E+02  0.57093419284E+02  0.47000000000E+01 0. -1.
         -5    1    3    3    0  503  0.58375492057E+02 -0.29088756392E+01 -0.42109889001E+02  0.72190666863E+02  0.47000000000E+01 0. -1.
<mgrwt>
<rscale>  0 0.12902811E+03</rscale>
<asrwt>0</asrwt>
<pdfrwt beam="2">  1        5 0.17949647E-01 0.12903070E+03</pdfrwt>
<pdfrwt beam="1">  1       -5 0.21984670E-01 0.12903070E+03</pdfrwt>
<totfact> 0.39038984E+02</totfact>
</mgrwt>
</event>
<event>
 8    1  0.1865596E-007  0.1254278E+03  0.7546771E-02  0.1234407E+00
          5   -1    0    0  501    0  0.00000000000E+00  0.00000000000E+00  0.46097487241E+02  0.46336468682E+02  0.47000000000E+01 0.  1.
         -5   -1    0    0    0  501 -0.00000000000E+00 -0.00000000000E+00 -0.39074138234E+03  0.39076964810E+03  0.47000000000E+01 0.  1.
         25    2    1    2    0    0 -0.82957596865E+00 -0.10171198598E+02 -0.25097409313E+03  0.28057107590E+03  0.12501196636E+03 0.  0.
         25    2    1    2    0    0  0.82957596865E+00  0.10171198598E+02 -0.93669801974E+02  0.15653504088E+03  0.12500018298E+03 0.  0.
          5    1    3    3  502    0  0.41301286433E+02  0.23692639659E+02 -0.38892779439E+02  0.61659352312E+02  0.47000000000E+01 0.  1.
         -5    1    3    3    0  502 -0.42130862402E+02 -0.33863838257E+02 -0.21208131369E+03  0.21891172359E+03  0.47000000000E+01 0.  1.
          5    1    4    4  503    0 -0.86198893571E+00 -0.35463777716E+02  0.14820281345E+02  0.38731812428E+02  0.47000000000E+01 0. -1.
         -5    1    4    4    0  503  0.16915649044E+01  0.45634976314E+02 -0.10849008332E+03  0.11780322845E+03  0.47000000000E+01 0. -1.
<mgrwt>
<rscale>  0 0.12542486E+03</rscale>
<asrwt>0</asrwt>
<pdfrwt beam="1">  1        5 0.71124788E-02 0.12542780E+03</pdfrwt>
<pdfrwt beam="2">  1       -5 0.60134614E-01 0.12542780E+03</pdfrwt>
<totfact> 0.25893363E+02</totfact>
</mgrwt>
</event>
<event>
 8    1  0.1865596E-007  0.1400730E+03  0.7546771E-02  0.1213234E+00
         -5   -1    0    0    0  501 -0.00000000000E+00  0.00000000000E+00  0.85204761236E+02  0.85334291684E+02  0.47000000000E+01 0. -1.
          5   -1    0    0  501    0  0.00000000000E+00 -0.00000000000E+00 -0.23339578886E+03  0.23344310711E+03  0.47000000000E+01 0. -1.
         25    2    1    2    0    0  0.54588996879E+02 -0.31876120782E+02 -0.54686453646E+02  0.15036976518E+03  0.12499764963E+03 0.  0.
         25    2    1    2    0    0 -0.54588996879E+02  0.31876120782E+02 -0.93504573977E+02  0.16840763361E+03  0.12498791961E+03 0.  0.
          5    1    3    3  502    0 -0.83272568208E+01 -0.14484996914E+01 -0.76420310361E+02  0.77029833137E+02  0.47000000000E+01 0.  1.
         -5    1    3    3    0  502  0.62916253700E+02 -0.30427621091E+02  0.21733856714E+02  0.73339932046E+02  0.47000000000E+01 0.  1.
          5    1    4    4  503    0 -0.83688719090E+02  0.34260287864E+02 -0.10319139463E+03  0.13728846621E+03  0.47000000000E+01 0. -1.
         -5    1    4    4    0  503  0.29099722211E+02 -0.23841670820E+01  0.96868206555E+01  0.31119167403E+02  0.47000000000E+01 0. -1.
<mgrwt>
<rscale>  0 0.14007087E+03</rscale>
<asrwt>0</asrwt>
<pdfrwt beam="2">  1        5 0.35920648E-01 0.14007305E+03</pdfrwt>
<pdfrwt beam="1">  1       -5 0.13122029E-01 0.14007305E+03</pdfrwt>
<totfact> 0.27287262E+02</totfact>
</mgrwt>
</event>
<event>
 8    1  0.1865596E-007  0.1332121E+03  0.7546771E-02  0.1222774E+00
         -5   -1    0    0    0  501 -0.00000000000E+00  0.00000000000E+00  0.31248467515E+02  0.31599948134E+02  0.47000000000E+01 0.  1.
          5   -1    0    0  501    0  0.00000000000E+00 -0.00000000000E+00 -0.58147115612E+03  0.58149015074E+03  0.47000000000E+01 0.  1.
         25    2    1    2    0    0  0.36307123531E+02 -0.28324227396E+02 -0.22235388978E+03  0.25919265369E+03  0.12497643919E+03 0.  0.
         25    2    1    2    0    0 -0.36307123531E+02  0.28324227396E+02 -0.32786879883E+03  0.35389744518E+03  0.12499993352E+03 0.  0.
          5    1    3    3  502    0  0.29987106277E+02  0.41262778304E+02 -0.14996667271E+03  0.15847377177E+03  0.47000000000E+01 0. -1.
         -5    1    3    3    0  502  0.63200172536E+01 -0.69587005700E+02 -0.72387217075E+02  0.10071888192E+03  0.47000000000E+01 0. -1.
          5    1    4    4  503    0 -0.13640440388E+02  0.75143727738E+02 -0.23749348187E+03  0.24951530086E+03  0.47000000000E+01 0. -1.
         -5    1    4    4    0  503 -0.22666683143E+02 -0.46819500342E+02 -0.90375316955E+02  0.10438214431E+03  0.47000000000E+01 0. -1.
<mgrwt>
<rscale>  0 0.13320655E+03</rscale>
<asrwt>0</asrwt>
<pdfrwt beam="2">  1        5 0.89485591E-01 0.13321206E+03</pdfrwt>
<pdfrwt beam="1">  1       -5 0.48359550E-02 0.13321206E+03</pdfrwt>
<totfact> 0.20468182E+02</totfact>
</mgrwt>
</event>
<event>
 8    1  0.1865596E-007  0.1292208E+03  0.7546771E-02  0.1228619E+00
          5   -1    0    0  501    0  0.00000000000E+00  0.00000000000E+00  0.91613813910E+02  0.91734295109E+02  0.47000000000E+01 0.  1.
         -5   -1    0    0    0  501 -0.00000000000E+00 -0.00000000000E+00 -0.18222395073E+03  0.18228455289E+03  0.47000000000E+01 0.  1.
         25    2    1    2    0    0 -0.27438868758E+02 -0.17894874984E+02 -0.50243761702E+02  0.13864504976E+03  0.12499958465E+03 0.  0.
         25    2    1    2    0    0  0.27438868758E+02  0.17894874984E+02 -0.40366375123E+02  0.13537379824E+03  0.12499401161E+03 0.  0.
          5    1    3    3  502    0 -0.20899546784E+02 -0.59320951730E+02 -0.68101552564E+02  0.92820675668E+02  0.47000000000E+01 0. -1.
         -5    1    3    3    0  502 -0.65393219745E+01  0.41426076746E+02  0.17857790862E+02  0.45824374092E+02  0.47000000000E+01 0. -1.
          5    1    4    4  503    0 -0.26983739784E+02  0.29870833592E+02 -0.63110724656E+02  0.75002949801E+02  0.47000000000E+01 0.  1.
         -5    1    4    4    0  503  0.54422608542E+02 -0.11975958608E+02  0.22744349533E+02  0.60370848435E+02  0.47000000000E+01 0.  1.
<mgrwt>
<rscale>  0 0.12921945E+03</rscale>
<asrwt>0</asrwt>
<pdfrwt beam="1">  1        5 0.14108362E-01 0.12922080E+03</pdfrwt>
<pdfrwt beam="2">  1       -5 0.28048383E-01 0.12922080E+03</pdfrwt>
<totfact> 0.37987803E+02</totfact>
</mgrwt>
</event>
<event>
 8    1  0.1865596E-007  0.1305121E+03  0.7546771E-02  0.1226706E+00
         -5   -1    0    0    0  501 -0.00000000000E+00  0.00000000000E+00  0.87236154784E+02  0.87362673388E+02  0.47000000000E+01 0.  1.
          5   -1    0    0  501    0  0.00000000000E+00 -0.00000000000E+00 -0.20223462246E+03  0.20228922987E+03  0.47000000000E+01 0.  1.
         25    2    1    2    0    0 -0.33593305628E+02 -0.16554702359E+02 -0.85023170961E+02  0.15576375272E+03  0.12502335266E+03 0.  0.
         25    2    1    2    0    0  0.33593305628E+02  0.16554702359E+02 -0.29975296711E+02  0.13388815053E+03  0.12499980034E+03 0.  0.
          5    1    3    3  502    0  0.21652296957E+02 -0.57477025116E+02 -0.40411709623E+02  0.73672428047E+02  0.47000000000E+01 0. -1.
         -5    1    3    3    0  502 -0.55245602585E+02  0.40922322756E+02 -0.44611461338E+02  0.82091324678E+02  0.47000000000E+01 0. -1.
          5    1    4    4  503    0  0.53813954467E+01  0.57441930971E+02 -0.53410654275E+02  0.78761175973E+02  0.47000000000E+01 0.  1.
         -5    1    4    4    0  503  0.28211910181E+02 -0.40887228612E+02  0.23435357564E+02  0.55126974557E+02  0.47000000000E+01 0.  1.
<mgrwt>
<rscale>  0 0.13050645E+03</rscale>
<asrwt>0</asrwt>
<pdfrwt beam="2">  1        5 0.31126951E-01 0.13051210E+03</pdfrwt>
<pdfrwt beam="1">  1       -5 0.13434880E-01 0.13051210E+03</pdfrwt>
<totfact> 0.33950855E+02</totfact>
</mgrwt>
</event>
<event>
 8    1  0.1865596E-007  0.1271547E+03  0.7546771E-02  0.1231741E+00
          5   -1    0    0  501    0  0.00000000000E+00  0.00000000000E+00  0.39875377264E+02  0.40151409838E+02  0.47000000000E+01 0.  1.
         -5   -1    0    0    0  501 -0.00000000000E+00 -0.00000000000E+00 -0.40485635688E+03  0.40488363724E+03  0.47000000000E+01 0.  1.
         25    2    1    2    0    0 -0.78063410924E+01  0.21968025476E+02 -0.19398727534E+03  0.23194693921E+03  0.12499914604E+03 0.  0.
         25    2    1    2    0    0  0.78063410924E+01 -0.21968025476E+02 -0.17099370428E+03  0.21308810787E+03  0.12499664679E+03 0.  0.
          5    1    4    4  502    0 -0.27915773055E+02  0.33279930233E+01 -0.16640249066E+03  0.16882607862E+03  0.47000000000E+01 0.  1.
         -5    1    4    4    0  502  0.35722114147E+02 -0.25296018500E+02 -0.45912136170E+01  0.44262029253E+02  0.47000000000E+01 0.  1.
          5    1    3    3  503    0 -0.32264075079E+02  0.67663795086E+02 -0.11379520650E+03  0.13634807930E+03  0.47000000000E+01 0. -1.
         -5    1    3    3    0  503  0.24457733986E+02 -0.45695769610E+02 -0.80192068835E+02  0.95598859909E+02  0.47000000000E+01 0. -1.
<mgrwt>
<rscale>  0 0.12715409E+03</rscale>
<asrwt>0</asrwt>
<pdfrwt beam="1">  1        5 0.61580055E-02 0.12715471E+03</pdfrwt>
<pdfrwt beam="2">  1       -5 0.62308922E-01 0.12715471E+03</pdfrwt>
<totfact> 0.30706648E+02</totfact>
</mgrwt>
</event>
<event>
 8    1  0.1865596E-007  0.1354837E+03  0.7546771E-02  0.1219552E+00
          5   -1    0    0  501    0  0.00000000000E+00  0.00000000000E+00  0.18933584636E+02  0.19508219477E+02  0.47000000000E+01 0.  1.
         -5   -1    0    0    0  501 -0.00000000000E+00 -0.00000000000E+00 -0.98183293163E+03  0.98184418093E+03  0.47000000000E+01 0.  1.
         25    2    1    2    0    0 -0.10041083341E+02 -0.51181056405E+02 -0.56544875011E+03  0.58144430817E+03  0.12499948245E+03 0.  0.
         25    2    1    2    0    0  0.10041083341E+02  0.51181056405E+02 -0.39745059688E+03  0.41990809223E+03  0.12504201324E+03 0.  0.
          5    1    3    3  502    0 -0.44000073870E+02  0.16758073387E+02 -0.11094596575E+03  0.12061482844E+03  0.47000000000E+01 0. -1.
         -5    1    3    3    0  502  0.33958990529E+02 -0.67939129792E+02 -0.45450278436E+03  0.46082947973E+03  0.47000000000E+01 0. -1.
          5    1    4    4  503    0 -0.17623257193E+02  0.24022613598E+02 -0.37216564033E+03  0.37338588484E+03  0.47000000000E+01 0.  1.
         -5    1    4    4    0  503  0.27664340534E+02  0.27158442807E+02 -0.25284956549E+02  0.46522207392E+02  0.47000000000E+01 0.  1.
<mgrwt>
<rscale>  0 0.13547387E+03</rscale>
<asrwt>0</asrwt>
<pdfrwt beam="1">  1        5 0.29579280E-02 0.13548369E+03</pdfrwt>
<pdfrwt beam="2">  1       -5 0.15109625E+00 0.13548369E+03</pdfrwt>
<totfact> 0.12196862E+02</totfact>
</mgrwt>
</event>
<event>
 8    1  0.1865596E-007  0.1386971E+03  0.7546771E-02  0.1215113E+00
         -5   -1    0    0    0  501 -0.00000000000E+00  0.00000000000E+00  0.21099381317E+02  0.21616518960E+02  0.47000000000E+01 0. -1.
          5   -1    0    0  501    0  0.00000000000E+00 -0.00000000000E+00 -0.13498574678E+04  0.13498656501E+04  0.47000000000E+01 0. -1.
         25    2    1    2    0    0  0.67277630635E+01  0.59722231699E+02 -0.26858307420E+03  0.30228091836E+03  0.12499951242E+03 0.  0.
         25    2    1    2    0    0 -0.67277630635E+01 -0.59722231699E+02 -0.10601750123E+04  0.10692012507E+04  0.12493298246E+03 0.  0.
          5    1    3    3  502    0  0.33106065717E+02  0.49652778651E+02 -0.40192402935E+02  0.72103600941E+02  0.47000000000E+01 0.  1.
         -5    1    3    3    0  502 -0.26378302654E+02  0.10069453048E+02 -0.22839067126E+03  0.23017731742E+03  0.47000000000E+01 0.  1.
          5    1    4    4  503    0  0.55668538901E+02 -0.75748384696E+01 -0.37817048904E+03  0.38234980473E+03  0.47000000000E+01 0. -1.
         -5    1    4    4    0  503 -0.62396301965E+02 -0.52147393229E+02 -0.68200452322E+03  0.68685144596E+03  0.47000000000E+01 0. -1.
<mgrwt>
<rscale>  0 0.13868211E+03</rscale>
<asrwt>0</asrwt>
<pdfrwt beam="2">  1        5 0.20771072E+00 0.13869710E+03</pdfrwt>
<pdfrwt beam="1">  1       -5 0.32864690E-02 0.13869710E+03</pdfrwt>
<totfact> 0.40710294E+01</totfact>
</mgrwt>
</event>
<event>
 8    1  0.1865596E-007  0.1285484E+03  0.7546771E-02  0.1229636E+00
         -5   -1    0    0    0  501 -0.00000000000E+00  0.00000000000E+00  0.41998432030E+02  0.42260599770E+02  0.47000000000E+01 0. -1.
          5   -1    0    0  501    0  0.00000000000E+00 -0.00000000000E+00 -0.53927684197E+03  0.53929732272E+03  0.47000000000E+01 0. -1.
         25    2    1    2    0    0  0.29766279761E+02 -0.25284636914E+01 -0.96637074765E+02  0.16079888105E+03  0.12500052555E+03 0.  0.
         25    2    1    2    0    0 -0.29766279761E+02  0.25284636914E+01 -0.40064133518E+03  0.42075904144E+03  0.12502906445E+03 0.  0.
          5    1    3    3  502    0  0.43100054595E+02  0.15209594553E+02  0.13865228566E+02  0.47992510205E+02  0.47000000000E+01 0. -1.
         -5    1    3    3    0  502 -0.13333774834E+02 -0.17738058245E+02 -0.11050230333E+03  0.11280637084E+03  0.47000000000E+01 0. -1.
          5    1    4    4  503    0 -0.51747774415E+02  0.17048242838E+02 -0.38677100009E+03  0.39061793513E+03  0.47000000000E+01 0. -1.
         -5    1    4    4    0  503  0.21981494654E+02 -0.14519779146E+02 -0.13870335094E+02  0.30141106305E+02  0.47000000000E+01 0. -1.
<mgrwt>
<rscale>  0 0.12854146E+03</rscale>
<asrwt>0</asrwt>
<pdfrwt beam="2">  1        5 0.82987405E-01 0.12854840E+03</pdfrwt>
<pdfrwt beam="1">  1       -5 0.64830398E-02 0.12854840E+03</pdfrwt>
<totfact> 0.14783220E+02</totfact>
</mgrwt>
</event>
<event>
 8    1  0.1865596E-007  0.1663889E+03  0.7546771E-02  0.1181669E+00
          5   -1    0    0  501    0  0.00000000000E+00  0.00000000000E+00  0.38482704701E+03  0.38485574715E+03  0.47000000000E+01 0.  1.
         -5   -1    0    0    0  501 -0.00000000000E+00 -0.00000000000E+00 -0.71956229029E+02  0.72109561752E+02  0.47000000000E+01 0.  1.
         25    2    1    2    0    0  0.83552370252E+02  0.71262595611E+02  0.16595416138E+03  0.23500219986E+03  0.12500357656E+03 0.  0.
         25    2    1    2    0    0 -0.83552370252E+02 -0.71262595611E+02  0.14691665660E+03  0.22196310904E+03  0.12499504662E+03 0.  0.
          5    1    4    4  502    0 -0.30660166486E+02  0.35439788402E+02  0.38173687331E+02  0.60624622187E+02  0.47000000000E+01 0.  1.
         -5    1    4    4    0  502 -0.52892203766E+02 -0.10670238401E+03  0.10874296927E+03  0.16133848685E+03  0.47000000000E+01 0.  1.
          5    1    3    3  503    0  0.96932045496E+02  0.59489797745E+02  0.62379508042E+02  0.12980042567E+03  0.47000000000E+01 0.  1.
         -5    1    3    3    0  503 -0.13379675244E+02  0.11772797866E+02  0.10357465334E+03  0.10520177419E+03  0.47000000000E+01 0.  1.
<mgrwt>
<rscale>  0 0.16638725E+03</rscale>
<asrwt>0</asrwt>
<pdfrwt beam="1">  1        5 0.59218163E-01 0.16638885E+03</pdfrwt>
<pdfrwt beam="2">  1       -5 0.11084192E-01 0.16638885E+03</pdfrwt>
<totfact> 0.13643978E+02</totfact>
</mgrwt>
</event>
<event>
 8    1  0.1865596E-007  0.1368425E+03  0.7546771E-02  0.1217645E+00
          5   -1    0    0  501    0  0.00000000000E+00  0.00000000000E+00  0.10774357403E+04  0.10774459914E+04  0.47000000000E+01 0. -1.
         -5   -1    0    0    0  501 -0.00000000000E+00 -0.00000000000E+00 -0.19925383444E+02  0.20472198353E+02  0.47000000000E+01 0. -1.
         25    2    1    2    0    0 -0.10189428907E+02 -0.54823381178E+02  0.32331135791E+03  0.35107547196E+03  0.12495729379E+03 0.  0.
         25    2    1    2    0    0  0.10189428907E+02  0.54823381178E+02  0.73419899891E+03  0.74684271780E+03  0.12496578551E+03 0.  0.
          5    1    3    3  502    0 -0.65337961630E+02 -0.19224303159E+02  0.12945089511E+03  0.14634974311E+03  0.47000000000E+01 0.  1.
         -5    1    3    3    0  502  0.55148532724E+02 -0.35599078019E+02  0.19386046280E+03  0.20472572885E+03  0.47000000000E+01 0.  1.
          5    1    4    4  503    0  0.58947017046E+02  0.59971719292E+02  0.53818835726E+03  0.54473861239E+03  0.47000000000E+01 0. -1.
         -5    1    4    4    0  503 -0.48757588139E+02 -0.51483381136E+01  0.19601064165E+03  0.20210410541E+03  0.47000000000E+01 0. -1.
<mgrwt>
<rscale>  0 0.13684058E+03</rscale>
<asrwt>0</asrwt>
<pdfrwt beam="1">  1        5 0.16580216E+00 0.13684252E+03</pdfrwt>
<pdfrwt beam="2">  1       -5 0.31082954E-02 0.13684252E+03</pdfrwt>
<totfact> 0.87178239E+01</totfact>
</mgrwt>
</event>
<event>
 8    1  0.1865596E-007  0.1430431E+03  0.7546771E-02  0.1209294E+00
         -5   -1    0    0    0  501 -0.00000000000E+00  0.00000000000E+00  0.67668758463E+03  0.67670390659E+03  0.47000000000E+01 0.  1.
          5   -1    0    0  501    0  0.00000000000E+00 -0.00000000000E+00 -0.35647490812E+02  0.35955995344E+02  0.47000000000E+01 0.  1.
         25    2    1    2    0    0  0.54038594438E+02 -0.43761990307E+02  0.46118446589E+03  0.48285702166E+03  0.12499804120E+03 0.  0.
         25    2    1    2    0    0 -0.54038594438E+02  0.43761990307E+02  0.17985562793E+03  0.22980288027E+03  0.12500414153E+03 0.  0.
          5    1    3    3  502    0  0.19383774865E+02 -0.79486160770E+02  0.36898695456E+03  0.37797783416E+03  0.47000000000E+01 0. -1.
         -5    1    3    3    0  502  0.34654819573E+02  0.35724170463E+02  0.92197511333E+02  0.10487918750E+03  0.47000000000E+01 0. -1.
          5    1    4    4  503    0 -0.59890910784E+02  0.81552969039E+02  0.15028931590E+03  0.18123679656E+03  0.47000000000E+01 0.  1.
         -5    1    4    4    0  503  0.58523163461E+01 -0.37790978732E+02  0.29566312024E+02  0.48566083709E+02  0.47000000000E+01 0.  1.
<mgrwt>
<rscale>  0 0.14304173E+03</rscale>
<asrwt>0</asrwt>
<pdfrwt beam="2">  1        5 0.55092165E-02 0.14304306E+03</pdfrwt>
<pdfrwt beam="1">  1       -5 0.10413076E+00 0.14304306E+03</pdfrwt>
<totfact> 0.11696353E+02</totfact>
</mgrwt>
</event>
<event>
 8    1  0.1865596E-007  0.1623338E+03  0.7546771E-02  0.1186088E+00
          5   -1    0    0  501    0  0.00000000000E+00  0.00000000000E+00  0.30959697311E+02  0.31314419324E+02  0.47000000000E+01 0. -1.
         -5   -1    0    0    0  501 -0.00000000000E+00 -0.00000000000E+00 -0.86564175479E+03  0.86565451402E+03  0.47000000000E+01 0. -1.
         25    2    1    2    0    0  0.97435662979E+02  0.35118470584E+02 -0.34971814572E+03  0.38555810201E+03  0.12500101273E+03 0.  0.
         25    2    1    2    0    0 -0.97435662979E+02 -0.35118470584E+02 -0.48496391176E+03  0.51141083133E+03  0.12499610912E+03 0.  0.
          5    1    4    4  502    0  0.11406865401E+02 -0.17451224454E+02 -0.96461259618E+01  0.23447804999E+02  0.47000000000E+01 0. -1.
         -5    1    4    4    0  502 -0.10884252838E+03 -0.17667246130E+02 -0.47531778580E+03  0.48796302633E+03  0.47000000000E+01 0. -1.
          5    1    3    3  503    0 -0.23808668345E+02 -0.17636285368E+02 -0.61977090205E+02  0.68855943536E+02  0.47000000000E+01 0. -1.
         -5    1    3    3    0  503  0.12124433132E+03  0.52754755952E+02 -0.28774105552E+03  0.31670215848E+03  0.47000000000E+01 0. -1.
<mgrwt>
<rscale>  0 0.16233287E+03</rscale>
<asrwt>0</asrwt>
<pdfrwt beam="1">  1        5 0.47912988E-02 0.16233382E+03</pdfrwt>
<pdfrwt beam="2">  1       -5 0.13320390E+00 0.16233382E+03</pdfrwt>
<totfact> 0.82064217E+01</totfact>
</mgrwt>
</event>
<event>
 8    1  0.1865596E-007  0.1301128E+03  0.7546771E-02  0.1227304E+00
         -5   -1    0    0    0  501 -0.00000000000E+00  0.00000000000E+00  0.22743409354E+02  0.23223967556E+02  0.47000000000E+01 0. -1.
          5   -1    0    0  501    0  0.00000000000E+00 -0.00000000000E+00 -0.73980838756E+03  0.73982331695E+03  0.47000000000E+01 0. -1.
         25    2    1    2    0    0 -0.13119872808E+02 -0.33488284987E+02 -0.33070366468E+03  0.35537903880E+03  0.12504299695E+03 0.  0.
         25    2    1    2    0    0  0.13119872808E+02  0.33488284987E+02 -0.38636131353E+03  0.40766824571E+03  0.12499895072E+03 0.  0.
          5    1    3    3  502    0 -0.64190983141E+02  0.14279494976E+01 -0.21024433476E+03  0.21988017568E+03  0.47000000000E+01 0. -1.
         -5    1    3    3    0  502  0.51071110333E+02 -0.34916234484E+02 -0.12045932992E+03  0.13549886312E+03  0.47000000000E+01 0. -1.
          5    1    4    4  503    0 -0.54168483707E+02  0.51213525623E+01 -0.20373348614E+03  0.21092623416E+03  0.47000000000E+01 0.  1.
         -5    1    4    4    0  503  0.67288356515E+02  0.28366932424E+02 -0.18262782738E+03  0.19674201156E+03  0.47000000000E+01 0.  1.
<mgrwt>
<rscale>  0 0.13010224E+03</rscale>
<asrwt>0</asrwt>
<pdfrwt beam="2">  1        5 0.11385477E+00 0.13011283E+03</pdfrwt>
<pdfrwt beam="1">  1       -5 0.35371011E-02 0.13011283E+03</pdfrwt>
<totfact> 0.18866946E+02</totfact>
</mgrwt>
</event>
<event>
 8    1  0.1865596E-007  0.1397256E+03  0.7546771E-02  0.1213702E+00
          5   -1    0    0  501    0  0.00000000000E+00  0.00000000000E+00  0.43668358112E+03  0.43670887330E+03  0.47000000000E+01 0. -1.
         -5   -1    0    0    0  501 -0.00000000000E+00 -0.00000000000E+00 -0.44904772785E+02  0.45150067761E+02  0.47000000000E+01 0. -1.
         25    2    1    2    0    0  0.51555458007E+02 -0.35156429387E+02  0.17465929173E+03  0.22366499220E+03  0.12500488300E+03 0.  0.
         25    2    1    2    0    0 -0.51555458007E+02  0.35156429387E+02  0.21711951661E+03  0.25819394886E+03  0.12501716265E+03 0.  0.
          5    1    3    3  502    0 -0.16298708331E+02 -0.13374725071E+02  0.14455524055E+03  0.14616031861E+03  0.47000000000E+01 0.  1.
         -5    1    3    3    0  502  0.67854166338E+02 -0.21781704316E+02  0.30104051174E+02  0.77504673597E+02  0.47000000000E+01 0.  1.
          5    1    4    4  503    0  0.10739061106E+02 -0.20379990188E+01 -0.12548395641E+02  0.17292573742E+02  0.47000000000E+01 0.  1.
         -5    1    4    4    0  503 -0.62294519113E+02  0.37194428406E+02  0.22966791225E+03  0.24090137512E+03  0.47000000000E+01 0.  1.
<mgrwt>
<rscale>  0 0.13972281E+03</rscale>
<asrwt>0</asrwt>
<pdfrwt beam="1">  1        5 0.67202906E-01 0.13972556E+03</pdfrwt>
<pdfrwt beam="2">  1       -5 0.69292408E-02 0.13972556E+03</pdfrwt>
<totfact> 0.21982469E+02</totfact>
</mgrwt>
</event>
<event>
 8    1  0.1865596E-007  0.1272081E+03  0.7546771E-02  0.1231664E+00
          5   -1    0    0  501    0  0.00000000000E+00  0.00000000000E+00  0.27276500111E+03  0.27280549083E+03  0.47000000000E+01 0.  1.
         -5   -1    0    0    0  501 -0.00000000000E+00 -0.00000000000E+00 -0.64160420861E+02  0.64332337165E+02  0.47000000000E+01 0.  1.
         25    2    1    2    0    0  0.23537358824E+02  0.14792009940E+01  0.57411956635E+02  0.13954956392E+03  0.12498701024E+03 0.  0.
         25    2    1    2    0    0 -0.23537358824E+02 -0.14792009940E+01  0.15119262361E+03  0.19758826408E+03  0.12500286946E+03 0.  0.
          5    1    4    4  502    0  0.26282280441E+02  0.47442019809E+02  0.86978710008E+02  0.10261037717E+03  0.47000000000E+01 0. -1.
         -5    1    4    4    0  502 -0.49819639265E+02 -0.48921220803E+02  0.64213913602E+02  0.94977886908E+02  0.47000000000E+01 0. -1.
          5    1    3    3  503    0  0.71737147457E+02  0.17018400738E+02  0.47216340290E+02  0.87677346443E+02  0.47000000000E+01 0.  1.
         -5    1    3    3    0  503 -0.48199788633E+02 -0.15539199744E+02  0.10195616345E+02  0.51872217474E+02  0.47000000000E+01 0.  1.
<mgrwt>
<rscale>  0 0.12720425E+03</rscale>
<asrwt>0</asrwt>
<pdfrwt beam="1">  1        5 0.41980184E-01 0.12720815E+03</pdfrwt>
<pdfrwt beam="2">  1       -5 0.98871732E-02 0.12720815E+03</pdfrwt>
<totfact> 0.31644971E+02</totfact>
</mgrwt>
</event>
<event>
 8    1  0.1865596E-007  0.1471349E+03  0.7546771E-02  0.1204046E+00
         -5   -1    0    0    0  501 -0.00000000000E+00  0.00000000000E+00  0.70074667435E+02  0.70232108157E+02  0.47000000000E+01 0.  1.
          5   -1    0    0  501    0  0.00000000000E+00 -0.00000000000E+00 -0.59987868733E+03  0.59989709910E+03  0.47000000000E+01 0.  1.
         25    2    1    2    0    0  0.41138319276E+02  0.65802550070E+02 -0.31374143956E+02  0.15044277112E+03  0.12500541414E+03 0.  0.
         25    2    1    2    0    0 -0.41138319276E+02 -0.65802550070E+02 -0.49842987593E+03  0.51968643613E+03  0.12497725301E+03 0.  0.
          5    1    3    3  502    0  0.51001612283E+02  0.18293957551E+02 -0.69717041741E+02  0.88421655987E+02  0.47000000000E+01 0. -1.
         -5    1    3    3    0  502 -0.98632930066E+01  0.47508592519E+02  0.38342897784E+02  0.62021115135E+02  0.47000000000E+01 0. -1.
          5    1    4    4  503    0 -0.62851675681E+02 -0.60727865959E+02 -0.48582180742E+03  0.49364271027E+03  0.47000000000E+01 0.  1.
         -5    1    4    4    0  503  0.21713356404E+02 -0.50746841110E+01 -0.12608068515E+02  0.26043725863E+02  0.47000000000E+01 0.  1.
<mgrwt>
<rscale>  0 0.14712896E+03</rscale>
<asrwt>0</asrwt>
<pdfrwt beam="2">  1        5 0.92302552E-01 0.14713494E+03</pdfrwt>
<pdfrwt beam="1">  1       -5 0.10794246E-01 0.14713494E+03</pdfrwt>
<totfact> 0.49945972E+01</totfact>
</mgrwt>
</event>
<event>
 8    1  0.1865596E-007  0.2272705E+03  0.7546771E-02  0.1128577E+00
          5   -1    0    0  501    0  0.00000000000E+00  0.00000000000E+00  0.93294097996E+03  0.93295281880E+03  0.47000000000E+01 0. -1.
         -5   -1    0    0    0  501 -0.00000000000E+00 -0.00000000000E+00 -0.59630019052E+02  0.59814957762E+02  0.47000000000E+01 0. -1.
         25    2    1    2    0    0 -0.13102470860E+03 -0.13732495379E+03  0.30236258189E+03  0.37824849997E+03  0.12499271822E+03 0.  0.
         25    2    1    2    0    0  0.13102470860E+03  0.13732495379E+03  0.57094837903E+03  0.61451927659E+03  0.12500509024E+03 0.  0.
          5    1    4    4  502    0 -0.94717413433E+01 -0.11570229185E+02  0.13625083676E+02  0.20768172588E+02  0.47000000000E+01 0.  1.
         -5    1    4    4    0  502  0.14049644994E+03  0.14889518298E+03  0.55732329535E+03  0.59375110400E+03  0.47000000000E+01 0.  1.
          5    1    3    3  503    0 -0.45510876816E+02  0.26847030798E+01  0.14028959839E+03  0.14758627631E+03  0.47000000000E+01 0.  1.
         -5    1    3    3    0  503 -0.85513831781E+02 -0.14000965687E+03  0.16207298350E+03  0.23066222366E+03  0.47000000000E+01 0.  1.
<mgrwt>
<rscale>  0 0.22726882E+03</rscale>
<asrwt>0</asrwt>
<pdfrwt beam="1">  1        5 0.14354452E+00 0.22727052E+03</pdfrwt>
<pdfrwt beam="2">  1       -5 0.91889857E-02 0.22727052E+03</pdfrwt>
<totfact> 0.24150777E+01</totfact>
</mgrwt>
</event>
<event>
 8    1  0.1865596E-007  0.1451985E+03  0.7546771E-02  0.1206506E+00
         -5   -1    0    0    0  501 -0.00000000000E+00  0.00000000000E+00  0.43451057881E+04  0.43451083301E+04  0.47000000000E+01 0.  1.
          5   -1    0    0  501    0  0.00000000000E+00 -0.00000000000E+00 -0.37231576343E+01  0.59959905579E+01  0.47000000000E+01 0.  1.
         25    2    1    2    0    0 -0.53007624511E+02  0.51437133203E+02  0.22724061355E+04  0.22770391474E+04  0.12498818933E+03 0.  0.
         25    2    1    2    0    0  0.53007624511E+02 -0.51437133203E+02  0.20689764950E+04  0.20740651732E+04  0.12500807486E+03 0.  0.
          5    1    3    3  502    0  0.26557865471E+02  0.36980240505E+02  0.14336599651E+04  0.14343904085E+04  0.47000000000E+01 0. -1.
         -5    1    3    3    0  502 -0.79565489983E+02  0.14456892697E+02  0.83874617032E+03  0.84264873890E+03  0.47000000000E+01 0. -1.
          5    1    4    4  503    0  0.25931739073E+02  0.37019870286E+02  0.10183444284E+04  0.10193578325E+04  0.47000000000E+01 0. -1.
         -5    1    4    4    0  503  0.27075885439E+02 -0.88457003488E+02  0.10506320667E+04  0.10547073407E+04  0.47000000000E+01 0. -1.
<mgrwt>
<rscale>  0 0.14519422E+03</rscale>
<asrwt>0</asrwt>
<pdfrwt beam="2">  1        5 0.74782236E-03 0.14519850E+03</pdfrwt>
<pdfrwt beam="1">  1       -5 0.66865280E+00 0.14519850E+03</pdfrwt>
<totfact> 0.13596722E-01</totfact>
</mgrwt>
</event>
<event>
 8    1  0.1865596E-007  0.1821798E+03  0.7546771E-02  0.1165710E+00
          5   -1    0    0  501    0  0.00000000000E+00  0.00000000000E+00  0.89829876148E+02  0.89952746755E+02  0.47000000000E+01 0. -1.
         -5   -1    0    0    0  501 -0.00000000000E+00 -0.00000000000E+00 -0.37280749425E+03  0.37283711963E+03  0.47000000000E+01 0. -1.
         25    2    1    2    0    0  0.12779392566E+03  0.35115136323E+02 -0.16462113472E+03  0.24553942645E+03  0.12500052684E+03 0.  0.
         25    2    1    2    0    0 -0.12779392566E+03 -0.35115136323E+02 -0.11835648338E+03  0.21725043993E+03  0.12500054502E+03 0.  0.
          5    1    3    3  502    0  0.36782123408E+02  0.40874815283E+02  0.23405321734E+01  0.55238059503E+02  0.47000000000E+01 0.  1.
         -5    1    3    3    0  502  0.91011802251E+02 -0.57596789595E+01 -0.16696166689E+03  0.19030136695E+03  0.47000000000E+01 0.  1.
          5    1    4    4  503    0 -0.87786567389E+02  0.20216156180E+02 -0.11835055613E+03  0.14880900013E+03  0.47000000000E+01 0.  1.
         -5    1    4    4    0  503 -0.40007358270E+02 -0.55331292504E+02 -0.59272540623E-02  0.68441439794E+02  0.47000000000E+01 0.  1.
<mgrwt>
<rscale>  0 0.18217984E+03</rscale>
<asrwt>0</asrwt>
<pdfrwt beam="1">  1        5 0.13831712E-01 0.18217985E+03</pdfrwt>
<pdfrwt beam="2">  1       -5 0.57366729E-01 0.18217985E+03</pdfrwt>
<totfact> 0.10116342E+02</totfact>
</mgrwt>
</event>
<event>
 8    1  0.1865596E-007  0.1970026E+03  0.7546771E-02  0.1152294E+00
         -5   -1    0    0    0  501 -0.00000000000E+00  0.00000000000E+00  0.44314761126E+03  0.44317253453E+03  0.47000000000E+01 0. -1.
          5   -1    0    0  501    0  0.00000000000E+00 -0.00000000000E+00 -0.87681857138E+02  0.87807733550E+02  0.47000000000E+01 0. -1.
         25    2    1    2    0    0  0.13404947999E+02 -0.15166582720E+03  0.16516181197E+03  0.25707225896E+03  0.12500202568E+03 0.  0.
         25    2    1    2    0    0 -0.13404947999E+02  0.15166582720E+03  0.19030394215E+03  0.27390800912E+03  0.12501116467E+03 0.  0.
          5    1    3    3  502    0  0.23257905888E+02 -0.15414643684E+03  0.18020333109E+03  0.23832201894E+03  0.47000000000E+01 0.  1.
         -5    1    3    3    0  502 -0.98529578897E+01  0.24806096397E+01 -0.15041519122E+02  0.18750240021E+02  0.47000000000E+01 0.  1.
          5    1    4    4  503    0 -0.77825963788E+01  0.11553721248E+02  0.11253753082E+03  0.11349380214E+03  0.47000000000E+01 0. -1.
         -5    1    4    4    0  503 -0.56223516198E+01  0.14011210595E+03  0.77766411335E+02  0.16041420698E+03  0.47000000000E+01 0. -1.
<mgrwt>
<rscale>  0 0.19700111E+03</rscale>
<asrwt>0</asrwt>
<pdfrwt beam="2">  1        5 0.13501117E-01 0.19700256E+03</pdfrwt>
<pdfrwt beam="1">  1       -5 0.68188154E-01 0.19700256E+03</pdfrwt>
<totfact> 0.73613162E+01</totfact>
</mgrwt>
</event>
<event>
 8    1  0.1865596E-007  0.1378345E+03  0.7546771E-02  0.1216274E+00
         -5   -1    0    0    0  501 -0.00000000000E+00  0.00000000000E+00  0.27138647839E+02  0.27542625266E+02  0.47000000000E+01 0. -1.
          5   -1    0    0  501    0  0.00000000000E+00 -0.00000000000E+00 -0.70149564059E+03  0.70151138535E+03  0.47000000000E+01 0. -1.
         25    2    1    2    0    0 -0.23116903279E+01  0.58029694108E+02 -0.37371067586E+03  0.39831763516E+03  0.12499791966E+03 0.  0.
         25    2    1    2    0    0  0.23116903279E+01 -0.58029694108E+02 -0.30064631689E+03  0.33073637545E+03  0.12500221147E+03 0.  0.
          5    1    3    3  502    0 -0.12300202747E+02 -0.11294616200E+02  0.72054724290E+00  0.17362964351E+02  0.47000000000E+01 0.  1.
         -5    1    3    3    0  502  0.99885124189E+01  0.69324310308E+02 -0.37443122310E+03  0.38095467081E+03  0.47000000000E+01 0.  1.
          5    1    4    4  503    0 -0.23600320194E+02 -0.48343267646E+02 -0.29765930298E+03  0.30251809416E+03  0.47000000000E+01 0. -1.
         -5    1    4    4    0  503  0.25912010522E+02 -0.96864264627E+01 -0.29870139096E+01  0.28218281290E+02  0.47000000000E+01 0. -1.
<mgrwt>
<rscale>  0 0.13783350E+03</rscale>
<asrwt>0</asrwt>
<pdfrwt beam="2">  1        5 0.10795468E+00 0.13783447E+03</pdfrwt>
<pdfrwt beam="1">  1       -5 0.42074634E-02 0.13783447E+03</pdfrwt>
<totfact> 0.16530317E+02</totfact>
</mgrwt>
</event>
<event>
 8    1  0.1865596E-007  0.1301543E+03  0.7546771E-02  0.1227230E+00
          5   -1    0    0  501    0  0.00000000000E+00  0.00000000000E+00  0.40719952767E+03  0.40722665106E+03  0.47000000000E+01 0. -1.
         -5   -1    0    0    0  501 -0.00000000000E+00 -0.00000000000E+00 -0.41705928733E+02  0.41969923654E+02  0.47000000000E+01 0. -1.
         25    2    1    2    0    0 -0.12573561444E+02 -0.34006828689E+02  0.16478370817E+03  0.20997994458E+03  0.12499339104E+03 0.  0.
         25    2    1    2    0    0  0.12573561444E+02  0.34006828689E+02  0.20070989076E+03  0.23921663013E+03  0.12500230813E+03 0.  0.
          5    1    4    4  502    0 -0.30877377696E+02  0.73876971506E+00  0.17641099571E+03  0.17915604272E+03  0.47000000000E+01 0.  1.
         -5    1    4    4    0  502  0.43450939139E+02  0.33268058974E+02  0.24298895053E+02  0.60060587416E+02  0.47000000000E+01 0.  1.
          5    1    3    3  503    0 -0.59097831836E+02  0.14132258173E+02  0.97263304562E+02  0.11478028952E+03  0.47000000000E+01 0. -1.
         -5    1    3    3    0  503  0.46524270392E+02 -0.48139086862E+02  0.67520403608E+02  0.95199655056E+02  0.47000000000E+01 0. -1.
<mgrwt>
<rscale>  0 0.13015214E+03</rscale>
<asrwt>0</asrwt>
<pdfrwt beam="1">  1        5 0.62668475E-01 0.13015428E+03</pdfrwt>
<pdfrwt beam="2">  1       -5 0.64386904E-02 0.13015428E+03</pdfrwt>
<totfact> 0.28366316E+02</totfact>
</mgrwt>
</event>
<event>
 8    1  0.1865596E-007  0.1305654E+03  0.7546771E-02  0.1226640E+00
          5   -1    0    0  501    0  0.00000000000E+00  0.00000000000E+00  0.19451327369E+03  0.19457004816E+03  0.47000000000E+01 0.  1.
         -5   -1    0    0    0  501 -0.00000000000E+00 -0.00000000000E+00 -0.12362047575E+03  0.12370978953E+03  0.47000000000E+01 0.  1.
         25    2    1    2    0    0 -0.37516670324E+02  0.13662241607E+01 -0.50548937891E+02  0.14000902845E+03  0.12505185247E+03 0.  0.
         25    2    1    2    0    0  0.37516670324E+02 -0.13662241607E+01  0.12144173583E+03  0.17827080924E+03  0.12499207617E+03 0.  0.
          5    1    4    4  502    0 -0.11806807675E+02  0.39341169207E+02  0.10385004532E+03  0.11177678746E+03  0.47000000000E+01 0.  1.
         -5    1    4    4    0  502  0.49323477999E+02 -0.40707393368E+02  0.17591690506E+02  0.66494021774E+02  0.47000000000E+01 0.  1.
          5    1    3    3  503    0  0.45214735072E+02  0.37788556589E+01 -0.63273953102E+01  0.46051904945E+02  0.47000000000E+01 0.  1.
         -5    1    3    3    0  503 -0.82731405396E+02 -0.24126314982E+01 -0.44221542580E+02  0.93957123507E+02  0.47000000000E+01 0.  1.
<mgrwt>
<rscale>  0 0.13055112E+03</rscale>
<asrwt>0</asrwt>
<pdfrwt beam="1">  1        5 0.29936356E-01 0.13056544E+03</pdfrwt>
<pdfrwt beam="2">  1       -5 0.19029772E-01 0.13056544E+03</pdfrwt>
<totfact> 0.19450268E+02</totfact>
</mgrwt>
</event>
<event>
 8    1  0.1865596E-007  0.1505634E+03  0.7546771E-02  0.1199784E+00
          5   -1    0    0  501    0  0.00000000000E+00  0.00000000000E+00  0.29516130735E+03  0.29519872519E+03  0.47000000000E+01 0. -1.
         -5   -1    0    0    0  501 -0.00000000000E+00 -0.00000000000E+00 -0.77256113139E+02  0.77398947133E+02  0.47000000000E+01 0. -1.
         25    2    1    2    0    0  0.71912492503E+02 -0.43272998870E+02  0.92968506319E+02  0.17694868513E+03  0.12499493988E+03 0.  0.
         25    2    1    2    0    0 -0.71912492503E+02  0.43272998870E+02  0.12493668789E+03  0.19564898719E+03  0.12500156478E+03 0.  0.
          5    1    4    4  502    0 -0.61868480571E+02 -0.62768305651E+01  0.17274935619E+01  0.62387352276E+02  0.47000000000E+01 0.  1.
         -5    1    4    4    0  502 -0.10044011933E+02  0.49549829435E+02  0.12320919433E+03  0.13326163491E+03  0.47000000000E+01 0.  1.
          5    1    3    3  503    0  0.81417481678E+02  0.21663055648E+02  0.58447220668E+02  0.10264629514E+03  0.47000000000E+01 0. -1.
         -5    1    3    3    0  503 -0.95049891744E+01 -0.64936054518E+02  0.34521285651E+02  0.74302389992E+02  0.47000000000E+01 0. -1.
<mgrwt>
<rscale>  0 0.15056207E+03</rscale>
<asrwt>0</asrwt>
<pdfrwt beam="1">  1        5 0.45423297E-01 0.15056344E+03</pdfrwt>
<pdfrwt beam="2">  1       -5 0.11899421E-01 0.15056344E+03</pdfrwt>
<totfact> 0.20561223E+02</totfact>
</mgrwt>
</event>
<event>
 8    1  0.1865596E-007  0.1256786E+03  0.7546771E-02  0.1234015E+00
          5   -1    0    0  501    0  0.00000000000E+00  0.00000000000E+00  0.29338080572E+02  0.29712168747E+02  0.47000000000E+01 0.  1.
         -5   -1    0    0    0  501 -0.00000000000E+00 -0.00000000000E+00 -0.56456936495E+03  0.56458892819E+03  0.47000000000E+01 0.  1.
         25    2    1    2    0    0  0.11618407032E+02 -0.58833865223E+01 -0.33609282839E+03  0.35882022377E+03  0.12499584822E+03 0.  0.
         25    2    1    2    0    0 -0.11618407032E+02  0.58833865223E+01 -0.19913845599E+03  0.23548087317E+03  0.12500206141E+03 0.  0.
          5    1    3    3  502    0 -0.53740443128E+01 -0.12319503875E+02  0.65434670773E+01  0.15670274069E+02  0.47000000000E+01 0. -1.
         -5    1    3    3    0  502  0.16992451345E+02  0.64361173531E+01 -0.34263629546E+03  0.34314994970E+03  0.47000000000E+01 0. -1.
          5    1    4    4  503    0 -0.43686771361E+02 -0.27258624449E+02 -0.17645056335E+03  0.18387076414E+03  0.47000000000E+01 0.  1.
         -5    1    4    4    0  503  0.32068364329E+02  0.33142010972E+02 -0.22687892642E+02  0.51610109034E+02  0.47000000000E+01 0.  1.
<mgrwt>
<rscale>  0 0.12567708E+03</rscale>
<asrwt>0</asrwt>
<pdfrwt beam="1">  1        5 0.45438322E-02 0.12567863E+03</pdfrwt>
<pdfrwt beam="2">  1       -5 0.86887098E-01 0.12567863E+03</pdfrwt>
<totfact> 0.23826908E+02</totfact>
</mgrwt>
</event>
<event>
 8    1  0.1865596E-007  0.1308800E+03  0.7546771E-02  0.1226157E+00
         -5   -1    0    0    0  501 -0.00000000000E+00  0.00000000000E+00  0.44019742003E+02  0.44269941111E+02  0.47000000000E+01 0.  1.
          5   -1    0    0  501    0  0.00000000000E+00 -0.00000000000E+00 -0.39262311844E+03  0.39265124874E+03  0.47000000000E+01 0.  1.
         25    2    1    2    0    0 -0.21261158331E+02 -0.32417067055E+02 -0.14999254237E+03  0.19906616932E+03  0.12500669546E+03 0.  0.
         25    2    1    2    0    0  0.21261158331E+02  0.32417067055E+02 -0.19861083407E+03  0.23785502053E+03  0.12500337712E+03 0.  0.
          5    1    3    3  502    0 -0.54992669213E+01 -0.73496441641E+02 -0.13208715603E+03  0.15133101354E+03  0.47000000000E+01 0. -1.
         -5    1    3    3    0  502 -0.15761891410E+02  0.41079374586E+02 -0.17905386340E+02  0.47735155778E+02  0.47000000000E+01 0. -1.
          5    1    4    4  503    0 -0.44086003821E+02 -0.17245226877E+02 -0.88039033648E+02  0.10006965089E+03  0.47000000000E+01 0.  1.
         -5    1    4    4    0  503  0.65347162152E+02  0.49662293932E+02 -0.11057180042E+03  0.13778536964E+03  0.47000000000E+01 0.  1.
<mgrwt>
<rscale>  0 0.13087922E+03</rscale>
<asrwt>0</asrwt>
<pdfrwt beam="2">  1        5 0.60424964E-01 0.13088001E+03</pdfrwt>
<pdfrwt beam="1">  1       -5 0.67936782E-02 0.13088001E+03</pdfrwt>
<totfact> 0.28122601E+02</totfact>
</mgrwt>
</event>
<event>
 8    1  0.1865596E-007  0.1293693E+03  0.7546771E-02  0.1228399E+00
          5   -1    0    0  501    0  0.00000000000E+00  0.00000000000E+00  0.37539939698E+02  0.37833015641E+02  0.47000000000E+01 0.  1.
         -5   -1    0    0    0  501 -0.00000000000E+00 -0.00000000000E+00 -0.45620940133E+03  0.45623361106E+03  0.47000000000E+01 0.  1.
         25    2    1    2    0    0  0.30703685855E+02  0.12890328272E+02 -0.25015172151E+03  0.28162437746E+03  0.12501011686E+03 0.  0.
         25    2    1    2    0    0 -0.30703685855E+02 -0.12890328272E+02 -0.16851774012E+03  0.21244224924E+03  0.12499841454E+03 0.  0.
          5    1    3    3  502    0  0.20155455740E+02  0.15575387287E+02 -0.26292440311E+03  0.26419721201E+03  0.47000000000E+01 0.  1.
         -5    1    3    3    0  502  0.10548230115E+02 -0.26850590148E+01  0.12772681596E+02  0.17427165450E+02  0.47000000000E+01 0.  1.
          5    1    4    4  503    0 -0.35655468379E+02  0.23701748679E+02 -0.16981890982E+03  0.17519599723E+03  0.47000000000E+01 0. -1.
         -5    1    4    4    0  503  0.49517825239E+01 -0.36592076951E+02  0.13011696979E+01  0.37246252003E+02  0.47000000000E+01 0. -1.
<mgrwt>
<rscale>  0 0.12936644E+03</rscale>
<asrwt>0</asrwt>
<pdfrwt beam="1">  1        5 0.57997823E-02 0.12936926E+03</pdfrwt>
<pdfrwt beam="2">  1       -5 0.70210464E-01 0.12936926E+03</pdfrwt>
<totfact> 0.26195667E+02</totfact>
</mgrwt>
</event>
<event>
 8    1  0.1865596E-007  0.1818601E+03  0.7546771E-02  0.1166017E+00
         -5   -1    0    0    0  501 -0.00000000000E+00  0.00000000000E+00  0.56726283054E+03  0.56728230090E+03  0.47000000000E+01 0.  1.
          5   -1    0    0  501    0  0.00000000000E+00 -0.00000000000E+00 -0.81359427390E+02  0.81495069945E+02  0.47000000000E+01 0.  1.
         25    2    1    2    0    0 -0.13115533958E+03  0.15648331325E+02  0.41588349418E+03  0.45390337534E+03  0.12499039979E+03 0.  0.
         25    2    1    2    0    0  0.13115533958E+03 -0.15648331325E+02  0.70019908970E+02  0.19487399550E+03  0.12500597225E+03 0.  0.
          5    1    4    4  502    0  0.64339807928E+02  0.32364076128E+01 -0.31442540331E+02  0.71838767814E+02  0.47000000000E+01 0.  1.
         -5    1    4    4    0  502  0.66815531653E+02 -0.18884738938E+02  0.10146244930E+03  0.12303522769E+03  0.47000000000E+01 0.  1.
          5    1    3    3  503    0 -0.57457703808E+02 -0.11339532858E+02  0.42967859712E+02  0.72789420251E+02  0.47000000000E+01 0.  1.
         -5    1    3    3    0  503 -0.73697635774E+02  0.26987864183E+02  0.37291563447E+03  0.38111395509E+03  0.47000000000E+01 0.  1.
<mgrwt>
<rscale>  0 0.18185740E+03</rscale>
<asrwt>0</asrwt>
<pdfrwt beam="2">  1        5 0.12528767E-01 0.18186007E+03</pdfrwt>
<pdfrwt beam="1">  1       -5 0.87283138E-01 0.18186007E+03</pdfrwt>
<totfact> 0.46540855E+01</totfact>
</mgrwt>
</event>
<event>
 8    1  0.1865596E-007  0.1301532E+03  0.7546771E-02  0.1227230E+00
         -5   -1    0    0    0  501 -0.00000000000E+00  0.00000000000E+00  0.78260565574E+03  0.78261976872E+03  0.47000000000E+01 0.  1.
          5   -1    0    0  501    0  0.00000000000E+00 -0.00000000000E+00 -0.21376379500E+02  0.21886973306E+02  0.47000000000E+01 0.  1.
         25    2    1    2    0    0  0.28223883040E+02  0.22758962524E+02  0.37794084878E+03  0.39972300265E+03  0.12499854290E+03 0.  0.
         25    2    1    2    0    0 -0.28223883040E+02 -0.22758962524E+02  0.38328842747E+03  0.40478373938E+03  0.12500119634E+03 0.  0.
          5    1    4    4  502    0 -0.66731706942E+02 -0.49228711680E+02  0.25346775410E+03  0.26672941182E+03  0.47000000000E+01 0. -1.
         -5    1    4    4    0  502  0.38507823902E+02  0.26469749156E+02  0.12982067337E+03  0.13805432755E+03  0.47000000000E+01 0. -1.
          5    1    3    3  503    0  0.63891300257E+02  0.37550680477E+02  0.32863829324E+03  0.33692338837E+03  0.47000000000E+01 0. -1.
         -5    1    3    3    0  503 -0.35667417216E+02 -0.14791717953E+02  0.49302555540E+02  0.62799614280E+02  0.47000000000E+01 0. -1.
<mgrwt>
<rscale>  0 0.13015257E+03</rscale>
<asrwt>0</asrwt>
<pdfrwt beam="2">  1        5 0.33290359E-02 0.13015321E+03</pdfrwt>
<pdfrwt beam="1">  1       -5 0.12044123E+00 0.13015321E+03</pdfrwt>
<totfact> 0.18070344E+02</totfact>
</mgrwt>
</event>
<event>
 8    1  0.1865596E-007  0.2058261E+03  0.7546771E-02  0.1144916E+00
         -5   -1    0    0    0  501 -0.00000000000E+00  0.00000000000E+00  0.48397677611E+02  0.48625355507E+02  0.47000000000E+01 0. -1.
          5   -1    0    0  501    0  0.00000000000E+00 -0.00000000000E+00 -0.87773398009E+03  0.87774656354E+03  0.47000000000E+01 0. -1.
         25    2    1    2    0    0 -0.54145660945E+02 -0.15429823431E+03 -0.38075476624E+03  0.43282624851E+03  0.12499868671E+03 0.  0.
         25    2    1    2    0    0  0.54145660945E+02  0.15429823431E+03 -0.44858153624E+03  0.49354567054E+03  0.12498894566E+03 0.  0.
          5    1    3    3  502    0  0.26597158578E+02 -0.47745420499E+02 -0.43500031574E+02  0.70009833381E+02  0.47000000000E+01 0.  1.
         -5    1    3    3    0  502 -0.80742819524E+02 -0.10655281381E+03 -0.33725473466E+03  0.36281641513E+03  0.47000000000E+01 0.  1.
          5    1    4    4  503    0  0.40445558014E+02  0.13844990438E+03 -0.44945793552E+03  0.47205798901E+03  0.47000000000E+01 0.  1.
         -5    1    4    4    0  503  0.13700102931E+02  0.15848329925E+02  0.87639927474E+00  0.21487681528E+02  0.47000000000E+01 0.  1.
<mgrwt>
<rscale>  0 0.20582459E+03</rscale>
<asrwt>0</asrwt>
<pdfrwt beam="2">  1        5 0.13505447E+00 0.20582607E+03</pdfrwt>
<pdfrwt beam="1">  1       -5 0.74642789E-02 0.20582607E+03</pdfrwt>
<totfact> 0.39863983E+01</totfact>
</mgrwt>
</event>
<event>
 8    1  0.1865596E-007  0.2523343E+03  0.7546771E-02  0.1111839E+00
         -5   -1    0    0    0  501 -0.00000000000E+00  0.00000000000E+00  0.40457242770E+03  0.40459972721E+03  0.47000000000E+01 0.  1.
          5   -1    0    0  501    0  0.00000000000E+00 -0.00000000000E+00 -0.20416219669E+03  0.20421628867E+03  0.47000000000E+01 0.  1.
         25    2    1    2    0    0  0.20876093034E+03 -0.66809764385E+02  0.24599803399E+03  0.35240264776E+03  0.12501169054E+03 0.  0.
         25    2    1    2    0    0 -0.20876093034E+03  0.66809764385E+02 -0.45587802978E+02  0.25641336811E+03  0.12499958765E+03 0.  0.
          5    1    3    3  502    0  0.66336069080E+02 -0.85032082400E+02  0.11882964685E+03  0.16054128462E+03  0.47000000000E+01 0. -1.
         -5    1    3    3    0  502  0.14242486126E+03  0.18222318015E+02  0.12716838714E+03  0.19186136314E+03  0.47000000000E+01 0. -1.
          5    1    4    4  503    0 -0.20685902993E+03  0.69258345447E+02 -0.71720593355E+02  0.22968088773E+03  0.47000000000E+01 0.  1.
         -5    1    4    4    0  503 -0.19019004080E+01 -0.24485810620E+01  0.26132790377E+02  0.26732480380E+02  0.47000000000E+01 0.  1.
<mgrwt>
<rscale>  0 0.25233279E+03</rscale>
<asrwt>0</asrwt>
<pdfrwt beam="2">  1        5 0.31415830E-01 0.25233429E+03</pdfrwt>
<pdfrwt beam="1">  1       -5 0.62248172E-01 0.25233429E+03</pdfrwt>
<totfact> 0.19410399E+01</totfact>
</mgrwt>
</event>
<event>
 8    1  0.1865596E-007  0.1286314E+03  0.7546771E-02  0.1229502E+00
         -5   -1    0    0    0  501 -0.00000000000E+00  0.00000000000E+00  0.82998342345E+03  0.82999673084E+03  0.47000000000E+01 0.  1.
          5   -1    0    0  501    0  0.00000000000E+00 -0.00000000000E+00 -0.19777801107E+02  0.20328586194E+02  0.47000000000E+01 0.  1.
         25    2    1    2    0    0 -0.45516965251E+01 -0.30002017848E+02  0.43958266006E+03  0.45801631877E+03  0.12500077689E+03 0.  0.
         25    2    1    2    0    0  0.45516965251E+01  0.30002017848E+02  0.37062296229E+03  0.39230899826E+03  0.12499652366E+03 0.  0.
          5    1    3    3  502    0 -0.44241295583E+02 -0.53584913623E+02  0.35276319773E+03  0.35957280052E+03  0.47000000000E+01 0. -1.
         -5    1    3    3    0  502  0.39689599058E+02  0.23582895776E+02  0.86819462331E+02  0.98443518253E+02  0.47000000000E+01 0. -1.
          5    1    4    4  503    0 -0.25071793207E+02  0.68102469383E+02  0.28266989284E+03  0.29187480101E+03  0.47000000000E+01 0.  1.
         -5    1    4    4    0  503  0.29623489732E+02 -0.38100451535E+02  0.87953069449E+02  0.10043419725E+03  0.47000000000E+01 0.  1.
<mgrwt>
<rscale>  0 0.12863035E+03</rscale>
<asrwt>0</asrwt>
<pdfrwt beam="2">  1        5 0.30861306E-02 0.12863139E+03</pdfrwt>
<pdfrwt beam="1">  1       -5 0.12773314E+00 0.12863139E+03</pdfrwt>
<totfact> 0.17493340E+02</totfact>
</mgrwt>
</event>
<event>
 8    1  0.1865596E-007  0.1534607E+03  0.7546771E-02  0.1196288E+00
         -5   -1    0    0    0  501 -0.00000000000E+00  0.00000000000E+00  0.57036994541E+02  0.57230313177E+02  0.47000000000E+01 0. -1.
          5   -1    0    0  501    0  0.00000000000E+00 -0.00000000000E+00 -0.52236966355E+03  0.52239080715E+03  0.47000000000E+01 0. -1.
         25    2    1    2    0    0 -0.14894397052E+02 -0.87753513638E+02 -0.99459673307E+02  0.18287263028E+03  0.12501059984E+03 0.  0.
         25    2    1    2    0    0  0.14894397052E+02  0.87753513638E+02 -0.36587299570E+03  0.39674849004E+03  0.12499517250E+03 0.  0.
          5    1    4    4  502    0  0.45094592684E+02  0.10436441004E+03 -0.31665299741E+03  0.33647683893E+03  0.47000000000E+01 0. -1.
         -5    1    4    4    0  502 -0.30200195632E+02 -0.16610896400E+02 -0.49219998292E+02  0.60271651108E+02  0.47000000000E+01 0. -1.
          5    1    3    3  503    0  0.14913674151E+02 -0.27122831210E+02 -0.10996745543E+03  0.11433720699E+03  0.47000000000E+01 0. -1.
         -5    1    3    3    0  503 -0.29808071203E+02 -0.60630682428E+02  0.10507782122E+02  0.68535423291E+02  0.47000000000E+01 0. -1.
<mgrwt>
<rscale>  0 0.15345751E+03</rscale>
<asrwt>0</asrwt>
<pdfrwt beam="2">  1        5 0.80381057E-01 0.15346065E+03</pdfrwt>
<pdfrwt beam="1">  1       -5 0.87914197E-02 0.15346065E+03</pdfrwt>
<totfact> 0.10022683E+02</totfact>
</mgrwt>
</event>
<event>
 8    1  0.1865596E-007  0.1513221E+03  0.7546771E-02  0.1198860E+00
          5   -1    0    0  501    0  0.00000000000E+00  0.00000000000E+00  0.35923236493E+02  0.36229393042E+02  0.47000000000E+01 0.  1.
         -5   -1    0    0    0  501 -0.00000000000E+00 -0.00000000000E+00 -0.66522663732E+03  0.66524324048E+03  0.47000000000E+01 0.  1.
         25    2    1    2    0    0 -0.78569327940E+02 -0.33167129084E+02 -0.39016497504E+03  0.41847869968E+03  0.12499006598E+03 0.  0.
         25    2    1    2    0    0  0.78569327940E+02  0.33167129084E+02 -0.23913842579E+03  0.28299393384E+03  0.12500072863E+03 0.  0.
          5    1    3    3  502    0 -0.28726822837E+02 -0.16694499658E+02 -0.10482165567E+02  0.35155404479E+02  0.47000000000E+01 0.  1.
         -5    1    3    3    0  502 -0.49842505104E+02 -0.16472629427E+02 -0.37968280947E+03  0.38332329520E+03  0.47000000000E+01 0.  1.
          5    1    4    4  503    0  0.36310719515E+02 -0.15683547909E+02 -0.20680900187E+03  0.21060981763E+03  0.47000000000E+01 0.  1.
         -5    1    4    4    0  503  0.42258608425E+02  0.48850676993E+02 -0.32329423918E+02  0.72384116211E+02  0.47000000000E+01 0.  1.
<mgrwt>
<rscale>  0 0.15131990E+03</rscale>
<asrwt>0</asrwt>
<pdfrwt beam="1">  1        5 0.55514800E-02 0.15132211E+03</pdfrwt>
<pdfrwt beam="2">  1       -5 0.10236738E+00 0.15132211E+03</pdfrwt>
<totfact> 0.12259232E+02</totfact>
</mgrwt>
</event>
<event>
 8    1  0.1865596E-007  0.2467842E+03  0.7546771E-02  0.1115354E+00
         -5   -1    0    0    0  501 -0.00000000000E+00  0.00000000000E+00  0.51556748369E+03  0.51558890624E+03  0.47000000000E+01 0.  1.
          5   -1    0    0  501    0  0.00000000000E+00 -0.00000000000E+00 -0.12292688164E+03  0.12301669899E+03  0.47000000000E+01 0.  1.
         25    2    1    2    0    0 -0.18403878131E+03 -0.10680544327E+03  0.25985362244E+03  0.35836624495E+03  0.12499913874E+03 0.  0.
         25    2    1    2    0    0  0.18403878131E+03  0.10680544327E+03  0.13278697961E+03  0.28023936028E+03  0.12499616537E+03 0.  0.
          5    1    4    4  502    0 -0.15856135800E+02  0.91296806576E+01  0.29202309121E+02  0.34779778168E+02  0.47000000000E+01 0. -1.
         -5    1    4    4    0  502  0.19989491711E+03  0.97675762614E+02  0.10358467049E+03  0.24545958211E+03  0.47000000000E+01 0. -1.
          5    1    3    3  503    0 -0.16465402009E+03 -0.34404729307E+02  0.15081627482E+03  0.22596962291E+03  0.47000000000E+01 0. -1.
         -5    1    3    3    0  503 -0.19384761227E+02 -0.72400713964E+02  0.10903734763E+03  0.13239662204E+03  0.47000000000E+01 0. -1.
<mgrwt>
<rscale>  0 0.24678386E+03</rscale>
<asrwt>0</asrwt>
<pdfrwt beam="2">  1        5 0.18920385E-01 0.24678424E+03</pdfrwt>
<pdfrwt beam="1">  1       -5 0.79326630E-01 0.24678424E+03</pdfrwt>
<totfact> 0.29584918E+01</totfact>
</mgrwt>
</event>
<event>
 8    1  0.1865596E-007  0.1350578E+03  0.7546771E-02  0.1220140E+00
          5   -1    0    0  501    0  0.00000000000E+00  0.00000000000E+00  0.44025155412E+02  0.44275323929E+02  0.47000000000E+01 0. -1.
         -5   -1    0    0    0  501 -0.00000000000E+00 -0.00000000000E+00 -0.41325030344E+03  0.41327702972E+03  0.47000000000E+01 0. -1.
         25    2    1    2    0    0  0.31543607832E+02  0.40256451801E+02 -0.19152798371E+03  0.23435539056E+03  0.12499559766E+03 0.  0.
         25    2    1    2    0    0 -0.31543607832E+02 -0.40256451801E+02 -0.17769716432E+03  0.22319696309E+03  0.12500008408E+03 0.  0.
          5    1    4    4  502    0  0.20625783220E+02 -0.25663093317E+02  0.40371322197E+01  0.33502324227E+02  0.47000000000E+01 0. -1.
         -5    1    4    4    0  502 -0.52169391052E+02 -0.14593358484E+02 -0.18173429654E+03  0.18969463887E+03  0.47000000000E+01 0. -1.
          5    1    3    3  503    0  0.46305680467E+02 -0.33121336435E+02 -0.10744112802E+03  0.12168370869E+03  0.47000000000E+01 0. -1.
         -5    1    3    3    0  503 -0.14762072635E+02  0.73377788236E+02 -0.84086855684E+02  0.11267168186E+03  0.47000000000E+01 0. -1.
<mgrwt>
<rscale>  0 0.13505674E+03</rscale>
<asrwt>0</asrwt>
<pdfrwt beam="1">  1        5 0.67944007E-02 0.13505777E+03</pdfrwt>
<pdfrwt beam="2">  1       -5 0.63598267E-01 0.13505777E+03</pdfrwt>
<totfact> 0.25399357E+02</totfact>
</mgrwt>
</event>
<event>
 8    1  0.1865596E-007  0.1418069E+03  0.7546771E-02  0.1210919E+00
         -5   -1    0    0    0  501 -0.00000000000E+00  0.00000000000E+00  0.10650100394E+03  0.10660466143E+03  0.47000000000E+01 0.  1.
          5   -1    0    0  501    0  0.00000000000E+00 -0.00000000000E+00 -0.18988068889E+03  0.18993884809E+03  0.47000000000E+01 0.  1.
         25    2    1    2    0    0  0.32531384150E+01  0.66888335912E+02 -0.29466624479E+02  0.14483389485E+03  0.12499577092E+03 0.  0.
         25    2    1    2    0    0 -0.32531384150E+01 -0.66888335912E+02 -0.53913060478E+02  0.15170961468E+03  0.12499822681E+03 0.  0.
          5    1    4    4  502    0 -0.18333138819E+02  0.18599634096E+02  0.23392626299E+02  0.35374501164E+02  0.47000000000E+01 0.  1.
         -5    1    4    4    0  502  0.15080000404E+02 -0.85487970007E+02 -0.77305686777E+02  0.11633511351E+03  0.47000000000E+01 0.  1.
          5    1    3    3  503    0  0.59373994574E+02  0.56703702412E+02 -0.30180248361E+02  0.87598621508E+02  0.47000000000E+01 0.  1.
         -5    1    3    3    0  503 -0.56120856159E+02  0.10184633500E+02  0.71362388169E+00  0.57235273342E+02  0.47000000000E+01 0.  1.
<mgrwt>
<rscale>  0 0.14180633E+03</rscale>
<asrwt>0</asrwt>
<pdfrwt beam="2">  1        5 0.29224861E-01 0.14180687E+03</pdfrwt>
<pdfrwt beam="1">  1       -5 0.16397217E-01 0.14180687E+03</pdfrwt>
<totfact> 0.27583338E+02</totfact>
</mgrwt>
</event>
<event>
 8    1  0.1865596E-007  0.1654042E+03  0.7546771E-02  0.1182732E+00
         -5   -1    0    0    0  501 -0.00000000000E+00  0.00000000000E+00  0.10052307168E+03  0.10063288697E+03  0.47000000000E+01 0. -1.
          5   -1    0    0  501    0  0.00000000000E+00 -0.00000000000E+00 -0.29291680717E+03  0.29295451170E+03  0.47000000000E+01 0. -1.
         25    2    1    2    0    0 -0.62280631579E+02  0.88596730071E+02 -0.14895756314E+03  0.22259132100E+03  0.12502112989E+03 0.  0.
         25    2    1    2    0    0  0.62280631579E+02 -0.88596730071E+02 -0.43436172357E+02  0.17099607766E+03  0.12499879943E+03 0.  0.
          5    1    3    3  502    0 -0.40455949832E+02  0.11975864548E+03 -0.10618743492E+03  0.16515652690E+03  0.47000000000E+01 0. -1.
         -5    1    3    3    0  502 -0.21824681746E+02 -0.31161915407E+02 -0.42770128217E+02  0.57434794096E+02  0.47000000000E+01 0. -1.
          5    1    4    4  503    0  0.66955375424E+02  0.38588293843E+01 -0.40019099883E+02  0.78240214838E+02  0.47000000000E+01 0.  1.
         -5    1    4    4    0  503 -0.46747438455E+01 -0.92455559455E+02 -0.34170724738E+01  0.92755862825E+02  0.47000000000E+01 0.  1.
<mgrwt>
<rscale>  0 0.16539995E+03</rscale>
<asrwt>0</asrwt>
<pdfrwt beam="2">  1        5 0.45075472E-01 0.16540417E+03</pdfrwt>
<pdfrwt beam="1">  1       -5 0.15476436E-01 0.16540417E+03</pdfrwt>
<totfact> 0.13421441E+02</totfact>
</mgrwt>
</event>
<event>
 8    1  0.1865596E-007  0.1431346E+03  0.7546771E-02  0.1209180E+00
         -5   -1    0    0    0  501 -0.00000000000E+00  0.00000000000E+00  0.10735144283E+03  0.10745427994E+03  0.47000000000E+01 0.  1.
          5   -1    0    0  501    0  0.00000000000E+00 -0.00000000000E+00 -0.23308360041E+03  0.23313098203E+03  0.47000000000E+01 0.  1.
         25    2    1    2    0    0 -0.65763378332E+02  0.23067008558E+02  0.98231108624E+01  0.14344888809E+03  0.12499672466E+03 0.  0.
         25    2    1    2    0    0  0.65763378332E+02 -0.23067008558E+02 -0.13555526845E+03  0.19713637388E+03  0.12502243914E+03 0.  0.
          5    1    4    4  502    0 -0.31615271923E+02  0.15038220228E+02 -0.53610521867E+02  0.64201647496E+02  0.47000000000E+01 0. -1.
         -5    1    4    4    0  502  0.97378650254E+02 -0.38105228786E+02 -0.81944746578E+02  0.13293472638E+03  0.47000000000E+01 0. -1.
          5    1    3    3  503    0 -0.55874347122E+01  0.61686919079E+02 -0.20821319628E+02  0.65514218023E+02  0.47000000000E+01 0. -1.
         -5    1    3    3    0  503 -0.60175943619E+02 -0.38619910521E+02  0.30644430490E+02  0.77934670072E+02  0.47000000000E+01 0. -1.
<mgrwt>
<rscale>  0 0.14312900E+03</rscale>
<asrwt>0</asrwt>
<pdfrwt beam="2">  1        5 0.35870571E-01 0.14313462E+03</pdfrwt>
<pdfrwt beam="1">  1       -5 0.16527162E-01 0.14313462E+03</pdfrwt>
<totfact> 0.18161392E+02</totfact>
</mgrwt>
</event>
<event>
 8    1  0.1865596E-007  0.1374555E+03  0.7546771E-02  0.1216799E+00
          5   -1    0    0  501    0  0.00000000000E+00  0.00000000000E+00  0.18408870817E+03  0.18414869664E+03  0.47000000000E+01 0.  1.
         -5   -1    0    0    0  501 -0.00000000000E+00 -0.00000000000E+00 -0.10900240224E+03  0.10910368323E+03  0.47000000000E+01 0.  1.
         25    2    1    2    0    0  0.53174103494E+02  0.21017913587E+02  0.73347518171E+02  0.15580072626E+03  0.12499907963E+03 0.  0.
         25    2    1    2    0    0 -0.53174103494E+02 -0.21017913587E+02  0.17387877528E+01  0.13745165361E+03  0.12498278171E+03 0.  0.
          5    1    3    3  502    0  0.37557962712E+02  0.45957025606E+02 -0.15971174311E+02  0.61642657101E+02  0.47000000000E+01 0.  1.
         -5    1    3    3    0  502  0.15616140781E+02 -0.24939112018E+02  0.89318692482E+02  0.94158069160E+02  0.47000000000E+01 0.  1.
          5    1    4    4  503    0 -0.37217517516E+02 -0.68868770029E+02 -0.22079911815E+02  0.81471857725E+02  0.47000000000E+01 0. -1.
         -5    1    4    4    0  503 -0.15956585978E+02  0.47850856442E+02  0.23818699568E+02  0.55979795886E+02  0.47000000000E+01 0. -1.
<mgrwt>
<rscale>  0 0.13745177E+03</rscale>
<asrwt>0</asrwt>
<pdfrwt beam="1">  1        5 0.28333745E-01 0.13745548E+03</pdfrwt>
<pdfrwt beam="2">  1       -5 0.16782006E-01 0.13745548E+03</pdfrwt>
<totfact> 0.27788790E+02</totfact>
</mgrwt>
</event>
<event>
 8    1  0.1865596E-007  0.1292993E+03  0.7546771E-02  0.1228499E+00
          5   -1    0    0  501    0  0.00000000000E+00  0.00000000000E+00  0.67772628816E+03  0.67774258511E+03  0.47000000000E+01 0. -1.
         -5   -1    0    0    0  501 -0.00000000000E+00 -0.00000000000E+00 -0.33395803709E+02  0.33724912237E+02  0.47000000000E+01 0. -1.
         25    2    1    2    0    0 -0.27349040945E+02 -0.18574756434E+02  0.13892599974E+03  0.18978559184E+03  0.12500058340E+03 0.  0.
         25    2    1    2    0    0  0.27349040945E+02  0.18574756434E+02  0.50540448472E+03  0.52168190551E+03  0.12500130296E+03 0.  0.
          5    1    4    4  502    0  0.36771156221E+02 -0.42898718332E+02  0.34410242300E+03  0.34874200418E+03  0.47000000000E+01 0.  1.
         -5    1    4    4    0  502 -0.94221152763E+01  0.61473474766E+02  0.16130206172E+03  0.17293990133E+03  0.47000000000E+01 0.  1.
          5    1    3    3  503    0 -0.74261125957E+02 -0.22888447359E+02  0.62282202486E+02  0.99698337987E+02  0.47000000000E+01 0.  1.
         -5    1    3    3    0  503  0.46912085013E+02  0.43136909258E+01  0.76643797250E+02  0.90087253851E+02  0.47000000000E+01 0.  1.
<mgrwt>
<rscale>  0 0.12929916E+03</rscale>
<asrwt>0</asrwt>
<pdfrwt beam="1">  1        5 0.10429215E+00 0.12929933E+03</pdfrwt>
<pdfrwt beam="2">  1       -5 0.51643859E-02 0.12929933E+03</pdfrwt>
<totfact> 0.12559028E+02</totfact>
</mgrwt>
</event>
<event>
 8    1  0.1865596E-007  0.1301373E+03  0.7546771E-02  0.1227253E+00
         -5   -1    0    0    0  501 -0.00000000000E+00  0.00000000000E+00  0.72130494982E+02  0.72283458041E+02  0.47000000000E+01 0. -1.
          5   -1    0    0  501    0  0.00000000000E+00 -0.00000000000E+00 -0.23624474947E+03  0.23629149721E+03  0.47000000000E+01 0. -1.
         25    2    1    2    0    0  0.11684163471E+02  0.34257030368E+02 -0.68297255474E+02  0.14697014489E+03  0.12500257829E+03 0.  0.
         25    2    1    2    0    0 -0.11684163471E+02 -0.34257030368E+02 -0.95816999018E+02  0.16160481036E+03  0.12500061450E+03 0.  0.
          5    1    3    3  502    0  0.57967157851E+02 -0.13064781337E+02 -0.14002575605E+02  0.61229421231E+02  0.47000000000E+01 0. -1.
         -5    1    3    3    0  502 -0.46282994381E+02  0.47321811705E+02 -0.54294679869E+02  0.85740723662E+02  0.47000000000E+01 0. -1.
          5    1    4    4  503    0  0.36127724319E+02  0.24675911150E+02 -0.67280950896E+02  0.80392346707E+02  0.47000000000E+01 0. -1.
         -5    1    4    4    0  503 -0.47811887790E+02 -0.58932941519E+02 -0.28536048123E+02  0.81212463652E+02  0.47000000000E+01 0. -1.
<mgrwt>
<rscale>  0 0.13013680E+03</rscale>
<asrwt>0</asrwt>
<pdfrwt beam="2">  1        5 0.36360708E-01 0.13013727E+03</pdfrwt>
<pdfrwt beam="1">  1       -5 0.11112362E-01 0.13013727E+03</pdfrwt>
<totfact> 0.34847397E+02</totfact>
</mgrwt>
</event>
<event>
 8    1  0.1865596E-007  0.1319387E+03  0.7546771E-02  0.1224623E+00
         -5   -1    0    0    0  501 -0.00000000000E+00  0.00000000000E+00  0.15022819187E+02  0.15740873429E+02  0.47000000000E+01 0. -1.
          5   -1    0    0  501    0  0.00000000000E+00 -0.00000000000E+00 -0.11351849848E+04  0.11351947144E+04  0.47000000000E+01 0. -1.
         25    2    1    2    0    0  0.41598765568E+02 -0.72293062659E+01 -0.52368890852E+03  0.54005360202E+03  0.12500039992E+03 0.  0.
         25    2    1    2    0    0 -0.41598765568E+02  0.72293062659E+01 -0.59647325706E+03  0.61088198583E+03  0.12495492810E+03 0.  0.
          5    1    4    4  502    0 -0.24086677066E+02 -0.20969430492E+02 -0.56153047291E+03  0.56245750687E+03  0.47000000000E+01 0.  1.
         -5    1    4    4    0  502 -0.17512088502E+02  0.28198736758E+02 -0.34942784154E+02  0.48424478963E+02  0.47000000000E+01 0.  1.
          5    1    3    3  503    0 -0.23896584886E+02  0.15995586522E+02 -0.31300597309E+02  0.42763570352E+02  0.47000000000E+01 0.  1.
         -5    1    3    3    0  503  0.65495350454E+02 -0.23224892787E+02 -0.49238831121E+03  0.49729003167E+03  0.47000000000E+01 0.  1.
<mgrwt>
<rscale>  0 0.13192793E+03</rscale>
<asrwt>0</asrwt>
<pdfrwt beam="2">  1        5 0.17469976E+00 0.13193870E+03</pdfrwt>
<pdfrwt beam="1">  1       -5 0.23671872E-02 0.13193870E+03</pdfrwt>
<totfact> 0.11494932E+02</totfact>
</mgrwt>
</event>
<event>
 8    1  0.1865596E-007  0.1311301E+03  0.7546771E-02  0.1225788E+00
         -5   -1    0    0    0  501 -0.00000000000E+00  0.00000000000E+00  0.19358489490E+03  0.19364194156E+03  0.47000000000E+01 0. -1.
          5   -1    0    0  501    0  0.00000000000E+00 -0.00000000000E+00 -0.13314060790E+03  0.13322353948E+03  0.47000000000E+01 0. -1.
         25    2    1    2    0    0 -0.87154340233E+00 -0.39612045261E+02  0.12459552267E+03  0.18088432911E+03  0.12500089012E+03 0.  0.
         25    2    1    2    0    0  0.87154340233E+00  0.39612045261E+02 -0.64151235665E+02  0.14598115193E+03  0.12500096785E+03 0.  0.
          5    1    4    4  502    0  0.60269379058E+02  0.81104807481E+01 -0.45361191368E+02  0.76012536021E+02  0.47000000000E+01 0.  1.
         -5    1    4    4    0  502 -0.59397835656E+02  0.31501564513E+02 -0.18790044297E+02  0.69968615908E+02  0.47000000000E+01 0.  1.
          5    1    3    3  503    0  0.31876731860E+01 -0.81313317142E+02  0.10860904535E+03  0.13579407770E+03  0.47000000000E+01 0.  1.
         -5    1    3    3    0  503 -0.40592165883E+01  0.41701271881E+02  0.15986477315E+02  0.45090251416E+02  0.47000000000E+01 0.  1.
<mgrwt>
<rscale>  0 0.13113013E+03</rscale>
<asrwt>0</asrwt>
<pdfrwt beam="2">  1        5 0.20493938E-01 0.13113015E+03</pdfrwt>
<pdfrwt beam="1">  1       -5 0.29793059E-01 0.13113015E+03</pdfrwt>
<totfact> 0.17128950E+02</totfact>
</mgrwt>
</event>
<event>
 8    1  0.1865596E-007  0.2121266E+03  0.7546771E-02  0.1139899E+00
         -5   -1    0    0    0  501 -0.00000000000E+00  0.00000000000E+00  0.27176461809E+03  0.27180525684E+03  0.47000000000E+01 0.  1.
          5   -1    0    0  501    0  0.00000000000E+00 -0.00000000000E+00 -0.17246394857E+03  0.17252797905E+03  0.47000000000E+01 0.  1.
         25    2    1    2    0    0 -0.93399523299E+02 -0.14365521540E+03  0.94387709890E+02  0.23217819854E+03  0.12504952714E+03 0.  0.
         25    2    1    2    0    0  0.93399523299E+02  0.14365521540E+03  0.49129596320E+01  0.21215503735E+03  0.12500132334E+03 0.  0.
          5    1    3    3  502    0 -0.41514860799E+02 -0.33669259436E+01  0.68499411151E+02  0.80306159076E+02  0.47000000000E+01 0.  1.
         -5    1    3    3    0  502 -0.51884662500E+02 -0.14028828945E+03  0.25888298739E+02  0.15187203947E+03  0.47000000000E+01 0.  1.
          5    1    4    4  503    0  0.31343065722E+02  0.15468871982E+02 -0.48509889814E+02  0.59974771188E+02  0.47000000000E+01 0. -1.
         -5    1    4    4    0  503  0.62056457577E+02  0.12818634341E+03  0.53422849446E+02  0.15218026616E+03  0.47000000000E+01 0. -1.
<mgrwt>
<rscale>  0 0.21211945E+03</rscale>
<asrwt>0</asrwt>
<pdfrwt beam="2">  1        5 0.26540967E-01 0.21212656E+03</pdfrwt>
<pdfrwt beam="1">  1       -5 0.41817993E-01 0.21212656E+03</pdfrwt>
<totfact> 0.61029326E+01</totfact>
</mgrwt>
</event>
<event>
 8    1  0.1865596E-007  0.1525702E+03  0.7546771E-02  0.1197351E+00
         -5   -1    0    0    0  501 -0.00000000000E+00  0.00000000000E+00  0.12514147269E+03  0.12522970170E+03  0.47000000000E+01 0. -1.
          5   -1    0    0  501    0  0.00000000000E+00 -0.00000000000E+00 -0.36645585224E+03  0.36648599106E+03  0.47000000000E+01 0. -1.
         25    2    1    2    0    0  0.52178180813E+02  0.70208498461E+02  0.51923004214E+02  0.16116342430E+03  0.12500342058E+03 0.  0.
         25    2    1    2    0    0 -0.52178180813E+02 -0.70208498461E+02 -0.29323738377E+03  0.33055226846E+03  0.12499937255E+03 0.  0.
          5    1    3    3  502    0  0.59599339518E+02 -0.12426135179E+02  0.48522476612E+02  0.77993658993E+02  0.47000000000E+01 0.  1.
         -5    1    3    3    0  502 -0.74211587053E+01  0.82634633639E+02  0.34005276015E+01  0.83169765307E+02  0.47000000000E+01 0.  1.
          5    1    4    4  503    0  0.18630656491E+02 -0.78390114170E+02 -0.14325390607E+03  0.16442591938E+03  0.47000000000E+01 0.  1.
         -5    1    4    4    0  503 -0.70808837304E+02  0.81816157096E+01 -0.14998347770E+03  0.16612634908E+03  0.47000000000E+01 0.  1.
<mgrwt>
<rscale>  0 0.15256932E+03</rscale>
<asrwt>0</asrwt>
<pdfrwt beam="2">  1        5 0.56386928E-01 0.15257015E+03</pdfrwt>
<pdfrwt beam="1">  1       -5 0.19261640E-01 0.15257015E+03</pdfrwt>
<totfact> 0.54349599E+01</totfact>
</mgrwt>
</event>
<event>
 8    1  0.1865596E-007  0.1485339E+03  0.7546771E-02  0.1202286E+00
          5   -1    0    0  501    0  0.00000000000E+00  0.00000000000E+00  0.13025078175E+03  0.13033555212E+03  0.47000000000E+01 0. -1.
         -5   -1    0    0    0  501 -0.00000000000E+00 -0.00000000000E+00 -0.17040296635E+03  0.17046777097E+03  0.47000000000E+01 0. -1.
         25    2    1    2    0    0 -0.14207649277E+01 -0.80219250964E+02 -0.32651675234E+02  0.15208016553E+03  0.12500039222E+03 0.  0.
         25    2    1    2    0    0  0.14207649277E+01  0.80219250964E+02 -0.75005093645E+01  0.14872315756E+03  0.12500069262E+03 0.  0.
          5    1    3    3  502    0  0.46456244327E+02 -0.30718028774E+02  0.25866427459E+02  0.61586865469E+02  0.47000000000E+01 0.  1.
         -5    1    3    3    0  502 -0.47877009255E+02 -0.49501222191E+02 -0.58518102693E+02  0.90493300063E+02  0.47000000000E+01 0.  1.
          5    1    4    4  503    0  0.48561739964E+02  0.44486343426E+02  0.35948116850E+02  0.75177353271E+02  0.47000000000E+01 0. -1.
         -5    1    4    4    0  503 -0.47140975036E+02  0.35732907538E+02 -0.43448626215E+02  0.73545804288E+02  0.47000000000E+01 0. -1.
<mgrwt>
<rscale>  0 0.14853384E+03</rscale>
<asrwt>0</asrwt>
<pdfrwt beam="1">  1        5 0.20050087E-01 0.14853390E+03</pdfrwt>
<pdfrwt beam="2">  1       -5 0.26227347E-01 0.14853390E+03</pdfrwt>
<totfact> 0.23841748E+02</totfact>
</mgrwt>
</event>
<event>
 8    1  0.1865596E-007  0.1280204E+03  0.7546771E-02  0.1230423E+00
          5   -1    0    0  501    0  0.00000000000E+00  0.00000000000E+00  0.73921959012E+03  0.73923453140E+03  0.47000000000E+01 0.  1.
         -5   -1    0    0    0  501 -0.00000000000E+00 -0.00000000000E+00 -0.22289224782E+02  0.22779366571E+02  0.47000000000E+01 0.  1.
         25    2    1    2    0    0 -0.24805855714E+02  0.12190184167E+02  0.30909690861E+03  0.33455938284E+03  0.12500060265E+03 0.  0.
         25    2    1    2    0    0  0.24805855714E+02 -0.12190184167E+02  0.40783345673E+03  0.42745451513E+03  0.12500121206E+03 0.  0.
          5    1    3    3  502    0 -0.18918980602E+02  0.86371577192E+01 -0.37095451577E+01  0.21642066578E+02  0.47000000000E+01 0.  1.
         -5    1    3    3    0  502 -0.58868751121E+01  0.35530264475E+01  0.31280645377E+03  0.31291731626E+03  0.47000000000E+01 0.  1.
          5    1    4    4  503    0  0.98517043592E+01  0.46253718607E+02  0.30054262077E+03  0.30427687961E+03  0.47000000000E+01 0. -1.
         -5    1    4    4    0  503  0.14954151355E+02 -0.58443902774E+02  0.10729083596E+03  0.12317763553E+03  0.47000000000E+01 0. -1.
<mgrwt>
<rscale>  0 0.12802030E+03</rscale>
<asrwt>0</asrwt>
<pdfrwt beam="1">  1        5 0.11376492E+00 0.12802044E+03</pdfrwt>
<pdfrwt beam="2">  1       -5 0.34679646E-02 0.12802044E+03</pdfrwt>
<totfact> 0.19411065E+02</totfact>
</mgrwt>
</event>
<event>
 8    1  0.1865596E-007  0.1278661E+03  0.7546771E-02  0.1230661E+00
         -5   -1    0    0    0  501 -0.00000000000E+00  0.00000000000E+00  0.20715924176E+02  0.21242398981E+02  0.47000000000E+01 0.  1.
          5   -1    0    0  501    0  0.00000000000E+00 -0.00000000000E+00 -0.10848096805E+04  0.10848198620E+04  0.47000000000E+01 0.  1.
         25    2    1    2    0    0  0.47718613719E+01 -0.26470559829E+02 -0.23835074409E+03  0.27047787707E+03  0.12499497421E+03 0.  0.
         25    2    1    2    0    0 -0.47718613719E+01  0.26470559829E+02 -0.82574301225E+03  0.83558438389E+03  0.12500511639E+03 0.  0.
          5    1    4    4  502    0 -0.28433715476E+02 -0.36020332993E+02 -0.54549184981E+03  0.54743893612E+03  0.47000000000E+01 0. -1.
         -5    1    4    4    0  502  0.23661854104E+02  0.62490892822E+02 -0.28025116244E+03  0.28814544778E+03  0.47000000000E+01 0. -1.
          5    1    3    3  503    0 -0.84596149668E+01 -0.13867907542E+01  0.13679298753E+02  0.16813729163E+02  0.47000000000E+01 0.  1.
         -5    1    3    3    0  503  0.13231476339E+02 -0.25083769074E+02 -0.25203004284E+03  0.25366414790E+03  0.47000000000E+01 0.  1.
<mgrwt>
<rscale>  0 0.12786362E+03</rscale>
<asrwt>0</asrwt>
<pdfrwt beam="2">  1        5 0.16693503E+00 0.12786610E+03</pdfrwt>
<pdfrwt beam="1">  1       -5 0.32283474E-02 0.12786610E+03</pdfrwt>
<totfact> 0.78740212E+01</totfact>
</mgrwt>
</event>
<event>
 8    1  0.1865596E-007  0.1531442E+03  0.7546771E-02  0.1196663E+00
         -5   -1    0    0    0  501 -0.00000000000E+00  0.00000000000E+00  0.11646704445E+04  0.11646799278E+04  0.47000000000E+01 0. -1.
          5   -1    0    0  501    0  0.00000000000E+00 -0.00000000000E+00 -0.19917726132E+02  0.20464745643E+02  0.47000000000E+01 0. -1.
         25    2    1    2    0    0  0.87682557317E+02 -0.11806615140E+02  0.53899673239E+03  0.56032992897E+03  0.12499809901E+03 0.  0.
         25    2    1    2    0    0 -0.87682557317E+02  0.11806615140E+02  0.60575598600E+03  0.62481474452E+03  0.12500209350E+03 0.  0.
          5    1    4    4  502    0  0.63503962683E+01 -0.17583328990E+02  0.11536128111E+02  0.22464933629E+02  0.47000000000E+01 0. -1.
         -5    1    4    4    0  502 -0.94032953586E+02  0.29389944130E+02  0.59421985789E+03  0.60234981089E+03  0.47000000000E+01 0. -1.
          5    1    3    3  503    0  0.98317235833E+02  0.16717706291E+02  0.50362594607E+03  0.51342666869E+03  0.47000000000E+01 0. -1.
         -5    1    3    3    0  503 -0.10634678515E+02 -0.28524321432E+02  0.35370786315E+02  0.46903260279E+02  0.47000000000E+01 0. -1.
<mgrwt>
<rscale>  0 0.15314340E+03</rscale>
<asrwt>0</asrwt>
<pdfrwt beam="2">  1        5 0.31070732E-02 0.15314421E+03</pdfrwt>
<pdfrwt beam="1">  1       -5 0.17922289E+00 0.15314421E+03</pdfrwt>
<totfact> 0.71999447E+01</totfact>
</mgrwt>
</event>
<event>
 8    1  0.1865596E-007  0.1361466E+03  0.7546771E-02  0.1218611E+00
          5   -1    0    0  501    0  0.00000000000E+00  0.00000000000E+00  0.10792441806E+03  0.10802670973E+03  0.47000000000E+01 0.  1.
         -5   -1    0    0    0  501 -0.00000000000E+00 -0.00000000000E+00 -0.19697536121E+03  0.19703142624E+03  0.47000000000E+01 0.  1.
         25    2    1    2    0    0  0.21687604196E+02  0.49406558681E+02 -0.99326978318E+02  0.16852820283E+03  0.12499818523E+03 0.  0.
         25    2    1    2    0    0 -0.21687604196E+02 -0.49406558681E+02  0.10276035166E+02  0.13652993313E+03  0.12499386195E+03 0.  0.
          5    1    3    3  502    0 -0.46260069468E+02 -0.73830504207E+01 -0.28490626143E+02  0.55030075765E+02  0.47000000000E+01 0. -1.
         -5    1    3    3    0  502  0.67947673664E+02  0.56789609101E+02 -0.70836352174E+02  0.11349812707E+03  0.47000000000E+01 0. -1.
          5    1    4    4  503    0  0.56368911016E+01 -0.81259075364E+02 -0.20680010767E+02  0.84169856336E+02  0.47000000000E+01 0.  1.
         -5    1    4    4    0  503 -0.27324495298E+02  0.31852516683E+02  0.30956045933E+02  0.52360076796E+02  0.47000000000E+01 0.  1.
<mgrwt>
<rscale>  0 0.13614564E+03</rscale>
<asrwt>0</asrwt>
<pdfrwt beam="1">  1        5 0.16615938E-01 0.13614664E+03</pdfrwt>
<pdfrwt beam="2">  1       -5 0.30316083E-01 0.13614664E+03</pdfrwt>
<totfact> 0.24712146E+02</totfact>
</mgrwt>
</event>
<event>
 8    1  0.1865596E-007  0.2510403E+03  0.7546771E-02  0.1112649E+00
         -5   -1    0    0    0  501 -0.00000000000E+00  0.00000000000E+00  0.34595612772E+03  0.34598805226E+03  0.47000000000E+01 0.  1.
          5   -1    0    0  501    0  0.00000000000E+00 -0.00000000000E+00 -0.20570327703E+03  0.20575696387E+03  0.47000000000E+01 0.  1.
         25    2    1    2    0    0  0.22584339508E+02 -0.21653155451E+03  0.16356660718E+03  0.29962448173E+03  0.12499931432E+03 0.  0.
         25    2    1    2    0    0 -0.22584339508E+02  0.21653155451E+03 -0.23313756489E+02  0.25212053440E+03  0.12500106454E+03 0.  0.
          5    1    3    3  502    0  0.26035766377E+02 -0.54364916919E+01  0.57018173326E+02  0.63091827222E+02  0.47000000000E+01 0.  1.
         -5    1    3    3    0  502 -0.34514268690E+01 -0.21109506281E+03  0.10654843386E+03  0.23653265451E+03  0.47000000000E+01 0.  1.
          5    1    4    4  503    0 -0.97183375993E+01  0.17432653617E+03  0.35714580553E+02  0.17827453145E+03  0.47000000000E+01 0.  1.
         -5    1    4    4    0  503 -0.12866001909E+02  0.42205018337E+02 -0.59028337042E+02  0.73846002951E+02  0.47000000000E+01 0.  1.
<mgrwt>
<rscale>  0 0.25104008E+03</rscale>
<asrwt>0</asrwt>
<pdfrwt beam="2">  1        5 0.31653244E-01 0.25104030E+03</pdfrwt>
<pdfrwt beam="1">  1       -5 0.53230605E-01 0.25104030E+03</pdfrwt>
<totfact> 0.26935864E+01</totfact>
</mgrwt>
</event>
<event>
 8    1  0.1865596E-007  0.1293897E+03  0.7546771E-02  0.1228365E+00
         -5   -1    0    0    0  501 -0.00000000000E+00  0.00000000000E+00  0.29630218984E+03  0.29633946363E+03  0.47000000000E+01 0. -1.
          5   -1    0    0  501    0  0.00000000000E+00 -0.00000000000E+00 -0.59667615951E+02  0.59852438490E+02  0.47000000000E+01 0. -1.
         25    2    1    2    0    0  0.43316638048E+01  0.33127349568E+02  0.16015133732E+03  0.20588865083E+03  0.12500200437E+03 0.  0.
         25    2    1    2    0    0 -0.43316638048E+01 -0.33127349568E+02  0.76483236571E+02  0.15030325129E+03  0.12500078908E+03 0.  0.
          5    1    3    3  502    0  0.37098903011E+02 -0.34063064590E+02  0.90128847194E+02  0.10335337474E+03  0.47000000000E+01 0.  1.
         -5    1    3    3    0  502 -0.32767239206E+02  0.67190414158E+02  0.70022490123E+02  0.10253527609E+03  0.47000000000E+01 0.  1.
          5    1    4    4  503    0 -0.48757913143E+02 -0.52643146566E+02  0.71322584829E+02  0.10127998855E+03  0.47000000000E+01 0.  1.
         -5    1    4    4    0  503  0.44426249338E+02  0.19515796998E+02  0.51606517420E+01  0.49023262734E+02  0.47000000000E+01 0.  1.
<mgrwt>
<rscale>  0 0.12938937E+03</rscale>
<asrwt>0</asrwt>
<pdfrwt beam="2">  1        5 0.91967178E-02 0.12938967E+03</pdfrwt>
<pdfrwt beam="1">  1       -5 0.45602035E-01 0.12938967E+03</pdfrwt>
<totfact> 0.30419187E+02</totfact>
</mgrwt>
</event>
<event>
 8    1  0.1865596E-007  0.1417293E+03  0.7546771E-02  0.1211025E+00
          5   -1    0    0  501    0  0.00000000000E+00  0.00000000000E+00  0.52478915444E+02  0.52688960572E+02  0.47000000000E+01 0.  1.
         -5   -1    0    0    0  501 -0.00000000000E+00 -0.00000000000E+00 -0.42611820387E+03  0.42614412312E+03  0.47000000000E+01 0.  1.
         25    2    1    2    0    0 -0.41020703430E+02  0.52683978390E+02 -0.26406652407E+03  0.29969707400E+03  0.12501562838E+03 0.  0.
         25    2    1    2    0    0  0.41020703430E+02 -0.52683978390E+02 -0.10957276435E+03  0.17913600969E+03  0.12500087836E+03 0.  0.
          5    1    3    3  502    0 -0.20611045566E+02 -0.40773485165E+02 -0.88283850264E+02  0.99515930932E+02  0.47000000000E+01 0.  1.
         -5    1    3    3    0  502 -0.20409657864E+02  0.93457463555E+02 -0.17578267381E+03  0.20018114307E+03  0.47000000000E+01 0.  1.
          5    1    4    4  503    0  0.63459451420E+02  0.10517614818E+02 -0.20779102453E+02  0.67761222648E+02  0.47000000000E+01 0.  1.
         -5    1    4    4    0  503 -0.22438747991E+02 -0.63201593209E+02 -0.88793661902E+02  0.11137478705E+03  0.47000000000E+01 0.  1.
<mgrwt>
<rscale>  0 0.14172609E+03</rscale>
<asrwt>0</asrwt>
<pdfrwt beam="1">  1        5 0.80918306E-02 0.14172934E+03</pdfrwt>
<pdfrwt beam="2">  1       -5 0.65574796E-01 0.14172934E+03</pdfrwt>
<totfact> 0.17901703E+02</totfact>
</mgrwt>
</event>
<event>
 8    1  0.1865596E-007  0.1267452E+03  0.7546771E-02  0.1232372E+00
          5   -1    0    0  501    0  0.00000000000E+00  0.00000000000E+00  0.16228597630E+03  0.16235402091E+03  0.47000000000E+01 0.  1.
         -5   -1    0    0    0  501 -0.00000000000E+00 -0.00000000000E+00 -0.10016963903E+03  0.10027984136E+03  0.47000000000E+01 0.  1.
         25    2    1    2    0    0  0.73581562206E+01 -0.19531685679E+02  0.15904746625E+02  0.12773921966E+03  0.12501487138E+03 0.  0.
         25    2    1    2    0    0 -0.73581562206E+01  0.19531685679E+02  0.46211590647E+02  0.13489464261E+03  0.12500169714E+03 0.  0.
          5    1    4    4  502    0 -0.45396004146E+02  0.13159569535E+02  0.73432209928E+02  0.87454850738E+02  0.47000000000E+01 0.  1.
         -5    1    4    4    0  502  0.38037847925E+02  0.63721161437E+01 -0.27220619281E+02  0.47439791873E+02  0.47000000000E+01 0.  1.
          5    1    3    3  503    0  0.53845321864E+02  0.27264656564E+02  0.53511866013E+01  0.60773393704E+02  0.47000000000E+01 0. -1.
         -5    1    3    3    0  503 -0.46487165643E+02 -0.46796342243E+02  0.10553560023E+02  0.66965825956E+02  0.47000000000E+01 0. -1.
<mgrwt>
<rscale>  0 0.12674196E+03</rscale>
<asrwt>0</asrwt>
<pdfrwt beam="1">  1        5 0.24980784E-01 0.12674521E+03</pdfrwt>
<pdfrwt beam="2">  1       -5 0.15424425E-01 0.12674521E+03</pdfrwt>
<totfact> 0.40139687E+02</totfact>
</mgrwt>
</event>
<event>
 8    1  0.1865596E-007  0.1541561E+03  0.7546771E-02  0.1195458E+00
         -5   -1    0    0    0  501 -0.00000000000E+00  0.00000000000E+00  0.23264597528E+02  0.23734605498E+02  0.47000000000E+01 0. -1.
          5   -1    0    0  501    0  0.00000000000E+00 -0.00000000000E+00 -0.10127615320E+04  0.10127724378E+04  0.47000000000E+01 0. -1.
         25    2    1    2    0    0  0.70214705486E+02  0.56649670135E+02 -0.51778906720E+03  0.54024960217E+03  0.12499929815E+03 0.  0.
         25    2    1    2    0    0 -0.70214705486E+02 -0.56649670135E+02 -0.47170786729E+03  0.49625744111E+03  0.12499538313E+03 0.  0.
          5    1    3    3  502    0  0.98427548034E+02  0.49335486737E+02 -0.47894885853E+03  0.49146319450E+03  0.47000000000E+01 0. -1.
         -5    1    3    3    0  502 -0.28212842548E+02  0.73141833979E+01 -0.38840208672E+02  0.48786407667E+02  0.47000000000E+01 0. -1.
          5    1    4    4  503    0 -0.43467028562E+02 -0.86127368189E+02 -0.20571875969E+03  0.22726549279E+03  0.47000000000E+01 0.  1.
         -5    1    4    4    0  503 -0.26747676925E+02  0.29477698054E+02 -0.26598910759E+03  0.26899194832E+03  0.47000000000E+01 0.  1.
<mgrwt>
<rscale>  0 0.15415534E+03</rscale>
<asrwt>0</asrwt>
<pdfrwt beam="2">  1        5 0.15584643E+00 0.15415614E+03</pdfrwt>
<pdfrwt beam="1">  1       -5 0.36161630E-02 0.15415614E+03</pdfrwt>
<totfact> 0.84063727E+01</totfact>
</mgrwt>
</event>
<event>
 8    1  0.1865596E-007  0.1837259E+03  0.7546771E-02  0.1164250E+00
         -5   -1    0    0    0  501 -0.00000000000E+00  0.00000000000E+00  0.82955512204E+03  0.82956843630E+03  0.47000000000E+01 0.  1.
          5   -1    0    0  501    0  0.00000000000E+00 -0.00000000000E+00 -0.45244914919E+02  0.45488375724E+02  0.47000000000E+01 0.  1.
         25    2    1    2    0    0  0.11264894286E+03 -0.73700357165E+02  0.53285795875E+03  0.56363519453E+03  0.12500200532E+03 0.  0.
         25    2    1    2    0    0 -0.11264894286E+03  0.73700357165E+02  0.25145224838E+03  0.31142161750E+03  0.12503464983E+03 0.  0.
          5    1    3    3  502    0  0.61408711723E+02 -0.76985056356E+02  0.16521973991E+03  0.19239901567E+03  0.47000000000E+01 0.  1.
         -5    1    3    3    0  502  0.51240231139E+02  0.32846991919E+01  0.36763821884E+03  0.37123617885E+03  0.47000000000E+01 0.  1.
          5    1    4    4  503    0 -0.65440009481E+02  0.90679299259E+02  0.23166694617E+03  0.25728737650E+03  0.47000000000E+01 0. -1.
         -5    1    4    4    0  503 -0.47208933381E+02 -0.16978942095E+02  0.19785302202E+02  0.54134241002E+02  0.47000000000E+01 0. -1.
<mgrwt>
<rscale>  0 0.18372030E+03</rscale>
<asrwt>0</asrwt>
<pdfrwt beam="2">  1        5 0.69805083E-02 0.18372586E+03</pdfrwt>
<pdfrwt beam="1">  1       -5 0.12764361E+00 0.18372586E+03</pdfrwt>
<totfact> 0.50390264E+01</totfact>
</mgrwt>
</event>
<event>
 8    1  0.1865596E-007  0.1337985E+03  0.7546771E-02  0.1221932E+00
         -5   -1    0    0    0  501 -0.00000000000E+00  0.00000000000E+00  0.17520561189E+03  0.17526864077E+03  0.47000000000E+01 0.  1.
          5   -1    0    0  501    0  0.00000000000E+00 -0.00000000000E+00 -0.10464515537E+03  0.10475064937E+03  0.47000000000E+01 0.  1.
         25    2    1    2    0    0  0.29164562140E+02 -0.37726791181E+02  0.57408260921E+02  0.14559450357E+03  0.12501267372E+03 0.  0.
         25    2    1    2    0    0 -0.29164562140E+02  0.37726791181E+02  0.13152195598E+02  0.13442478657E+03  0.12499264194E+03 0.  0.
          5    1    3    3  502    0  0.58486676548E+01 -0.34621767569E+02 -0.35194162679E+02  0.49935886791E+02  0.47000000000E+01 0. -1.
         -5    1    3    3    0  502  0.23315894485E+02 -0.31050236127E+01  0.92602423599E+02  0.95658616777E+02  0.47000000000E+01 0. -1.
          5    1    4    4  503    0 -0.19657005446E+02 -0.44743756255E+02  0.14734261340E+02  0.51260023840E+02  0.47000000000E+01 0. -1.
         -5    1    4    4    0  503 -0.95075566935E+01  0.82470547436E+02 -0.15820657426E+01  0.83164762734E+02  0.47000000000E+01 0. -1.
<mgrwt>
<rscale>  0 0.13379387E+03</rscale>
<asrwt>0</asrwt>
<pdfrwt beam="2">  1        5 0.16112218E-01 0.13379855E+03</pdfrwt>
<pdfrwt beam="1">  1       -5 0.26967672E-01 0.13379855E+03</pdfrwt>
<totfact> 0.32643800E+02</totfact>
</mgrwt>
</event>
<event>
 8    1  0.1865596E-007  0.1390958E+03  0.7546771E-02  0.1214554E+00
          5   -1    0    0  501    0  0.00000000000E+00  0.00000000000E+00  0.26997883381E+03  0.27001974132E+03  0.47000000000E+01 0.  1.
         -5   -1    0    0    0  501 -0.00000000000E+00 -0.00000000000E+00 -0.90483832864E+02  0.90605816644E+02  0.47000000000E+01 0.  1.
         25    2    1    2    0    0 -0.66335501218E+01 -0.60640115413E+02  0.73181250691E+01  0.13928821161E+03  0.12500569329E+03 0.  0.
         25    2    1    2    0    0  0.66335501218E+01  0.60640115413E+02  0.17217687588E+03  0.22133734635E+03  0.12499646683E+03 0.  0.
          5    1    3    3  502    0  0.44355471737E+01 -0.98314773575E+02  0.12829238456E+02  0.99358684277E+02  0.47000000000E+01 0.  1.
         -5    1    3    3    0  502 -0.11069097295E+02  0.37674658162E+02 -0.55111133872E+01  0.39929527337E+02  0.47000000000E+01 0.  1.
          5    1    4    4  503    0  0.18124870126E+02  0.72044195231E+02  0.18548201143E+03  0.19986131078E+03  0.47000000000E+01 0. -1.
         -5    1    4    4    0  503 -0.11491320004E+02 -0.11404079818E+02 -0.13305135551E+02  0.21476035574E+02  0.47000000000E+01 0. -1.
<mgrwt>
<rscale>  0 0.13909376E+03</rscale>
<asrwt>0</asrwt>
<pdfrwt beam="1">  1        5 0.41547735E-01 0.13909583E+03</pdfrwt>
<pdfrwt beam="2">  1       -5 0.13933120E-01 0.13909583E+03</pdfrwt>
<totfact> 0.18181505E+02</totfact>
</mgrwt>
</event>
<event>
 8    1  0.1865596E-007  0.1318706E+03  0.7546771E-02  0.1224709E+00
          5   -1    0    0  501    0  0.00000000000E+00  0.00000000000E+00  0.78316542498E+02  0.78457445974E+02  0.47000000000E+01 0. -1.
         -5   -1    0    0    0  501 -0.00000000000E+00 -0.00000000000E+00 -0.25652016142E+03  0.25656321485E+03  0.47000000000E+01 0. -1.
         25    2    1    2    0    0  0.41961810773E+02  0.18719868547E+01 -0.15082517342E+03  0.20034489807E+03  0.12500218938E+03 0.  0.
         25    2    1    2    0    0 -0.41961810773E+02 -0.18719868547E+01 -0.27378445501E+02  0.13467576275E+03  0.12499473547E+03 0.  0.
          5    1    4    4  502    0 -0.58751177299E+02  0.38347408861E+02 -0.49091506385E+02  0.85757160631E+02  0.47000000000E+01 0. -1.
         -5    1    4    4    0  502  0.16789366526E+02 -0.40219395716E+02  0.21713060884E+02  0.48918602116E+02  0.47000000000E+01 0. -1.
          5    1    3    3  503    0 -0.27697459267E+02  0.18335657510E+02 -0.24123607454E+00  0.33548379707E+02  0.47000000000E+01 0.  1.
         -5    1    3    3    0  503  0.69659270040E+02 -0.16463670655E+02 -0.15058393734E+03  0.16679651837E+03  0.47000000000E+01 0.  1.
<mgrwt>
<rscale>  0 0.13186880E+03</rscale>
<asrwt>0</asrwt>
<pdfrwt beam="1">  1        5 0.12062849E-01 0.13187056E+03</pdfrwt>
<pdfrwt beam="2">  1       -5 0.39478791E-01 0.13187056E+03</pdfrwt>
<totfact> 0.25641309E+02</totfact>
</mgrwt>
</event>
<event>
 8    1  0.1865596E-007  0.1281330E+03  0.7546771E-02  0.1230256E+00
         -5   -1    0    0    0  501 -0.00000000000E+00  0.00000000000E+00  0.11227228551E+03  0.11237061935E+03  0.47000000000E+01 0.  1.
          5   -1    0    0  501    0  0.00000000000E+00 -0.00000000000E+00 -0.14671053312E+03  0.14678579811E+03  0.47000000000E+01 0.  1.
         25    2    1    2    0    0  0.25209700646E+02  0.12444418349E+02 -0.26082563834E+02  0.13076067200E+03  0.12501064216E+03 0.  0.
         25    2    1    2    0    0 -0.25209700646E+02 -0.12444418349E+02 -0.83556837725E+01  0.12839574546E+03  0.12500102978E+03 0.  0.
          5    1    3    3  502    0  0.63390847727E+02  0.44300749315E+02 -0.91319330988E+01  0.78015627713E+02  0.47000000000E+01 0. -1.
         -5    1    3    3    0  502 -0.38181147081E+02 -0.31856330965E+02 -0.16950630735E+02  0.52745044292E+02  0.47000000000E+01 0. -1.
          5    1    4    4  503    0 -0.27093372430E+02 -0.12823782152E+02 -0.64890397578E+02  0.71633469246E+02  0.47000000000E+01 0.  1.
         -5    1    4    4    0  503  0.18836717845E+01  0.37936380277E+00  0.56534713806E+02  0.56762276218E+02  0.47000000000E+01 0.  1.
<mgrwt>
<rscale>  0 0.12813061E+03</rscale>
<asrwt>0</asrwt>
<pdfrwt beam="2">  1        5 0.22584205E-01 0.12813295E+03</pdfrwt>
<pdfrwt beam="1">  1       -5 0.17286013E-01 0.12813295E+03</pdfrwt>
<totfact> 0.39663523E+02</totfact>
</mgrwt>
</event>
<event>
 8    1  0.1865596E-007  0.1937154E+03  0.7546771E-02  0.1155152E+00
         -5   -1    0    0    0  501 -0.00000000000E+00  0.00000000000E+00  0.71602094731E+03  0.71603637267E+03  0.47000000000E+01 0. -1.
          5   -1    0    0  501    0  0.00000000000E+00 -0.00000000000E+00 -0.54660584720E+02  0.54862277768E+02  0.47000000000E+01 0. -1.
         25    2    1    2    0    0 -0.11336434939E+03 -0.95126531696E+02  0.25052391266E+03  0.31668262887E+03  0.12500049546E+03 0.  0.
         25    2    1    2    0    0  0.11336434939E+03  0.95126531696E+02  0.41083644993E+03  0.45421602157E+03  0.12500029166E+03 0.  0.
          5    1    4    4  502    0  0.31007790665E+02 -0.24847145038E+02  0.15264695965E+03  0.15780382755E+03  0.47000000000E+01 0.  1.
         -5    1    4    4    0  502  0.82356558728E+02  0.11997367673E+03  0.25818949028E+03  0.29641219402E+03  0.47000000000E+01 0.  1.
          5    1    3    3  503    0 -0.12849998169E+03 -0.11183838569E+03  0.22581806481E+03  0.28290627106E+03  0.47000000000E+01 0. -1.
         -5    1    3    3    0  503  0.15135632295E+02  0.16711853997E+02  0.24705847851E+02  0.33776357812E+02  0.47000000000E+01 0. -1.
<mgrwt>
<rscale>  0 0.19371537E+03</rscale>
<asrwt>0</asrwt>
<pdfrwt beam="2">  1        5 0.84260228E-02 0.19371540E+03</pdfrwt>
<pdfrwt beam="1">  1       -5 0.11017376E+00 0.19371540E+03</pdfrwt>
<totfact> 0.53889271E+01</totfact>
</mgrwt>
</event>
<event>
 8    1  0.1865596E-007  0.1305607E+03  0.7546771E-02  0.1226628E+00
          5   -1    0    0  501    0  0.00000000000E+00  0.00000000000E+00  0.30666992301E+03  0.30670593682E+03  0.47000000000E+01 0.  1.
         -5   -1    0    0    0  501 -0.00000000000E+00 -0.00000000000E+00 -0.97121382212E+02  0.97235039378E+02  0.47000000000E+01 0.  1.
         25    2    1    2    0    0  0.27709573466E+02  0.25513205929E+02 -0.27402243764E+02  0.13340118793E+03  0.12500499925E+03 0.  0.
         25    2    1    2    0    0 -0.27709573466E+02 -0.25513205929E+02  0.23695078456E+03  0.27053978827E+03  0.12500943402E+03 0.  0.
          5    1    3    3  502    0 -0.12892057354E+02 -0.43461846109E+02  0.70828630189E+01  0.46123683272E+02  0.47000000000E+01 0. -1.
         -5    1    3    3    0  502  0.40601630821E+02  0.68975052038E+02 -0.34485106783E+02  0.87277504655E+02  0.47000000000E+01 0. -1.
          5    1    4    4  503    0  0.50626666647E+01  0.45317936405E+02  0.13152796293E+03  0.13928761965E+03  0.47000000000E+01 0.  1.
         -5    1    4    4    0  503 -0.32772240131E+02 -0.70831142335E+02  0.10542282163E+03  0.13125216862E+03  0.47000000000E+01 0.  1.
<mgrwt>
<rscale>  0 0.13055966E+03</rscale>
<asrwt>0</asrwt>
<pdfrwt beam="1">  1        5 0.47191501E-01 0.13056072E+03</pdfrwt>
<pdfrwt beam="2">  1       -5 0.14953264E-01 0.13056072E+03</pdfrwt>
<totfact> 0.12028113E+02</totfact>
</mgrwt>
</event>
<event>
 8    1  0.1865596E-007  0.1435997E+03  0.7546771E-02  0.1208566E+00
         -5   -1    0    0    0  501 -0.00000000000E+00  0.00000000000E+00  0.10730402013E+03  0.10740690265E+03  0.47000000000E+01 0.  1.
          5   -1    0    0  501    0  0.00000000000E+00 -0.00000000000E+00 -0.22233976645E+03  0.22238943712E+03  0.47000000000E+01 0.  1.
         25    2    1    2    0    0 -0.68596441845E+02  0.17028748972E+02  0.34287906908E+01  0.14363853958E+03  0.12499929328E+03 0.  0.
         25    2    1    2    0    0  0.68596441845E+02 -0.17028748972E+02 -0.11846453701E+03  0.18615780020E+03  0.12500171967E+03 0.  0.
          5    1    4    4  502    0 -0.93952047461E+01  0.12006721695E+02  0.19361002953E+02  0.25087241248E+02  0.47000000000E+01 0.  1.
         -5    1    4    4    0  502  0.77991646591E+02 -0.29035470667E+02 -0.13782553996E+03  0.16107055895E+03  0.47000000000E+01 0.  1.
          5    1    3    3  503    0 -0.98441237821E+02 -0.38678494078E+01  0.24039249722E+02  0.10151656559E+03  0.47000000000E+01 0. -1.
         -5    1    3    3    0  503  0.29844795976E+02  0.20896598380E+02 -0.20610459031E+02  0.42121973982E+02  0.47000000000E+01 0. -1.
<mgrwt>
<rscale>  0 0.14359919E+03</rscale>
<asrwt>0</asrwt>
<pdfrwt beam="2">  1        5 0.34217853E-01 0.14359972E+03</pdfrwt>
<pdfrwt beam="1">  1       -5 0.16520046E-01 0.14359972E+03</pdfrwt>
<totfact> 0.20001554E+02</totfact>
</mgrwt>
</event>
<event>
 8    1  0.1865596E-007  0.1278168E+03  0.7546771E-02  0.1230733E+00
          5   -1    0    0  501    0  0.00000000000E+00  0.00000000000E+00  0.84811497767E+03  0.84812800056E+03  0.47000000000E+01 0. -1.
         -5   -1    0    0    0  501 -0.00000000000E+00 -0.00000000000E+00 -0.19195488402E+02  0.19762509329E+02  0.47000000000E+01 0. -1.
         25    2    1    2    0    0 -0.20639510827E+02  0.16898111942E+02  0.36734676709E+03  0.38894830473E+03  0.12500240346E+03 0.  0.
         25    2    1    2    0    0  0.20639510827E+02 -0.16898111942E+02  0.46157272218E+03  0.47894220516E+03  0.12499888972E+03 0.  0.
          5    1    3    3  502    0  0.27634337609E+02  0.52717041739E+02  0.24984088956E+03  0.25687604637E+03  0.47000000000E+01 0. -1.
         -5    1    3    3    0  502 -0.48273848436E+02 -0.35818929796E+02  0.11750587753E+03  0.13207225836E+03  0.47000000000E+01 0. -1.
          5    1    4    4  503    0 -0.72257325903E+01 -0.54503704693E+02  0.38600835804E+03  0.38993256790E+03  0.47000000000E+01 0. -1.
         -5    1    4    4    0  503  0.27865243417E+02  0.37605592751E+02  0.75564364137E+02  0.89009637255E+02  0.47000000000E+01 0. -1.
<mgrwt>
<rscale>  0 0.12781595E+03</rscale>
<asrwt>0</asrwt>
<pdfrwt beam="1">  1        5 0.13052388E+00 0.12781681E+03</pdfrwt>
<pdfrwt beam="2">  1       -5 0.29977701E-02 0.12781681E+03</pdfrwt>
<totfact> 0.17296365E+02</totfact>
</mgrwt>
</event>
<event>
 8    1  0.1865596E-007  0.1689563E+03  0.7546771E-02  0.1178941E+00
         -5   -1    0    0    0  501 -0.00000000000E+00  0.00000000000E+00  0.45900666813E+03  0.45903073033E+03  0.47000000000E+01 0. -1.
          5   -1    0    0  501    0  0.00000000000E+00 -0.00000000000E+00 -0.62076867286E+02  0.62254537602E+02  0.47000000000E+01 0. -1.
         25    2    1    2    0    0 -0.50830972074E+02  0.10167168982E+03  0.19930569031E+03  0.26128236642E+03  0.12499918631E+03 0.  0.
         25    2    1    2    0    0  0.50830972074E+02 -0.10167168982E+03  0.19762411053E+03  0.26000290151E+03  0.12500119799E+03 0.  0.
          5    1    4    4  502    0  0.85276805631E+02 -0.74011060747E+02  0.93075827619E+02  0.14640686589E+03  0.47000000000E+01 0.  1.
         -5    1    4    4    0  502 -0.34445833557E+02 -0.27660629077E+02  0.10454828291E+03  0.11359603563E+03  0.47000000000E+01 0.  1.
          5    1    3    3  503    0  0.31456189674E+02  0.37828291982E+02  0.12158199187E+03  0.13124306568E+03  0.47000000000E+01 0.  1.
         -5    1    3    3    0  503 -0.82287161748E+02  0.63843397842E+02  0.77723698446E+02  0.13003930074E+03  0.47000000000E+01 0.  1.
<mgrwt>
<rscale>  0 0.16895589E+03</rscale>
<asrwt>0</asrwt>
<pdfrwt beam="2">  1        5 0.95658049E-02 0.16895627E+03</pdfrwt>
<pdfrwt beam="1">  1       -5 0.70631931E-01 0.16895627E+03</pdfrwt>
<totfact> 0.11986528E+02</totfact>
</mgrwt>
</event>
<event>
 8    1  0.1865596E-007  0.1892236E+03  0.7546771E-02  0.1159164E+00
          5   -1    0    0  501    0  0.00000000000E+00  0.00000000000E+00  0.99937867364E+02  0.10004832499E+03  0.47000000000E+01 0. -1.
         -5   -1    0    0    0  501 -0.00000000000E+00 -0.00000000000E+00 -0.35941021329E+03  0.35944094287E+03  0.47000000000E+01 0. -1.
         25    2    1    2    0    0  0.10788320124E+03 -0.92421916742E+02 -0.14436503105E+03  0.23800503162E+03  0.12499814831E+03 0.  0.
         25    2    1    2    0    0 -0.10788320124E+03  0.92421916742E+02 -0.11510731487E+03  0.22148423624E+03  0.12499990866E+03 0.  0.
          5    1    4    4  502    0 -0.65163091850E+02  0.11287371145E+02 -0.11134885458E+03  0.12959278801E+03  0.47000000000E+01 0. -1.
         -5    1    4    4    0  502 -0.42720109391E+02  0.81134545597E+02 -0.37584602890E+01  0.91891448238E+02  0.47000000000E+01 0. -1.
          5    1    3    3  503    0  0.12715210369E+03 -0.50728392612E+02 -0.79472425448E+02  0.15836345442E+03  0.47000000000E+01 0. -1.
         -5    1    3    3    0  503 -0.19268902452E+02 -0.41693524130E+02 -0.64892605605E+02  0.79641577196E+02  0.47000000000E+01 0. -1.
<mgrwt>
<rscale>  0 0.18922332E+03</rscale>
<asrwt>0</asrwt>
<pdfrwt beam="1">  1        5 0.15385917E-01 0.18922361E+03</pdfrwt>
<pdfrwt beam="2">  1       -5 0.55304739E-01 0.18922361E+03</pdfrwt>
<totfact> 0.91288513E+01</totfact>
</mgrwt>
</event>
<event>
 8    1  0.1865596E-007  0.2127308E+03  0.7546771E-02  0.1139422E+00
         -5   -1    0    0    0  501 -0.00000000000E+00  0.00000000000E+00  0.11839577472E+04  0.11839670760E+04  0.47000000000E+01 0.  1.
          5   -1    0    0  501    0  0.00000000000E+00 -0.00000000000E+00 -0.41341491613E+02  0.41607798894E+02  0.47000000000E+01 0.  1.
         25    2    1    2    0    0  0.85673868686E+02  0.14929217455E+03  0.74313608240E+03  0.77298366667E+03  0.12499738723E+03 0.  0.
         25    2    1    2    0    0 -0.85673868686E+02 -0.14929217455E+03  0.39948017318E+03  0.45259120826E+03  0.12500491140E+03 0.  0.
          5    1    3    3  502    0 -0.22902293267E+02  0.80809932988E+02  0.30825591321E+03  0.31952865026E+03  0.47000000000E+01 0. -1.
         -5    1    3    3    0  502  0.10857616195E+03  0.68482241561E+02  0.43488016919E+03  0.45345501641E+03  0.47000000000E+01 0. -1.
          5    1    4    4  503    0 -0.48464726127E+02 -0.79797350003E+02  0.78589245596E+02  0.12212618994E+03  0.47000000000E+01 0. -1.
         -5    1    4    4    0  503 -0.37209142559E+02 -0.69494824546E+02  0.32089092758E+03  0.33046501832E+03  0.47000000000E+01 0. -1.
<mgrwt>
<rscale>  0 0.21272969E+03</rscale>
<asrwt>0</asrwt>
<pdfrwt beam="2">  1        5 0.63814312E-02 0.21273080E+03</pdfrwt>
<pdfrwt beam="1">  1       -5 0.18216858E+00 0.21273080E+03</pdfrwt>
<totfact> 0.22586042E+01</totfact>
</mgrwt>
</event>
<event>
 8    1  0.1865596E-007  0.1769646E+03  0.7546771E-02  0.1170777E+00
          5   -1    0    0  501    0  0.00000000000E+00  0.00000000000E+00  0.21991966649E+02  0.22488588152E+02  0.47000000000E+01 0. -1.
         -5   -1    0    0    0  501 -0.00000000000E+00 -0.00000000000E+00 -0.21805739677E+04  0.21805790328E+04  0.47000000000E+01 0. -1.
         25    2    1    2    0    0  0.12510091709E+03 -0.63503485884E+01 -0.17351195211E+04  0.17441204771E+04  0.12500367944E+03 0.  0.
         25    2    1    2    0    0 -0.12510091709E+03  0.63503485884E+01 -0.42346247994E+03  0.45894714388E+03  0.12498576950E+03 0.  0.
          5    1    3    3  502    0  0.51562481966E+02 -0.64505842047E+02 -0.75619484681E+03  0.76070521856E+03  0.47000000000E+01 0.  1.
         -5    1    3    3    0  502  0.73538435121E+02  0.58155493458E+02 -0.97892467426E+03  0.98341525854E+03  0.47000000000E+01 0.  1.
          5    1    4    4  503    0 -0.11770943755E+03  0.10616651334E+02 -0.43080487430E+03  0.44674730519E+03  0.47000000000E+01 0. -1.
         -5    1    4    4    0  503 -0.73914795406E+01 -0.42663027457E+01  0.73423943668E+01  0.12199838686E+02  0.47000000000E+01 0. -1.
<mgrwt>
<rscale>  0 0.17696148E+03</rscale>
<asrwt>0</asrwt>
<pdfrwt beam="1">  1        5 0.34219725E-02 0.17696465E+03</pdfrwt>
<pdfrwt beam="2">  1       -5 0.33551134E+00 0.17696465E+03</pdfrwt>
<totfact> 0.61100682E+00</totfact>
</mgrwt>
</event>
<event>
 8    1  0.1865596E-007  0.2293913E+03  0.7546771E-02  0.1127071E+00
         -5   -1    0    0    0  501 -0.00000000000E+00  0.00000000000E+00  0.41719366906E+03  0.41722014274E+03  0.47000000000E+01 0.  1.
          5   -1    0    0  501    0  0.00000000000E+00 -0.00000000000E+00 -0.13555752191E+03  0.13563897576E+03  0.47000000000E+01 0.  1.
         25    2    1    2    0    0 -0.16286734999E+03 -0.10229808403E+03  0.21399424526E+03  0.31370268663E+03  0.12500066762E+03 0.  0.
         25    2    1    2    0    0  0.16286734999E+03  0.10229808403E+03  0.67641901897E+02  0.23915643187E+03  0.12501879989E+03 0.  0.
          5    1    4    4  502    0  0.10181193354E+03  0.75773720990E+02  0.10310507088E+03  0.16358506119E+03  0.47000000000E+01 0.  1.
         -5    1    4    4    0  502  0.61055416448E+02  0.26524363037E+02 -0.35463168983E+02  0.75571370680E+02  0.47000000000E+01 0.  1.
          5    1    3    3  503    0 -0.70561343844E+02 -0.10855251984E+03  0.16213111384E+03  0.20753587854E+03  0.47000000000E+01 0.  1.
         -5    1    3    3    0  503 -0.92306006149E+02  0.62544358151E+01  0.51863131421E+02  0.10616680809E+03  0.47000000000E+01 0.  1.
<mgrwt>
<rscale>  0 0.22938884E+03</rscale>
<asrwt>0</asrwt>
<pdfrwt beam="2">  1        5 0.20863306E-01 0.22939131E+03</pdfrwt>
<pdfrwt beam="1">  1       -5 0.64191942E-01 0.22939131E+03</pdfrwt>
<totfact> 0.39259760E+01</totfact>
</mgrwt>
</event>
<event>
 8    1  0.1865596E-007  0.1428580E+03  0.7546771E-02  0.1209534E+00
          5   -1    0    0  501    0  0.00000000000E+00  0.00000000000E+00  0.22173426927E+02  0.22666072921E+02  0.47000000000E+01 0. -1.
         -5   -1    0    0    0  501 -0.00000000000E+00 -0.00000000000E+00 -0.95610507399E+03  0.95611662599E+03  0.47000000000E+01 0. -1.
         25    2    1    2    0    0  0.55638256325E+02 -0.41087705890E+02 -0.57465216744E+03  0.59214312007E+03  0.12499818385E+03 0.  0.
         25    2    1    2    0    0 -0.55638256325E+02  0.41087705890E+02 -0.35927947962E+03  0.38663957884E+03  0.12499841722E+03 0.  0.
          5    1    4    4  502    0  0.32098101101E+02 -0.17026616649E+02 -0.75009165503E+02  0.83478492309E+02  0.47000000000E+01 0. -1.
         -5    1    4    4    0  502 -0.87736357427E+02  0.58114322539E+02 -0.28427031412E+03  0.30316108654E+03  0.47000000000E+01 0. -1.
          5    1    3    3  503    0  0.42650997399E+02  0.36573212746E+02 -0.15040348154E+03  0.16062379876E+03  0.47000000000E+01 0.  1.
         -5    1    3    3    0  503  0.12987258927E+02 -0.77660918636E+02 -0.42424868590E+03  0.43151932131E+03  0.47000000000E+01 0.  1.
<mgrwt>
<rscale>  0 0.14285799E+03</rscale>
<asrwt>0</asrwt>
<pdfrwt beam="1">  1        5 0.34500817E-02 0.14285804E+03</pdfrwt>
<pdfrwt beam="2">  1       -5 0.14713184E+00 0.14285804E+03</pdfrwt>
<totfact> 0.10386666E+02</totfact>
</mgrwt>
</event>
<event>
 8    1  0.1865596E-007  0.3128953E+03  0.7546771E-02  0.1078966E+00
         -5   -1    0    0    0  501 -0.00000000000E+00  0.00000000000E+00  0.44261079754E+03  0.44263575104E+03  0.47000000000E+01 0. -1.
          5   -1    0    0  501    0  0.00000000000E+00 -0.00000000000E+00 -0.22119353947E+03  0.22124346748E+03  0.47000000000E+01 0. -1.
         25    2    1    2    0    0 -0.11324376601E+03 -0.26354108390E+03  0.10547361492E+03  0.33019313524E+03  0.12499907868E+03 0.  0.
         25    2    1    2    0    0  0.11324376601E+03  0.26354108390E+03  0.11594364315E+03  0.33368608328E+03  0.12500168138E+03 0.  0.
          5    1    4    4  502    0  0.50979824288E+01  0.13054876858E+03  0.93541037584E+02  0.16075131761E+03  0.47000000000E+01 0. -1.
         -5    1    4    4    0  502  0.10814578358E+03  0.13299231532E+03  0.22402605563E+02  0.17293476567E+03  0.47000000000E+01 0. -1.
          5    1    3    3  503    0 -0.13662390069E+03 -0.20646910722E+03  0.10328284138E+03  0.26830023817E+03  0.47000000000E+01 0. -1.
         -5    1    3    3    0  503  0.23380134675E+02 -0.57071976671E+02  0.21907735404E+01  0.61892897067E+02  0.47000000000E+01 0. -1.
<mgrwt>
<rscale>  0 0.31289505E+03</rscale>
<asrwt>0</asrwt>
<pdfrwt beam="2">  1        5 0.34035536E-01 0.31289531E+03</pdfrwt>
<pdfrwt beam="1">  1       -5 0.68099729E-01 0.31289531E+03</pdfrwt>
<totfact> 0.14109670E+01</totfact>
</mgrwt>
</event>
<event>
 8    1  0.1865596E-007  0.1342987E+03  0.7546771E-02  0.1221216E+00
         -5   -1    0    0    0  501 -0.00000000000E+00  0.00000000000E+00  0.72994966076E+03  0.72996479178E+03  0.47000000000E+01 0. -1.
          5   -1    0    0  501    0  0.00000000000E+00 -0.00000000000E+00 -0.24749383788E+02  0.25191704942E+02  0.47000000000E+01 0. -1.
         25    2    1    2    0    0 -0.39720726212E+02 -0.28830447903E+02  0.31270539162E+03  0.34032112062E+03  0.12499948949E+03 0.  0.
         25    2    1    2    0    0  0.39720726212E+02  0.28830447903E+02  0.39249488535E+03  0.41483537610E+03  0.12500889339E+03 0.  0.
          5    1    3    3  502    0  0.45029671536E+02 -0.46054710342E+01  0.92680472134E+02  0.10325038304E+03  0.47000000000E+01 0.  1.
         -5    1    3    3    0  502 -0.84750397748E+02 -0.24224976869E+02  0.22002491949E+03  0.23707073758E+03  0.47000000000E+01 0.  1.
          5    1    4    4  503    0  0.33135556302E+02  0.64534196942E+02  0.35524689746E+03  0.36260870897E+03  0.47000000000E+01 0.  1.
         -5    1    4    4    0  503  0.65851699102E+01 -0.35703749039E+02  0.37247987887E+02  0.52226667133E+02  0.47000000000E+01 0.  1.
<mgrwt>
<rscale>  0 0.13429656E+03</rscale>
<asrwt>0</asrwt>
<pdfrwt beam="2">  1        5 0.38427868E-02 0.13429875E+03</pdfrwt>
<pdfrwt beam="1">  1       -5 0.11233512E+00 0.13429875E+03</pdfrwt>
<totfact> 0.17226842E+02</totfact>
</mgrwt>
</event>
<event>
 8    1  0.1865596E-007  0.1446816E+03  0.7546771E-02  0.1207167E+00
          5   -1    0    0  501    0  0.00000000000E+00  0.00000000000E+00  0.78384424643E+02  0.78525206313E+02  0.47000000000E+01 0.  1.
         -5   -1    0    0    0  501 -0.00000000000E+00 -0.00000000000E+00 -0.46565277630E+03  0.46567649509E+03  0.47000000000E+01 0.  1.
         25    2    1    2    0    0 -0.68990064173E+02 -0.23400661516E+02 -0.37148351447E+03  0.39866159559E+03  0.12499538538E+03 0.  0.
         25    2    1    2    0    0  0.68990064173E+02  0.23400661516E+02 -0.15784837192E+02  0.14554010581E+03  0.12500216558E+03 0.  0.
          5    1    3    3  502    0 -0.37632852972E+02 -0.50213619594E+02 -0.69173812605E+02  0.93513344320E+02  0.47000000000E+01 0. -1.
         -5    1    3    3    0  502 -0.31357211201E+02  0.26812958079E+02 -0.30230970186E+03  0.30514825127E+03  0.47000000000E+01 0. -1.
          5    1    4    4  503    0  0.15771005702E+02 -0.31858958996E+02  0.37599192827E+02  0.51956781948E+02  0.47000000000E+01 0. -1.
         -5    1    4    4    0  503  0.53219058472E+02  0.55259620512E+02 -0.53384030019E+02  0.93583323860E+02  0.47000000000E+01 0. -1.
<mgrwt>
<rscale>  0 0.14468012E+03</rscale>
<asrwt>0</asrwt>
<pdfrwt beam="1">  1        5 0.12071796E-01 0.14468159E+03</pdfrwt>
<pdfrwt beam="2">  1       -5 0.71651541E-01 0.14468159E+03</pdfrwt>
<totfact> 0.73481095E+01</totfact>
</mgrwt>
</event>
<event>
 8    1  0.1865596E-007  0.1553531E+03  0.7546771E-02  0.1194048E+00
          5   -1    0    0  501    0  0.00000000000E+00  0.00000000000E+00  0.45212502451E+03  0.45214945293E+03  0.47000000000E+01 0. -1.
         -5   -1    0    0    0  501 -0.00000000000E+00 -0.00000000000E+00 -0.53732716346E+02  0.53937879138E+02  0.47000000000E+01 0. -1.
         25    2    1    2    0    0 -0.66453401535E+02 -0.63962662626E+02  0.22317419587E+03  0.27191651328E+03  0.12499836681E+03 0.  0.
         25    2    1    2    0    0  0.66453401535E+02  0.63962662626E+02  0.17521811230E+03  0.23417081880E+03  0.12500923451E+03 0.  0.
          5    1    4    4  502    0  0.86837859933E+02  0.81352895239E+02  0.10462255846E+03  0.15851522709E+03  0.47000000000E+01 0. -1.
         -5    1    4    4    0  502 -0.20384458397E+02 -0.17390232613E+02  0.70595553835E+02  0.75655591702E+02  0.47000000000E+01 0. -1.
          5    1    3    3  503    0 -0.71762139165E+02  0.62190210948E+01  0.58995456632E+02  0.93225719327E+02  0.47000000000E+01 0.  1.
         -5    1    3    3    0  503  0.53087376294E+01 -0.70181683720E+02  0.16417873923E+03  0.17869079395E+03  0.47000000000E+01 0.  1.
<mgrwt>
<rscale>  0 0.15535091E+03</rscale>
<asrwt>0</asrwt>
<pdfrwt beam="1">  1        5 0.69575358E-01 0.15535310E+03</pdfrwt>
<pdfrwt beam="2">  1       -5 0.82842325E-02 0.15535310E+03</pdfrwt>
<totfact> 0.15511940E+02</totfact>
</mgrwt>
</event>
<event>
 8    1  0.1865596E-007  0.1607510E+03  0.7546771E-02  0.1187852E+00
          5   -1    0    0  501    0  0.00000000000E+00  0.00000000000E+00  0.10967523946E+02  0.11932165835E+02  0.47000000000E+01 0. -1.
         -5   -1    0    0    0  501 -0.00000000000E+00 -0.00000000000E+00 -0.22741940514E+04  0.22741989080E+04  0.47000000000E+01 0. -1.
         25    2    1    2    0    0  0.99859404426E+01  0.10057712900E+03 -0.10291279842E+04  0.10416070296E+04  0.12500127316E+03 0.  0.
         25    2    1    2    0    0 -0.99859404426E+01 -0.10057712900E+03 -0.12340985432E+04  0.12445240443E+04  0.12500161826E+03 0.  0.
          5    1    4    4  502    0  0.26959674191E+02 -0.24085213554E+02 -0.86416424151E+03  0.86493285742E+03  0.47000000000E+01 0. -1.
         -5    1    4    4    0  502 -0.36945614634E+02 -0.76491915449E+02 -0.36993430168E+03  0.37959118684E+03  0.47000000000E+01 0. -1.
          5    1    3    3  503    0 -0.44535118070E+02  0.54524167495E+01 -0.44323058230E+03  0.44552053227E+03  0.47000000000E+01 0.  1.
         -5    1    3    3    0  503  0.54521058513E+02  0.95124712253E+02 -0.58589740194E+03  0.59608649733E+03  0.47000000000E+01 0.  1.
<mgrwt>
<rscale>  0 0.16075093E+03</rscale>
<asrwt>0</asrwt>
<pdfrwt beam="1">  1        5 0.17618900E-02 0.16075100E+03</pdfrwt>
<pdfrwt beam="2">  1       -5 0.34995023E+00 0.16075100E+03</pdfrwt>
<totfact> 0.14001141E+01</totfact>
</mgrwt>
</event>
<event>
 8    1  0.1865596E-007  0.1299529E+03  0.7546771E-02  0.1227532E+00
         -5   -1    0    0    0  501 -0.00000000000E+00  0.00000000000E+00  0.76915832528E+03  0.76917268500E+03  0.47000000000E+01 0.  1.
          5   -1    0    0  501    0  0.00000000000E+00 -0.00000000000E+00 -0.22533090200E+02  0.23018039751E+02  0.47000000000E+01 0.  1.
         25    2    1    2    0    0 -0.25907509036E+02  0.24307978501E+02  0.44918765305E+03  0.46760350921E+03  0.12498566850E+03 0.  0.
         25    2    1    2    0    0  0.25907509036E+02 -0.24307978501E+02  0.29743758203E+03  0.32458721554E+03  0.12500267375E+03 0.  0.
          5    1    4    4  502    0  0.44391899046E+02  0.41194800826E+02  0.16015133753E+03  0.17128395497E+03  0.47000000000E+01 0. -1.
         -5    1    4    4    0  502 -0.18484390010E+02 -0.65502779327E+02  0.13728624450E+03  0.15330326057E+03  0.47000000000E+01 0. -1.
          5    1    3    3  503    0  0.28106811883E+02  0.55850517423E+02  0.28561350687E+03  0.29241483970E+03  0.47000000000E+01 0.  1.
         -5    1    3    3    0  503 -0.54014320919E+02 -0.31542538922E+02  0.16357414618E+03  0.17518866951E+03  0.47000000000E+01 0.  1.
<mgrwt>
<rscale>  0 0.12994877E+03</rscale>
<asrwt>0</asrwt>
<pdfrwt beam="2">  1        5 0.35050373E-02 0.12995286E+03</pdfrwt>
<pdfrwt beam="1">  1       -5 0.11837047E+00 0.12995286E+03</pdfrwt>
<totfact> 0.17361220E+02</totfact>
</mgrwt>
</event>
<event>
 8    1  0.1865596E-007  0.1257650E+03  0.7546771E-02  0.1233879E+00
          5   -1    0    0  501    0  0.00000000000E+00  0.00000000000E+00  0.35112090932E+03  0.35115236431E+03  0.47000000000E+01 0. -1.
         -5   -1    0    0    0  501 -0.00000000000E+00 -0.00000000000E+00 -0.58602830616E+02  0.58791000639E+02  0.47000000000E+01 0. -1.
         25    2    1    2    0    0 -0.28707512268E+01  0.13532719012E+02  0.47317937266E+02  0.13437135296E+03  0.12500119044E+03 0.  0.
         25    2    1    2    0    0  0.28707512268E+01 -0.13532719012E+02  0.24520014144E+03  0.27557201200E+03  0.12500179494E+03 0.  0.
          5    1    3    3  502    0  0.39265433030E+02  0.27666654412E+02 -0.21081098724E+02  0.52666124984E+02  0.47000000000E+01 0.  1.
         -5    1    3    3    0  502 -0.42136184257E+02 -0.14133935400E+02  0.68399035989E+02  0.81705227972E+02  0.47000000000E+01 0.  1.
          5    1    4    4  503    0  0.52070459265E+02  0.38675957224E+01  0.46488486652E+02  0.70068255408E+02  0.47000000000E+01 0. -1.
         -5    1    4    4    0  503 -0.49199708038E+02 -0.17400314735E+02  0.19871165479E+03  0.20550375659E+03  0.47000000000E+01 0. -1.
<mgrwt>
<rscale>  0 0.12576481E+03</rscale>
<asrwt>0</asrwt>
<pdfrwt beam="1">  1        5 0.54035495E-01 0.12576496E+03</pdfrwt>
<pdfrwt beam="2">  1       -5 0.90327144E-02 0.12576496E+03</pdfrwt>
<totfact> 0.21697405E+02</totfact>
</mgrwt>
</event>
<event>
 8    1  0.1865596E-007  0.1417594E+03  0.7546771E-02  0.1210995E+00
         -5   -1    0    0    0  501 -0.00000000000E+00  0.00000000000E+00  0.67086628362E+02  0.67251064713E+02  0.47000000000E+01 0.  1.
          5   -1    0    0  501    0  0.00000000000E+00 -0.00000000000E+00 -0.30366838301E+03  0.30370475274E+03  0.47000000000E+01 0.  1.
         25    2    1    2    0    0 -0.58547972117E+02 -0.32120195371E+02 -0.14148364807E+03  0.20025324483E+03  0.12499666956E+03 0.  0.
         25    2    1    2    0    0  0.58547972117E+02  0.32120195371E+02 -0.95098106571E+02  0.17070257263E+03  0.12504457780E+03 0.  0.
          5    1    3    3  502    0 -0.88574592126E+02  0.81222099173E+01 -0.72754700630E+02  0.11500767421E+03  0.47000000000E+01 0. -1.
         -5    1    3    3    0  502  0.30026620009E+02 -0.40242405288E+02 -0.68728947444E+02  0.85245570614E+02  0.47000000000E+01 0. -1.
          5    1    4    4  503    0  0.56229849986E+02 -0.36423878419E+02 -0.71313361754E+02  0.97960096535E+02  0.47000000000E+01 0.  1.
         -5    1    4    4    0  503  0.23181221312E+01  0.68544073790E+02 -0.23784744817E+02  0.72742476092E+02  0.47000000000E+01 0.  1.
<mgrwt>
<rscale>  0 0.14174880E+03</rscale>
<asrwt>0</asrwt>
<pdfrwt beam="2">  1        5 0.46733659E-01 0.14175937E+03</pdfrwt>
<pdfrwt beam="1">  1       -5 0.10336467E-01 0.14175937E+03</pdfrwt>
<totfact> 0.24336225E+02</totfact>
</mgrwt>
</event>
<event>
 8    1  0.1865596E-007  0.1274194E+03  0.7546771E-02  0.1231337E+00
          5   -1    0    0  501    0  0.00000000000E+00  0.00000000000E+00  0.71399686738E+02  0.71554212080E+02  0.47000000000E+01 0.  1.
         -5   -1    0    0    0  501 -0.00000000000E+00 -0.00000000000E+00 -0.25438959837E+03  0.25443301232E+03  0.47000000000E+01 0.  1.
         25    2    1    2    0    0 -0.27621134830E+01  0.24537790601E+02 -0.14499119250E+03  0.19302251714E+03  0.12500205511E+03 0.  0.
         25    2    1    2    0    0  0.27621134830E+01 -0.24537790601E+02 -0.37998719131E+02  0.13296470726E+03  0.12500391307E+03 0.  0.
          5    1    3    3  502    0 -0.22666118081E+02  0.67561261698E+02 -0.51351409689E+02  0.87962118370E+02  0.47000000000E+01 0.  1.
         -5    1    3    3    0  502  0.19904004598E+02 -0.43023471097E+02 -0.93639782815E+02  0.10506039877E+03  0.47000000000E+01 0.  1.
          5    1    4    4  503    0  0.56456679447E+02 -0.41353847040E+02 -0.28501069976E+02  0.75709301337E+02  0.47000000000E+01 0. -1.
         -5    1    4    4    0  503 -0.53694565964E+02  0.16816056440E+02 -0.94976491543E+01  0.57255405925E+02  0.47000000000E+01 0. -1.
<mgrwt>
<rscale>  0 0.12741897E+03</rscale>
<asrwt>0</asrwt>
<pdfrwt beam="1">  1        5 0.10999793E-01 0.12741943E+03</pdfrwt>
<pdfrwt beam="2">  1       -5 0.39152087E-01 0.12741943E+03</pdfrwt>
<totfact> 0.30308456E+02</totfact>
</mgrwt>
</event>
<event>
 8    1  0.1865596E-007  0.1395209E+03  0.7546771E-02  0.1213980E+00
         -5   -1    0    0    0  501 -0.00000000000E+00  0.00000000000E+00  0.61024592491E+03  0.61026402390E+03  0.47000000000E+01 0.  1.
          5   -1    0    0  501    0  0.00000000000E+00 -0.00000000000E+00 -0.31766041700E+02  0.32111857706E+02  0.47000000000E+01 0.  1.
         25    2    1    2    0    0 -0.59244295067E+02  0.18093609972E+02  0.30335000296E+03  0.33389163452E+03  0.12500053634E+03 0.  0.
         25    2    1    2    0    0  0.59244295067E+02 -0.18093609972E+02  0.27512988025E+03  0.30848424709E+03  0.12501525698E+03 0.  0.
          5    1    4    4  502    0 -0.10827332781E+02 -0.45214682217E+02  0.39721711513E+02  0.61331093164E+02  0.47000000000E+01 0. -1.
         -5    1    4    4    0  502  0.70071627848E+02  0.27121072245E+02  0.23540816874E+03  0.24715315393E+03  0.47000000000E+01 0. -1.
          5    1    3    3  503    0  0.33602723884E+02  0.14178344120E+02  0.15066837023E+03  0.15509099356E+03  0.47000000000E+01 0. -1.
         -5    1    3    3    0  503 -0.92847018950E+02  0.39152658521E+01  0.15268163273E+03  0.17880064096E+03  0.47000000000E+01 0. -1.
<mgrwt>
<rscale>  0 0.13951760E+03</rscale>
<asrwt>0</asrwt>
<pdfrwt beam="2">  1        5 0.49150768E-02 0.13952089E+03</pdfrwt>
<pdfrwt beam="1">  1       -5 0.93911981E-01 0.13952089E+03</pdfrwt>
<totfact> 0.18034313E+02</totfact>
</mgrwt>
</event>
<event>
 8    1  0.1865596E-007  0.1290411E+03  0.7546771E-02  0.1228887E+00
         -5   -1    0    0    0  501 -0.00000000000E+00  0.00000000000E+00  0.55322449928E+03  0.55324446369E+03  0.47000000000E+01 0.  1.
          5   -1    0    0  501    0  0.00000000000E+00 -0.00000000000E+00 -0.31253232350E+02  0.31604659978E+02  0.47000000000E+01 0.  1.
         25    2    1    2    0    0  0.17125626233E+02  0.27067683290E+02  0.32159466310E+03  0.34651801383E+03  0.12500264004E+03 0.  0.
         25    2    1    2    0    0 -0.17125626233E+02 -0.27067683290E+02  0.20037660383E+03  0.23833110984E+03  0.12499995202E+03 0.  0.
          5    1    4    4  502    0  0.15947653833E+02 -0.18396445543E+02 -0.88114354405E+01  0.26315171782E+02  0.47000000000E+01 0.  1.
         -5    1    4    4    0  502 -0.33073280066E+02 -0.86712377476E+01  0.20918803927E+03  0.21201593806E+03  0.47000000000E+01 0.  1.
          5    1    3    3  503    0 -0.36911030139E+02  0.58909283094E+01  0.25620767592E+03  0.25896252698E+03  0.47000000000E+01 0.  1.
         -5    1    3    3    0  503  0.54036656372E+02  0.21176754981E+02  0.65386987186E+02  0.87555486845E+02  0.47000000000E+01 0.  1.
<mgrwt>
<rscale>  0 0.12904045E+03</rscale>
<asrwt>0</asrwt>
<pdfrwt beam="2">  1        5 0.48367586E-02 0.12904110E+03</pdfrwt>
<pdfrwt beam="1">  1       -5 0.85140024E-01 0.12904110E+03</pdfrwt>
<totfact> 0.22751021E+02</totfact>
</mgrwt>
</event>
<event>
 8    1  0.1865596E-007  0.1522868E+03  0.7546771E-02  0.1197701E+00
         -5   -1    0    0    0  501 -0.00000000000E+00  0.00000000000E+00  0.16024325532E+04  0.16024394459E+04  0.47000000000E+01 0.  1.
          5   -1    0    0  501    0  0.00000000000E+00 -0.00000000000E+00 -0.15564812306E+02  0.16258947756E+02  0.47000000000E+01 0.  1.
         25    2    1    2    0    0 -0.17337954102E+02 -0.85214559526E+02  0.10375727379E+04  0.10486841204E+04  0.12497628621E+03 0.  0.
         25    2    1    2    0    0  0.17337954102E+02  0.85214559526E+02  0.54929500303E+03  0.57001427323E+03  0.12501658102E+03 0.  0.
          5    1    3    3  502    0  0.71405960728E+01  0.13309240622E+02  0.56887704301E+03  0.56909691974E+03  0.47000000000E+01 0. -1.
         -5    1    3    3    0  502 -0.24478550174E+02 -0.98523800148E+02  0.46869569489E+03  0.47958720065E+03  0.47000000000E+01 0. -1.
          5    1    4    4  503    0  0.32116249570E+02 -0.84465943604E+01  0.41197772681E+02  0.53123863908E+02  0.47000000000E+01 0.  1.
         -5    1    4    4    0  503 -0.14778295468E+02  0.93661153887E+02  0.50809723035E+03  0.51689040932E+03  0.47000000000E+01 0.  1.
<mgrwt>
<rscale>  0 0.15227854E+03</rscale>
<asrwt>0</asrwt>
<pdfrwt beam="2">  1        5 0.24485109E-02 0.15228681E+03</pdfrwt>
<pdfrwt beam="1">  1       -5 0.24658210E+00 0.15228681E+03</pdfrwt>
<totfact> 0.37549313E+01</totfact>
</mgrwt>
</event>
<event>
 8    1  0.1865596E-007  0.1673812E+03  0.7546771E-02  0.1180610E+00
          5   -1    0    0  501    0  0.00000000000E+00  0.00000000000E+00  0.31999601360E+02  0.32342920202E+02  0.47000000000E+01 0.  1.
         -5   -1    0    0    0  501 -0.00000000000E+00 -0.00000000000E+00 -0.90534367684E+03  0.90535587654E+03  0.47000000000E+01 0.  1.
         25    2    1    2    0    0  0.97321165878E+01 -0.11088292978E+03 -0.52869848555E+03  0.55455778610E+03  0.12499004476E+03 0.  0.
         25    2    1    2    0    0 -0.97321165878E+01  0.11088292978E+03 -0.34464558993E+03  0.38314101065E+03  0.12500685250E+03 0.  0.
          5    1    3    3  502    0 -0.38234668406E+02 -0.65200754089E+02 -0.13068002022E+03  0.15103769690E+03  0.47000000000E+01 0. -1.
         -5    1    3    3    0  502  0.47966784994E+02 -0.45682175694E+02 -0.39801846533E+03  0.40352008919E+03  0.47000000000E+01 0. -1.
          5    1    4    4  503    0 -0.48330183543E+02  0.59377326051E+01 -0.60857887866E+02  0.78082237579E+02  0.47000000000E+01 0. -1.
         -5    1    4    4    0  503  0.38598066955E+02  0.10494519718E+03 -0.28378770207E+03  0.30505877307E+03  0.47000000000E+01 0. -1.
<mgrwt>
<rscale>  0 0.16737802E+03</rscale>
<asrwt>0</asrwt>
<pdfrwt beam="1">  1        5 0.49503639E-02 0.16738116E+03</pdfrwt>
<pdfrwt beam="2">  1       -5 0.13931097E+00 0.16738116E+03</pdfrwt>
<totfact> 0.69600973E+01</totfact>
</mgrwt>
</event>
<event>
 8    1  0.1865596E-007  0.1274655E+03  0.7546771E-02  0.1231266E+00
          5   -1    0    0  501    0  0.00000000000E+00  0.00000000000E+00  0.24660501276E+03  0.24664979692E+03  0.47000000000E+01 0. -1.
         -5   -1    0    0    0  501 -0.00000000000E+00 -0.00000000000E+00 -0.67683501027E+02  0.67846490781E+02  0.47000000000E+01 0. -1.
         25    2    1    2    0    0  0.22250991353E+02 -0.11277281121E+02  0.62919471071E+02  0.14214804372E+03  0.12499969123E+03 0.  0.
         25    2    1    2    0    0 -0.22250991353E+02  0.11277281121E+02  0.11600204066E+03  0.17234824398E+03  0.12500064031E+03 0.  0.
          5    1    4    4  502    0 -0.36786731596E+02 -0.33113065319E+01  0.13735520395E+03  0.14231222866E+03  0.47000000000E+01 0. -1.
         -5    1    4    4    0  502  0.14535740243E+02  0.14588587653E+02 -0.21353163288E+02  0.30036015324E+02  0.47000000000E+01 0. -1.
          5    1    3    3  503    0 -0.40261144225E+02 -0.40877604232E+02  0.35264032962E+02  0.67509853227E+02  0.47000000000E+01 0. -1.
         -5    1    3    3    0  503  0.62512135578E+02  0.29600323111E+02  0.27655438110E+02  0.74638190491E+02  0.47000000000E+01 0. -1.
<mgrwt>
<rscale>  0 0.12746523E+03</rscale>
<asrwt>0</asrwt>
<pdfrwt beam="1">  1        5 0.37955216E-01 0.12746546E+03</pdfrwt>
<pdfrwt beam="2">  1       -5 0.10428829E-01 0.12746546E+03</pdfrwt>
<totfact> 0.35446137E+02</totfact>
</mgrwt>
</event>
<event>
 8    1  0.1865596E-007  0.1872715E+03  0.7546771E-02  0.1160947E+00
          5   -1    0    0  501    0  0.00000000000E+00  0.00000000000E+00  0.14334967201E+03  0.14342670067E+03  0.47000000000E+01 0. -1.
         -5   -1    0    0    0  501 -0.00000000000E+00 -0.00000000000E+00 -0.25153519532E+03  0.25157910185E+03  0.47000000000E+01 0. -1.
         25    2    1    2    0    0  0.11114691178E+03 -0.84193968342E+02 -0.87172653564E+02  0.20656639469E+03  0.12501337362E+03 0.  0.
         25    2    1    2    0    0 -0.11114691178E+03  0.84193968342E+02 -0.21012869746E+02  0.18843940783E+03  0.12500243768E+03 0.  0.
          5    1    4    4  502    0 -0.53077858770E+02  0.47640965087E+02  0.51804646529E+02  0.88276452398E+02  0.47000000000E+01 0.  1.
         -5    1    4    4    0  502 -0.58069053008E+02  0.36553003255E+02 -0.72817516276E+02  0.10016295543E+03  0.47000000000E+01 0.  1.
          5    1    3    3  503    0  0.84646248920E+02 -0.13751168078E+02 -0.98084665780E+02  0.13037167538E+03  0.47000000000E+01 0.  1.
         -5    1    3    3    0  503  0.26500662858E+02 -0.70442800264E+02  0.10912012216E+02  0.76194719315E+02  0.47000000000E+01 0.  1.
<mgrwt>
<rscale>  0 0.18726965E+03</rscale>
<asrwt>0</asrwt>
<pdfrwt beam="1">  1        5 0.22063098E-01 0.18727147E+03</pdfrwt>
<pdfrwt beam="2">  1       -5 0.38707025E-01 0.18727147E+03</pdfrwt>
<totfact> 0.98693890E+01</totfact>
</mgrwt>
</event>
<event>
 8    1  0.1865596E-007  0.1331843E+03  0.7546771E-02  0.1222807E+00
         -5   -1    0    0    0  501 -0.00000000000E+00  0.00000000000E+00  0.43283005649E+03  0.43285557384E+03  0.47000000000E+01 0. -1.
          5   -1    0    0  501    0  0.00000000000E+00 -0.00000000000E+00 -0.40859539881E+02  0.41128967885E+02  0.47000000000E+01 0. -1.
         25    2    1    2    0    0  0.24538341301E+02  0.38862604800E+02  0.20339542125E+03  0.24312087454E+03  0.12500251999E+03 0.  0.
         25    2    1    2    0    0 -0.24538341301E+02 -0.38862604800E+02  0.18857509537E+03  0.23086366719E+03  0.12500013596E+03 0.  0.
          5    1    3    3  502    0  0.11316845140E+02  0.34344215798E+02  0.21878911412E+03  0.22180703912E+03  0.47000000000E+01 0. -1.
         -5    1    3    3    0  502  0.13221496162E+02  0.45183890018E+01 -0.15393692876E+02  0.21313835419E+02  0.47000000000E+01 0. -1.
          5    1    4    4  503    0 -0.73822479267E+02 -0.11767081512E+02  0.12612910842E+03  0.14669309678E+03  0.47000000000E+01 0.  1.
         -5    1    4    4    0  503  0.49284137965E+02 -0.27095523287E+02  0.62445986941E+02  0.84170570405E+02  0.47000000000E+01 0.  1.
<mgrwt>
<rscale>  0 0.13318376E+03</rscale>
<asrwt>0</asrwt>
<pdfrwt beam="2">  1        5 0.63087715E-02 0.13318432E+03</pdfrwt>
<pdfrwt beam="1">  1       -5 0.66611924E-01 0.13318432E+03</pdfrwt>
<totfact> 0.25854641E+02</totfact>
</mgrwt>
</event>
<event>
 8    1  0.1865596E-007  0.1485105E+03  0.7546771E-02  0.1202320E+00
          5   -1    0    0  501    0  0.00000000000E+00  0.00000000000E+00  0.44665132764E+03  0.44667605541E+03  0.47000000000E+01 0. -1.
         -5   -1    0    0    0  501 -0.00000000000E+00 -0.00000000000E+00 -0.50038921047E+02  0.50259164533E+02  0.47000000000E+01 0. -1.
         25    2    1    2    0    0  0.37209664720E+02  0.71009090079E+02  0.16693267447E+03  0.22343208638E+03  0.12501411679E+03 0.  0.
         25    2    1    2    0    0 -0.37209664720E+02 -0.71009090079E+02  0.22967973212E+03  0.27350313356E+03  0.12499733877E+03 0.  0.
          5    1    3    3  502    0 -0.29444708156E+01  0.26205586050E+02 -0.15726996609E+02  0.31061730006E+02  0.47000000000E+01 0.  1.
         -5    1    3    3    0  502  0.40154135536E+02  0.44803504029E+02  0.18265967108E+03  0.19237035638E+03  0.47000000000E+01 0.  1.
          5    1    4    4  503    0 -0.37948521053E+02  0.11818696906E+02  0.13973903916E+02  0.42392591774E+02  0.47000000000E+01 0.  1.
         -5    1    4    4    0  503  0.73885633270E+00 -0.82827786985E+02  0.21570582820E+03  0.23111054179E+03  0.47000000000E+01 0.  1.
<mgrwt>
<rscale>  0 0.14850701E+03</rscale>
<asrwt>0</asrwt>
<pdfrwt beam="1">  1        5 0.68734434E-01 0.14851054E+03</pdfrwt>
<pdfrwt beam="2">  1       -5 0.77171394E-02 0.14851054E+03</pdfrwt>
<totfact> 0.17747095E+02</totfact>
</mgrwt>
</event>
<event>
 8    1  0.1865596E-007  0.1661617E+03  0.7546771E-02  0.1181912E+00
         -5   -1    0    0    0  501 -0.00000000000E+00  0.00000000000E+00  0.54908333204E+03  0.54910344702E+03  0.47000000000E+01 0. -1.
          5   -1    0    0  501    0  0.00000000000E+00 -0.00000000000E+00 -0.81609285605E+02  0.81744513559E+02  0.47000000000E+01 0. -1.
         25    2    1    2    0    0  0.10946791614E+03 -0.10083498144E+01  0.42933358144E+03  0.46036512502E+03  0.12499793098E+03 0.  0.
         25    2    1    2    0    0 -0.10946791614E+03  0.10083498144E+01  0.38140464993E+02  0.17048283555E+03  0.12500184285E+03 0.  0.
          5    1    3    3  502    0  0.11614278855E+03  0.26494013435E+01  0.20363861712E+03  0.23449294881E+03  0.47000000000E+01 0.  1.
         -5    1    3    3    0  502 -0.66748724126E+01 -0.36577511580E+01  0.22569496433E+03  0.22587217621E+03  0.47000000000E+01 0.  1.
          5    1    4    4  503    0  0.19881493785E+02 -0.21392824237E+02  0.24515647317E+02  0.38419183845E+02  0.47000000000E+01 0. -1.
         -5    1    4    4    0  503 -0.12934940992E+03  0.22401174051E+02  0.13624817676E+02  0.13206365171E+03  0.47000000000E+01 0. -1.
<mgrwt>
<rscale>  0 0.16616094E+03</rscale>
<asrwt>0</asrwt>
<pdfrwt beam="2">  1        5 0.12567224E-01 0.16616167E+03</pdfrwt>
<pdfrwt beam="1">  1       -5 0.84486309E-01 0.16616167E+03</pdfrwt>
<totfact> 0.48752504E+01</totfact>
</mgrwt>
</event>
<event>
 8    1  0.1865596E-007  0.1575591E+03  0.7546771E-02  0.1191481E+00
         -5   -1    0    0    0  501 -0.00000000000E+00  0.00000000000E+00  0.37801280509E+03  0.37804202255E+03  0.47000000000E+01 0.  1.
          5   -1    0    0  501    0  0.00000000000E+00 -0.00000000000E+00 -0.66873127845E+02  0.67038087889E+02  0.47000000000E+01 0.  1.
         25    2    1    2    0    0  0.94720398255E+02  0.15107547373E+02  0.12437679524E+03  0.20073356767E+03  0.12499674461E+03 0.  0.
         25    2    1    2    0    0 -0.94720398255E+02 -0.15107547373E+02  0.18676288200E+03  0.24434654276E+03  0.12499866813E+03 0.  0.
          5    1    3    3  502    0  0.91104713302E+02 -0.33014163551E+02  0.43245030060E+02  0.10621782527E+03  0.47000000000E+01 0. -1.
         -5    1    3    3    0  502  0.36156849528E+01  0.48121710924E+02  0.81131765180E+02  0.94515742398E+02  0.47000000000E+01 0. -1.
          5    1    4    4  503    0 -0.12228021085E+03 -0.62811517315E+01  0.17290080473E+03  0.21191668436E+03  0.47000000000E+01 0.  1.
         -5    1    4    4    0  503  0.27559812590E+02 -0.88263956414E+01  0.13862077271E+02  0.32429858407E+02  0.47000000000E+01 0.  1.
<mgrwt>
<rscale>  0 0.15755868E+03</rscale>
<asrwt>0</asrwt>
<pdfrwt beam="2">  1        5 0.10303110E-01 0.15755906E+03</pdfrwt>
<pdfrwt beam="1">  1       -5 0.58170752E-01 0.15755906E+03</pdfrwt>
<totfact> 0.15866417E+02</totfact>
</mgrwt>
</event>
<event>
 8    1  0.1865596E-007  0.1265769E+03  0.7546771E-02  0.1232625E+00
         -5   -1    0    0    0  501 -0.00000000000E+00  0.00000000000E+00  0.41444723503E+03  0.41447388412E+03  0.47000000000E+01 0. -1.
          5   -1    0    0  501    0  0.00000000000E+00 -0.00000000000E+00 -0.40135689514E+02  0.40409943984E+02  0.47000000000E+01 0. -1.
         25    2    1    2    0    0 -0.18520935829E+02  0.73296096865E+01  0.23307772822E+03  0.26522998662E+03  0.12499988068E+03 0.  0.
         25    2    1    2    0    0  0.18520935829E+02 -0.73296096865E+01  0.14123381729E+03  0.18965384149E+03  0.12499936080E+03 0.  0.
          5    1    4    4  502    0 -0.20966246288E+01  0.13102139617E+01  0.16000147571E+03  0.16008958343E+03  0.47000000000E+01 0. -1.
         -5    1    4    4    0  502  0.20617560458E+02 -0.86398236482E+01 -0.18767658412E+02  0.29564258052E+02  0.47000000000E+01 0. -1.
          5    1    3    3  503    0 -0.51161941612E+02  0.50336628613E+02  0.14393131182E+03  0.16090255738E+03  0.47000000000E+01 0.  1.
         -5    1    3    3    0  503  0.32641005783E+02 -0.43007018927E+02  0.89146416395E+02  0.10432742924E+03  0.47000000000E+01 0.  1.
<mgrwt>
<rscale>  0 0.12657680E+03</rscale>
<asrwt>0</asrwt>
<pdfrwt beam="2">  1        5 0.61978677E-02 0.12657693E+03</pdfrwt>
<pdfrwt beam="1">  1       -5 0.63784261E-01 0.12657693E+03</pdfrwt>
<totfact> 0.28800101E+02</totfact>
</mgrwt>
</event>
<event>
 8    1  0.1865596E-007  0.1670275E+03  0.7546771E-02  0.1180984E+00
          5   -1    0    0  501    0  0.00000000000E+00  0.00000000000E+00  0.16397651729E+03  0.16404386067E+03  0.47000000000E+01 0.  1.
         -5   -1    0    0    0  501 -0.00000000000E+00 -0.00000000000E+00 -0.18618663454E+03  0.18624594729E+03  0.47000000000E+01 0.  1.
         25    2    1    2    0    0  0.77488068253E+02  0.79176621691E+02 -0.62730088233E+02  0.17841756447E+03  0.12499770078E+03 0.  0.
         25    2    1    2    0    0 -0.77488068253E+02 -0.79176621691E+02  0.40519970984E+02  0.17187224348E+03  0.12499944755E+03 0.  0.
          5    1    3    3  502    0  0.22612411019E+02  0.50686427375E+02  0.32715637027E+02  0.64597507369E+02  0.47000000000E+01 0. -1.
         -5    1    3    3    0  502  0.54875657234E+02  0.28490194316E+02 -0.95445725260E+02  0.11382005711E+03  0.47000000000E+01 0. -1.
          5    1    4    4  503    0  0.91603606818E+00  0.30559220186E+02  0.15593787496E+02  0.34640457112E+02  0.47000000000E+01 0. -1.
         -5    1    4    4    0  503 -0.78404104322E+02 -0.10973584188E+03  0.24926183488E+02  0.13723178637E+03  0.47000000000E+01 0. -1.
<mgrwt>
<rscale>  0 0.16702722E+03</rscale>
<asrwt>0</asrwt>
<pdfrwt beam="1">  1        5 0.25236899E-01 0.16702754E+03</pdfrwt>
<pdfrwt beam="2">  1       -5 0.28653840E-01 0.16702754E+03</pdfrwt>
<totfact> 0.13470324E+02</totfact>
</mgrwt>
</event>
<event>
 8    1  0.1865596E-007  0.1338301E+03  0.7546771E-02  0.1221882E+00
         -5   -1    0    0    0  501 -0.00000000000E+00  0.00000000000E+00  0.14223690342E+03  0.14231453437E+03  0.47000000000E+01 0.  1.
          5   -1    0    0  501    0  0.00000000000E+00 -0.00000000000E+00 -0.22631592674E+03  0.22636472494E+03  0.47000000000E+01 0.  1.
         25    2    1    2    0    0 -0.47324443127E+02  0.67322236259E+01  0.80795586677E+02  0.15632790104E+03  0.12500224024E+03 0.  0.
         25    2    1    2    0    0  0.47324443127E+02 -0.67322236259E+01 -0.16487461000E+03  0.21235135827E+03  0.12499814632E+03 0.  0.
          5    1    3    3  502    0 -0.21724351610E+02 -0.56528328051E+02  0.17702306835E+02  0.63268167291E+02  0.47000000000E+01 0. -1.
         -5    1    3    3    0  502 -0.25600091516E+02  0.63260551677E+02  0.63093279842E+02  0.93059733748E+02  0.47000000000E+01 0. -1.
          5    1    4    4  503    0  0.51811842932E+02  0.51700801296E+02 -0.10799783676E+03  0.13054908145E+03  0.47000000000E+01 0. -1.
         -5    1    4    4    0  503 -0.44873998048E+01 -0.58433024922E+02 -0.56876773235E+02  0.81802276815E+02  0.47000000000E+01 0. -1.
<mgrwt>
<rscale>  0 0.13382911E+03</rscale>
<asrwt>0</asrwt>
<pdfrwt beam="2">  1        5 0.34827560E-01 0.13383006E+03</pdfrwt>
<pdfrwt beam="1">  1       -5 0.21892326E-01 0.13383006E+03</pdfrwt>
<totfact> 0.11185508E+02</totfact>
</mgrwt>
</event>
<event>
 8    1  0.1865596E-007  0.1689580E+03  0.7546771E-02  0.1178940E+00
         -5   -1    0    0    0  501 -0.00000000000E+00  0.00000000000E+00  0.11510112250E+03  0.11519704163E+03  0.47000000000E+01 0.  1.
          5   -1    0    0  501    0  0.00000000000E+00 -0.00000000000E+00 -0.25492386377E+03  0.25496718675E+03  0.47000000000E+01 0.  1.
         25    2    1    2    0    0 -0.74830146065E+02 -0.85563348197E+02 -0.38953612389E+02  0.17338670902E+03  0.12499971853E+03 0.  0.
         25    2    1    2    0    0  0.74830146065E+02  0.85563348197E+02 -0.10086912888E+03  0.19677751936E+03  0.12500469451E+03 0.  0.
          5    1    3    3  502    0  0.14500691184E+02 -0.60675190952E+02 -0.49720794731E+02  0.79912428761E+02  0.47000000000E+01 0. -1.
         -5    1    3    3    0  502 -0.89330837249E+02 -0.24888157245E+02  0.10767182342E+02  0.93474280260E+02  0.47000000000E+01 0. -1.
          5    1    4    4  503    0  0.26919192335E+02  0.80460397497E+02 -0.90212158386E-01  0.84974211498E+02  0.47000000000E+01 0. -1.
         -5    1    4    4    0  503  0.47910953730E+02  0.51029506997E+01 -0.10077891672E+03  0.11180330786E+03  0.47000000000E+01 0. -1.
<mgrwt>
<rscale>  0 0.16895710E+03</rscale>
<asrwt>0</asrwt>
<pdfrwt beam="2">  1        5 0.39229767E-01 0.16895802E+03</pdfrwt>
<pdfrwt beam="1">  1       -5 0.17718576E-01 0.16895802E+03</pdfrwt>
<totfact> 0.14046294E+02</totfact>
</mgrwt>
</event>
<event>
 8    1  0.1865596E-007  0.1338446E+03  0.7546771E-02  0.1221861E+00
         -5   -1    0    0    0  501 -0.00000000000E+00  0.00000000000E+00  0.79062285284E+03  0.79063682271E+03  0.47000000000E+01 0.  1.
          5   -1    0    0  501    0  0.00000000000E+00 -0.00000000000E+00 -0.24128955002E+02  0.24582442301E+02  0.47000000000E+01 0.  1.
         25    2    1    2    0    0 -0.43719090671E+02  0.19393018889E+02  0.49128559135E+03  0.50919142780E+03  0.12500771901E+03 0.  0.
         25    2    1    2    0    0  0.43719090671E+02 -0.19393018889E+02  0.27520830649E+03  0.30602783721E+03  0.12500390841E+03 0.  0.
          5    1    3    3  502    0  0.17890776137E+01  0.51402637379E+02  0.39111089469E+03  0.39450634199E+03  0.47000000000E+01 0.  1.
         -5    1    3    3    0  502 -0.45508168284E+02 -0.32009618490E+02  0.10017469666E+03  0.11468508581E+03  0.47000000000E+01 0.  1.
          5    1    4    4  503    0  0.31411997690E+02  0.46085383188E+02  0.18816131557E+03  0.19630931415E+03  0.47000000000E+01 0.  1.
         -5    1    4    4    0  503  0.12307092980E+02 -0.65478402077E+02  0.87046990915E+02  0.10971852306E+03  0.47000000000E+01 0.  1.
<mgrwt>
<rscale>  0 0.13384371E+03</rscale>
<asrwt>0</asrwt>
<pdfrwt beam="2">  1        5 0.37481046E-02 0.13384460E+03</pdfrwt>
<pdfrwt beam="1">  1       -5 0.12167026E+00 0.13384460E+03</pdfrwt>
<totfact> 0.14654793E+02</totfact>
</mgrwt>
</event>
<event>
 8    1  0.1865596E-007  0.1699430E+03  0.7546771E-02  0.1177908E+00
         -5   -1    0    0    0  501 -0.00000000000E+00  0.00000000000E+00  0.19016704195E+03  0.19022511360E+03  0.47000000000E+01 0.  1.
          5   -1    0    0  501    0  0.00000000000E+00 -0.00000000000E+00 -0.16619907766E+03  0.16626552082E+03  0.47000000000E+01 0.  1.
         25    2    1    2    0    0  0.25368655239E+01  0.11509755012E+03  0.64522191442E+02  0.18177585077E+03  0.12500186000E+03 0.  0.
         25    2    1    2    0    0 -0.25368655239E+01 -0.11509755012E+03 -0.40554227146E+02  0.17471478366E+03  0.12500691405E+03 0.  0.
          5    1    3    3  502    0 -0.46472380330E+02  0.51561714491E+01  0.45562453258E+01  0.47213532054E+02  0.47000000000E+01 0. -1.
         -5    1    3    3    0  502  0.49009245854E+02  0.10994137867E+03  0.59965946116E+02  0.13456231871E+03  0.47000000000E+01 0. -1.
          5    1    4    4  503    0  0.29765625686E+02 -0.27487169940E+02 -0.66209664418E+02  0.77764687655E+02  0.47000000000E+01 0.  1.
         -5    1    4    4    0  503 -0.32302491210E+02 -0.87610380180E+02  0.25655437271E+02  0.96950096004E+02  0.47000000000E+01 0.  1.
<mgrwt>
<rscale>  0 0.16994203E+03</rscale>
<asrwt>0</asrwt>
<pdfrwt beam="2">  1        5 0.25578667E-01 0.16994296E+03</pdfrwt>
<pdfrwt beam="1">  1       -5 0.29266046E-01 0.16994296E+03</pdfrwt>
<totfact> 0.12658136E+02</totfact>
</mgrwt>
</event>
<event>
 8    1  0.1865596E-007  0.1330710E+03  0.7546771E-02  0.1222973E+00
          5   -1    0    0  501    0  0.00000000000E+00  0.00000000000E+00  0.65244399483E+03  0.65246092327E+03  0.47000000000E+01 0.  1.
         -5   -1    0    0    0  501 -0.00000000000E+00 -0.00000000000E+00 -0.30544232541E+02  0.30903723748E+02  0.47000000000E+01 0.  1.
         25    2    1    2    0    0 -0.11139048029E+02  0.44224833719E+02  0.19396924620E+03  0.23522133666E+03  0.12500037775E+03 0.  0.
         25    2    1    2    0    0  0.11139048029E+02 -0.44224833719E+02  0.42793051609E+03  0.44814331036E+03  0.12501194228E+03 0.  0.
          5    1    3    3  502    0  0.45665787591E+02  0.47692588467E+01  0.24790320841E+02  0.52390457086E+02  0.47000000000E+01 0. -1.
         -5    1    3    3    0  502 -0.56804835620E+02  0.39455574872E+02  0.16917892536E+03  0.18283087957E+03  0.47000000000E+01 0. -1.
          5    1    4    4  503    0  0.21558429774E+02 -0.68472815915E+02  0.40911538370E+03  0.41539232010E+03  0.47000000000E+01 0.  1.
         -5    1    4    4    0  503 -0.10419381745E+02  0.24247982196E+02  0.18815132388E+02  0.32750990265E+02  0.47000000000E+01 0.  1.
<mgrwt>
<rscale>  0 0.13306832E+03</rscale>
<asrwt>0</asrwt>
<pdfrwt beam="1">  1        5 0.10040496E+00 0.13307103E+03</pdfrwt>
<pdfrwt beam="2">  1       -5 0.47280678E-02 0.13307103E+03</pdfrwt>
<totfact> 0.16114645E+02</totfact>
</mgrwt>
</event>
<event>
 8    1  0.1865596E-007  0.1321960E+03  0.7546771E-02  0.1224234E+00
          5   -1    0    0  501    0  0.00000000000E+00  0.00000000000E+00  0.90676627904E+02  0.90798352673E+02  0.47000000000E+01 0.  1.
         -5   -1    0    0    0  501 -0.00000000000E+00 -0.00000000000E+00 -0.20455149304E+03  0.20460548210E+03  0.47000000000E+01 0.  1.
         25    2    1    2    0    0 -0.93787566905E+01 -0.41995140486E+02 -0.92855027964E+02  0.16154823206E+03  0.12499688861E+03 0.  0.
         25    2    1    2    0    0  0.93787566905E+01  0.41995140486E+02 -0.21019837170E+02  0.13385560271E+03  0.12499574361E+03 0.  0.
          5    1    4    4  502    0  0.39867839898E+02  0.17244668352E+02 -0.62684301386E+02  0.76408343032E+02  0.47000000000E+01 0.  1.
         -5    1    4    4    0  502 -0.30489083207E+02  0.24750472134E+02  0.41664464216E+02  0.57447259674E+02  0.47000000000E+01 0.  1.
          5    1    3    3  503    0  0.44307952732E+02 -0.43988467611E+02 -0.11069663001E+02  0.63583074769E+02  0.47000000000E+01 0.  1.
         -5    1    3    3    0  503 -0.53686709423E+02  0.19933271245E+01 -0.81785364963E+02  0.97965157295E+02  0.47000000000E+01 0.  1.
<mgrwt>
<rscale>  0 0.13219570E+03</rscale>
<asrwt>0</asrwt>
<pdfrwt beam="1">  1        5 0.13963767E-01 0.13219597E+03</pdfrwt>
<pdfrwt beam="2">  1       -5 0.31482977E-01 0.13219597E+03</pdfrwt>
<totfact> 0.31122544E+02</totfact>
</mgrwt>
</event>
<event>
 8    1  0.1865596E-007  0.1367232E+03  0.7546771E-02  0.1217808E+00
         -5   -1    0    0    0  501 -0.00000000000E+00  0.00000000000E+00  0.17213239166E+02  0.17843362984E+02  0.47000000000E+01 0. -1.
          5   -1    0    0  501    0  0.00000000000E+00 -0.00000000000E+00 -0.12360070997E+04  0.12360160357E+04  0.47000000000E+01 0. -1.
         25    2    1    2    0    0  0.41198877947E+01  0.55240070364E+02 -0.37682215158E+03  0.40085904452E+03  0.12499840321E+03 0.  0.
         25    2    1    2    0    0 -0.41198877947E+01 -0.55240070364E+02 -0.84197170898E+03  0.85300035419E+03  0.12499922670E+03 0.  0.
          5    1    4    4  502    0 -0.75584307272E+01 -0.95425145206E+02 -0.61562606698E+03  0.62304143727E+03  0.47000000000E+01 0. -1.
         -5    1    4    4    0  502  0.34385429326E+01  0.40185074842E+02 -0.22634564200E+03  0.22995891692E+03  0.47000000000E+01 0. -1.
          5    1    3    3  503    0  0.78934686760E+01 -0.40096168049E+02 -0.10800798520E+03  0.11557605464E+03  0.47000000000E+01 0. -1.
         -5    1    3    3    0  503 -0.37735808814E+01  0.95336238413E+02 -0.26881416638E+03  0.28528298988E+03  0.47000000000E+01 0. -1.
<mgrwt>
<rscale>  0 0.13672306E+03</rscale>
<asrwt>0</asrwt>
<pdfrwt beam="2">  1        5 0.19020403E+00 0.13672324E+03</pdfrwt>
<pdfrwt beam="1">  1       -5 0.26973501E-02 0.13672324E+03</pdfrwt>
<totfact> 0.73287523E+01</totfact>
</mgrwt>
</event>
<event>
 8    1  0.1865596E-007  0.1419866E+03  0.7546771E-02  0.1210681E+00
         -5   -1    0    0    0  501 -0.00000000000E+00  0.00000000000E+00  0.41755001457E+02  0.42018688065E+02  0.47000000000E+01 0. -1.
          5   -1    0    0  501    0  0.00000000000E+00 -0.00000000000E+00 -0.53270651857E+03  0.53272725191E+03  0.47000000000E+01 0. -1.
         25    2    1    2    0    0  0.63042011110E+02  0.23685174613E+02 -0.15598663330E+03  0.21093051621E+03  0.12499828094E+03 0.  0.
         25    2    1    2    0    0 -0.63042011110E+02 -0.23685174613E+02 -0.33496488381E+03  0.36381542376E+03  0.12499962608E+03 0.  0.
          5    1    3    3  502    0  0.75207828638E+02  0.13825878966E+02 -0.17184762235E+03  0.18815171465E+03  0.47000000000E+01 0.  1.
         -5    1    3    3    0  502 -0.12165817528E+02  0.98592956471E+01  0.15860989052E+02  0.22778801559E+02  0.47000000000E+01 0.  1.
          5    1    4    4  503    0 -0.10233413492E+02  0.21695125265E+02 -0.26093484350E+03  0.26207724771E+03  0.47000000000E+01 0.  1.
         -5    1    4    4    0  503 -0.52808597618E+02 -0.45380299878E+02 -0.74030040308E+02  0.10173817606E+03  0.47000000000E+01 0.  1.
<mgrwt>
<rscale>  0 0.14198628E+03</rscale>
<asrwt>0</asrwt>
<pdfrwt beam="2">  1        5 0.81976722E-01 0.14198658E+03</pdfrwt>
<pdfrwt beam="1">  1       -5 0.64457252E-02 0.14198658E+03</pdfrwt>
<totfact> 0.15877436E+02</totfact>
</mgrwt>
</event>
<event>
 8    1  0.1865596E-007  0.1369298E+03  0.7546771E-02  0.1217522E+00
          5   -1    0    0  501    0  0.00000000000E+00  0.00000000000E+00  0.81332065393E+02  0.81467753505E+02  0.47000000000E+01 0. -1.
         -5   -1    0    0    0  501 -0.00000000000E+00 -0.00000000000E+00 -0.30814631234E+03  0.30818215362E+03  0.47000000000E+01 0. -1.
         25    2    1    2    0    0  0.45429112009E+02 -0.32561468132E+02 -0.21137913032E+03  0.25185291155E+03  0.12499879559E+03 0.  0.
         25    2    1    2    0    0 -0.45429112009E+02  0.32561468132E+02 -0.15435116632E+02  0.13779699557E+03  0.12500286292E+03 0.  0.
          5    1    4    4  502    0 -0.56776042560E+02  0.22725959413E+02  0.44533923391E+02  0.75798077632E+02  0.47000000000E+01 0.  1.
         -5    1    4    4    0  502  0.11346930551E+02  0.98355087191E+01 -0.59969040023E+02  0.61998917942E+02  0.47000000000E+01 0.  1.
          5    1    3    3  503    0 -0.22173679822E+02  0.34648188041E+02 -0.67943898815E+02  0.79565271303E+02  0.47000000000E+01 0.  1.
         -5    1    3    3    0  503  0.67602791831E+02 -0.67209656173E+02 -0.14343523150E+03  0.17228764025E+03  0.47000000000E+01 0.  1.
<mgrwt>
<rscale>  0 0.13692887E+03</rscale>
<asrwt>0</asrwt>
<pdfrwt beam="1">  1        5 0.12525820E-01 0.13692980E+03</pdfrwt>
<pdfrwt beam="2">  1       -5 0.47420319E-01 0.13692980E+03</pdfrwt>
<totfact> 0.16622690E+02</totfact>
</mgrwt>
</event>
<event>
 8    1  0.1865596E-007  0.1305556E+03  0.7546771E-02  0.1226635E+00
         -5   -1    0    0    0  501 -0.00000000000E+00  0.00000000000E+00  0.12116829841E+03  0.12125941836E+03  0.47000000000E+01 0.  1.
          5   -1    0    0  501    0  0.00000000000E+00 -0.00000000000E+00 -0.18453613742E+03  0.18459598049E+03  0.47000000000E+01 0.  1.
         25    2    1    2    0    0  0.34144533999E+02  0.15924184504E+02  0.43003097980E+02  0.13745249155E+03  0.12499796855E+03 0.  0.
         25    2    1    2    0    0 -0.34144533999E+02 -0.15924184504E+02 -0.10637093698E+03  0.16840290730E+03  0.12500133639E+03 0.  0.
          5    1    3    3  502    0 -0.98431367930E+01  0.27529193483E+02  0.75664518542E+02  0.81252404284E+02  0.47000000000E+01 0.  1.
         -5    1    3    3    0  502  0.43987670792E+02 -0.11605008979E+02 -0.32661420562E+02  0.56200087262E+02  0.47000000000E+01 0.  1.
          5    1    4    4  503    0 -0.12390646972E+02 -0.60425788778E+02 -0.10088968791E+03  0.11834535567E+03  0.47000000000E+01 0.  1.
         -5    1    4    4    0  503 -0.21753887027E+02  0.44501604275E+02 -0.54812490680E+01  0.50057551630E+02  0.47000000000E+01 0.  1.
<mgrwt>
<rscale>  0 0.13055479E+03</rscale>
<asrwt>0</asrwt>
<pdfrwt beam="2">  1        5 0.28401788E-01 0.13055559E+03</pdfrwt>
<pdfrwt beam="1">  1       -5 0.18652889E-01 0.13055559E+03</pdfrwt>
<totfact> 0.22368474E+02</totfact>
</mgrwt>
</event>
<event>
 8    1  0.1865596E-007  0.1317160E+03  0.7546771E-02  0.1224932E+00
          5   -1    0    0  501    0  0.00000000000E+00  0.00000000000E+00  0.57049473137E+02  0.57242749630E+02  0.47000000000E+01 0. -1.
         -5   -1    0    0    0  501 -0.00000000000E+00 -0.00000000000E+00 -0.47626914608E+03  0.47629233619E+03  0.47000000000E+01 0. -1.
         25    2    1    2    0    0  0.31618564661E+02  0.26912973463E+02 -0.37030244198E+03  0.39303053330E+03  0.12500023922E+03 0.  0.
         25    2    1    2    0    0 -0.31618564661E+02 -0.26912973463E+02 -0.48917230970E+02  0.14050455251E+03  0.12499836807E+03 0.  0.
          5    1    3    3  502    0  0.73940403795E+02 -0.10725340632E+02 -0.20692380453E+03  0.22004946518E+03  0.47000000000E+01 0.  1.
         -5    1    3    3    0  502 -0.42321839134E+02  0.37638314095E+02 -0.16337863744E+03  0.17298106812E+03  0.47000000000E+01 0.  1.
          5    1    4    4  503    0  0.16560111579E+02 -0.46658604188E+02 -0.68523881869E+02  0.84669209437E+02  0.47000000000E+01 0. -1.
         -5    1    4    4    0  503 -0.48178676239E+02  0.19745630725E+02  0.19606650899E+02  0.55835343076E+02  0.47000000000E+01 0. -1.
<mgrwt>
<rscale>  0 0.13171554E+03</rscale>
<asrwt>0</asrwt>
<pdfrwt beam="1">  1        5 0.87934936E-02 0.13171599E+03</pdfrwt>
<pdfrwt beam="2">  1       -5 0.73288825E-01 0.13171599E+03</pdfrwt>
<totfact> 0.11794431E+02</totfact>
</mgrwt>
</event>
<event>
 8    1  0.1865596E-007  0.1411677E+03  0.7546771E-02  0.1211767E+00
         -5   -1    0    0    0  501 -0.00000000000E+00  0.00000000000E+00  0.52333120179E+03  0.52335230654E+03  0.47000000000E+01 0. -1.
          5   -1    0    0  501    0  0.00000000000E+00 -0.00000000000E+00 -0.39973481019E+02  0.40248840788E+02  0.47000000000E+01 0. -1.
         25    2    1    2    0    0 -0.52196489724E+02  0.39737683783E+02  0.30542714759E+03  0.33647296503E+03  0.12499902663E+03 0.  0.
         25    2    1    2    0    0  0.52196489724E+02 -0.39737683783E+02  0.17793057318E+03  0.22712818230E+03  0.12499746106E+03 0.  0.
          5    1    3    3  502    0 -0.89388673387E+02  0.47187895667E+02  0.24367186490E+03  0.26384673614E+03  0.47000000000E+01 0. -1.
         -5    1    3    3    0  502  0.37192183663E+02 -0.74502118834E+01  0.61755282690E+02  0.72626228891E+02  0.47000000000E+01 0. -1.
          5    1    4    4  503    0  0.59602810672E+01 -0.36740711713E+02  0.17659701329E+03  0.18053808448E+03  0.47000000000E+01 0.  1.
         -5    1    4    4    0  503  0.46236208657E+02 -0.29969720705E+01  0.13335598906E+01  0.46590097816E+02  0.47000000000E+01 0.  1.
<mgrwt>
<rscale>  0 0.14116733E+03</rscale>
<asrwt>0</asrwt>
<pdfrwt beam="2">  1        5 0.61725716E-02 0.14116768E+03</pdfrwt>
<pdfrwt beam="1">  1       -5 0.80535294E-01 0.14116768E+03</pdfrwt>
<totfact> 0.17765573E+02</totfact>
</mgrwt>
</event>
<event>
 8    1  0.1865596E-007  0.1362839E+03  0.7546771E-02  0.1218421E+00
          5   -1    0    0  501    0  0.00000000000E+00  0.00000000000E+00  0.70733532635E+02  0.70889510077E+02  0.47000000000E+01 0.  1.
         -5   -1    0    0    0  501 -0.00000000000E+00 -0.00000000000E+00 -0.26541850899E+03  0.26546011926E+03  0.47000000000E+01 0.  1.
         25    2    1    2    0    0  0.12352259010E+02  0.52860379131E+02 -0.11612746899E+03  0.17904555231E+03  0.12499969105E+03 0.  0.
         25    2    1    2    0    0 -0.12352259010E+02 -0.52860379131E+02 -0.78557507364E+02  0.15730407702E+03  0.12500597066E+03 0.  0.
          5    1    3    3  502    0 -0.18886005137E+02  0.42620945278E+02  0.10600929523E+02  0.48038483252E+02  0.47000000000E+01 0. -1.
         -5    1    3    3    0  502  0.31238264148E+02  0.10239433853E+02 -0.12672839852E+03  0.13100706906E+03  0.47000000000E+01 0. -1.
          5    1    4    4  503    0 -0.29466494652E+02 -0.61100804818E+02 -0.10458192724E+03  0.12474394639E+03  0.47000000000E+01 0. -1.
         -5    1    4    4    0  503  0.17114235641E+02  0.82404256872E+01  0.26024419874E+02  0.32560130633E+02  0.47000000000E+01 0. -1.
<mgrwt>
<rscale>  0 0.13628242E+03</rscale>
<asrwt>0</asrwt>
<pdfrwt beam="1">  1        5 0.10897281E-01 0.13628386E+03</pdfrwt>
<pdfrwt beam="2">  1       -5 0.40848815E-01 0.13628386E+03</pdfrwt>
<totfact> 0.28935797E+02</totfact>
</mgrwt>
</event>
<event>
 8    1  0.1865596E-007  0.1380301E+03  0.7546771E-02  0.1216006E+00
          5   -1    0    0  501    0  0.00000000000E+00  0.00000000000E+00  0.21813444708E+02  0.22314039751E+02  0.47000000000E+01 0. -1.
         -5   -1    0    0    0  501 -0.00000000000E+00 -0.00000000000E+00 -0.86932365171E+03  0.86933635690E+03  0.47000000000E+01 0. -1.
         25    2    1    2    0    0 -0.56432725350E+02  0.15557859808E+02 -0.38565683641E+03  0.40961218557E+03  0.12499699039E+03 0.  0.
         25    2    1    2    0    0  0.56432725350E+02 -0.15557859808E+02 -0.46185337060E+03  0.48203821108E+03  0.12500240604E+03 0.  0.
          5    1    4    4  502    0 -0.20087748202E+00 -0.63496111744E+02 -0.20982257602E+03  0.21927015293E+03  0.47000000000E+01 0.  1.
         -5    1    4    4    0  502  0.56633602832E+02  0.47938251936E+02 -0.25203079458E+03  0.26276805815E+03  0.47000000000E+01 0.  1.
          5    1    3    3  503    0 -0.16516887635E+02 -0.23642045488E+02 -0.32741569714E+03  0.32871702515E+03  0.47000000000E+01 0. -1.
         -5    1    3    3    0  503 -0.39915837715E+02  0.39199905296E+02 -0.58241139268E+02  0.80895160417E+02  0.47000000000E+01 0. -1.
<mgrwt>
<rscale>  0 0.13802885E+03</rscale>
<asrwt>0</asrwt>
<pdfrwt beam="1">  1        5 0.33953999E-02 0.13803007E+03</pdfrwt>
<pdfrwt beam="2">  1       -5 0.13378156E+00 0.13803007E+03</pdfrwt>
<totfact> 0.13596750E+02</totfact>
</mgrwt>
</event>
<event>
 8    1  0.1865596E-007  0.1488655E+03  0.7546771E-02  0.1201879E+00
         -5   -1    0    0    0  501 -0.00000000000E+00  0.00000000000E+00  0.10640384865E+03  0.10650760070E+03  0.47000000000E+01 0.  1.
          5   -1    0    0  501    0  0.00000000000E+00 -0.00000000000E+00 -0.21431036469E+03  0.21436189590E+03  0.47000000000E+01 0.  1.
         25    2    1    2    0    0 -0.77845590732E+02 -0.21796977819E+02 -0.26473688295E+02  0.15118672717E+03  0.12498610348E+03 0.  0.
         25    2    1    2    0    0  0.77845590732E+02  0.21796977819E+02 -0.81432827749E+02  0.16968276943E+03  0.12500357022E+03 0.  0.
          5    1    4    4  502    0 -0.32846510436E+02  0.17711818940E+02 -0.15417147854E+02  0.40649480021E+02  0.47000000000E+01 0.  1.
         -5    1    4    4    0  502  0.11069210117E+03  0.40851588785E+01 -0.66015679894E+02  0.12903328941E+03  0.47000000000E+01 0.  1.
          5    1    3    3  503    0 -0.53506160089E+02  0.43771608935E+02  0.13354337684E+02  0.70564093215E+02  0.47000000000E+01 0.  1.
         -5    1    3    3    0  503 -0.24339430643E+02 -0.65568586754E+02 -0.39828025980E+02  0.80622633958E+02  0.47000000000E+01 0.  1.
<mgrwt>
<rscale>  0 0.14886183E+03</rscale>
<asrwt>0</asrwt>
<pdfrwt beam="2">  1        5 0.32982770E-01 0.14886550E+03</pdfrwt>
<pdfrwt beam="1">  1       -5 0.16381768E-01 0.14886550E+03</pdfrwt>
<totfact> 0.22120315E+02</totfact>
</mgrwt>
</event>
<event>
 8    1  0.1865596E-007  0.1292107E+03  0.7546771E-02  0.1228634E+00
          5   -1    0    0  501    0  0.00000000000E+00  0.00000000000E+00  0.36722727624E+03  0.36725735175E+03  0.47000000000E+01 0. -1.
         -5   -1    0    0    0  501 -0.00000000000E+00 -0.00000000000E+00 -0.53210343315E+02  0.53417512444E+02  0.47000000000E+01 0. -1.
         25    2    1    2    0    0 -0.22287811493E+02 -0.23951619211E+02  0.76145234080E+02  0.14997831125E+03  0.12499988227E+03 0.  0.
         25    2    1    2    0    0  0.22287811493E+02  0.23951619211E+02  0.23787169885E+03  0.27069655295E+03  0.12499300805E+03 0.  0.
          5    1    4    4  502    0  0.22532221119E+02  0.43103340610E+02  0.24492494342E+03  0.24975171044E+03  0.47000000000E+01 0. -1.
         -5    1    4    4    0  502 -0.24440962577E+00 -0.19151721398E+02 -0.70532445720E+01  0.20944842505E+02  0.47000000000E+01 0. -1.
          5    1    3    3  503    0 -0.39547237747E+02 -0.36382048698E+02 -0.15223456902E+02  0.56048917215E+02  0.47000000000E+01 0.  1.
         -5    1    3    3    0  503  0.17259426254E+02  0.12430429486E+02  0.91368690982E+02  0.93929394034E+02  0.47000000000E+01 0.  1.
<mgrwt>
<rscale>  0 0.12920901E+03</rscale>
<asrwt>0</asrwt>
<pdfrwt beam="1">  1        5 0.56514754E-01 0.12921067E+03</pdfrwt>
<pdfrwt beam="2">  1       -5 0.82044562E-02 0.12921067E+03</pdfrwt>
<totfact> 0.23474465E+02</totfact>
</mgrwt>
</event>
<event>
 8    1  0.1865596E-007  0.1370983E+03  0.7546771E-02  0.1217288E+00
         -5   -1    0    0    0  501 -0.00000000000E+00  0.00000000000E+00  0.11452879636E+03  0.11462519442E+03  0.47000000000E+01 0. -1.
          5   -1    0    0  501    0  0.00000000000E+00 -0.00000000000E+00 -0.16440809126E+03  0.16447525793E+03  0.47000000000E+01 0. -1.
         25    2    1    2    0    0  0.47103782854E+02 -0.30855943420E+02 -0.17290660051E+02  0.13818435932E+03  0.12500037852E+03 0.  0.
         25    2    1    2    0    0 -0.47103782854E+02  0.30855943420E+02 -0.32588634849E+02  0.14091609303E+03  0.12499788218E+03 0.  0.
          5    1    3    3  502    0  0.54785542510E+02 -0.46848747808E+02 -0.58576254977E+02  0.93002841281E+02  0.47000000000E+01 0. -1.
         -5    1    3    3    0  502 -0.76817596561E+01  0.15992804388E+02  0.41285594925E+02  0.45181518035E+02  0.47000000000E+01 0. -1.
          5    1    4    4  503    0 -0.80092245367E+02  0.38099145482E+02  0.64876436276E+01  0.89053310855E+02  0.47000000000E+01 0.  1.
         -5    1    4    4    0  503  0.32988462513E+02 -0.72432020619E+01 -0.39076278476E+02  0.51862782172E+02  0.47000000000E+01 0.  1.
<mgrwt>
<rscale>  0 0.13709775E+03</rscale>
<asrwt>0</asrwt>
<pdfrwt beam="2">  1        5 0.25306134E-01 0.13709832E+03</pdfrwt>
<pdfrwt beam="1">  1       -5 0.17632397E-01 0.13709832E+03</pdfrwt>
<totfact> 0.31545726E+02</totfact>
</mgrwt>
</event>
<event>
 8    1  0.1865596E-007  0.1699527E+03  0.7546771E-02  0.1177899E+00
         -5   -1    0    0    0  501 -0.00000000000E+00  0.00000000000E+00  0.75275173328E+03  0.75276640596E+03  0.47000000000E+01 0.  1.
          5   -1    0    0  501    0  0.00000000000E+00 -0.00000000000E+00 -0.38211030935E+02  0.38498998495E+02  0.47000000000E+01 0.  1.
         25    2    1    2    0    0 -0.89330950477E+02 -0.72639133443E+02  0.35838362347E+03  0.39663674247E+03  0.12500168592E+03 0.  0.
         25    2    1    2    0    0  0.89330950477E+02  0.72639133443E+02  0.35615707887E+03  0.39462866199E+03  0.12500981408E+03 0.  0.
          5    1    3    3  502    0  0.18977260971E+02 -0.19620739216E+02  0.17453068622E+03  0.17671491242E+03  0.47000000000E+01 0. -1.
         -5    1    3    3    0  502 -0.10830821145E+03 -0.53018394228E+02  0.18385293726E+03  0.21992183005E+03  0.47000000000E+01 0. -1.
          5    1    4    4  503    0  0.97159688848E+02  0.40500435093E+02  0.34283189511E+03  0.35865873568E+03  0.47000000000E+01 0.  1.
         -5    1    4    4    0  503 -0.78287383714E+01  0.32138698350E+02  0.13325183759E+02  0.35969926304E+02  0.47000000000E+01 0.  1.
<mgrwt>
<rscale>  0 0.16995119E+03</rscale>
<asrwt>0</asrwt>
<pdfrwt beam="2">  1        5 0.59019004E-02 0.16995269E+03</pdfrwt>
<pdfrwt beam="1">  1       -5 0.11583123E+00 0.16995269E+03</pdfrwt>
<totfact> 0.84164511E+01</totfact>
</mgrwt>
</event>
<event>
 8    1  0.1865596E-007  0.1460738E+03  0.7546771E-02  0.1205384E+00
          5   -1    0    0  501    0  0.00000000000E+00  0.00000000000E+00  0.97870270077E+01  0.10857066715E+02  0.47000000000E+01 0.  1.
         -5   -1    0    0    0  501 -0.00000000000E+00 -0.00000000000E+00 -0.21039126394E+04  0.21039178891E+04  0.47000000000E+01 0.  1.
         25    2    1    2    0    0 -0.73648707587E+02  0.17044299116E+02 -0.11889087526E+04  0.11978479532E+04  0.12498422595E+03 0.  0.
         25    2    1    2    0    0  0.73648707587E+02 -0.17044299116E+02 -0.90521685974E+03  0.91692700259E+03  0.12499169836E+03 0.  0.
          5    1    4    4  502    0  0.22696572149E+02  0.32144638828E+02 -0.86576614440E+02  0.95215609858E+02  0.47000000000E+01 0. -1.
         -5    1    4    4    0  502  0.50952135438E+02 -0.49188937944E+02 -0.81864024530E+03  0.82171139273E+03  0.47000000000E+01 0. -1.
          5    1    3    3  503    0 -0.25108519548E+02  0.18113914970E+02 -0.10527448546E+04  0.10532105063E+04  0.47000000000E+01 0.  1.
         -5    1    3    3    0  503 -0.48540188039E+02 -0.10696158540E+01 -0.13616389800E+03  0.14463744692E+03  0.47000000000E+01 0.  1.
<mgrwt>
<rscale>  0 0.14607224E+03</rscale>
<asrwt>0</asrwt>
<pdfrwt beam="1">  1        5 0.15884127E-02 0.14607383E+03</pdfrwt>
<pdfrwt beam="2">  1       -5 0.32376124E+00 0.14607383E+03</pdfrwt>
<totfact> 0.23932553E+01</totfact>
</mgrwt>
</event>
<event>
 8    1  0.1865596E-007  0.1283568E+03  0.7546771E-02  0.1229921E+00
         -5   -1    0    0    0  501 -0.00000000000E+00  0.00000000000E+00  0.24385652639E+03  0.24390181521E+03  0.47000000000E+01 0. -1.
          5   -1    0    0  501    0  0.00000000000E+00 -0.00000000000E+00 -0.71866255931E+02  0.72019780210E+02  0.47000000000E+01 0. -1.
         25    2    1    2    0    0  0.10459163165E+01 -0.29095319745E+02  0.12522652303E+03  0.17931155258E+03  0.12499327681E+03 0.  0.
         25    2    1    2    0    0 -0.10459163165E+01  0.29095319745E+02  0.46763747423E+02  0.13661004283E+03  0.12501129612E+03 0.  0.
          5    1    3    3  502    0  0.59628537128E+02 -0.44780240459E+01  0.84735398764E+02  0.10381614972E+03  0.47000000000E+01 0. -1.
         -5    1    3    3    0  502 -0.58582620811E+02 -0.24617295699E+02  0.40491124268E+02  0.75495402861E+02  0.47000000000E+01 0. -1.
          5    1    4    4  503    0 -0.52552689729E+01  0.73131281930E+02  0.19951569071E+01  0.73497434648E+02  0.47000000000E+01 0.  1.
         -5    1    4    4    0  503  0.42093526564E+01 -0.44035962185E+02  0.44768590516E+02  0.63112608187E+02  0.47000000000E+01 0.  1.
<mgrwt>
<rscale>  0 0.12835236E+03</rscale>
<asrwt>0</asrwt>
<pdfrwt beam="2">  1        5 0.11071641E-01 0.12835675E+03</pdfrwt>
<pdfrwt beam="1">  1       -5 0.37531681E-01 0.12835675E+03</pdfrwt>
<totfact> 0.32734167E+02</totfact>
</mgrwt>
</event>
<event>
 8    1  0.1865596E-007  0.3423491E+03  0.7546771E-02  0.1065800E+00
         -5   -1    0    0    0  501 -0.00000000000E+00  0.00000000000E+00  0.12571190329E+03  0.12579973223E+03  0.47000000000E+01 0.  1.
          5   -1    0    0  501    0  0.00000000000E+00 -0.00000000000E+00 -0.93578795157E+03  0.93579975438E+03  0.47000000000E+01 0.  1.
         25    2    1    2    0    0 -0.26467961443E+03  0.17754646042E+03 -0.37078836391E+03  0.50466515533E+03  0.12499945717E+03 0.  0.
         25    2    1    2    0    0  0.26467961443E+03 -0.17754646042E+03 -0.43928768437E+03  0.55693433129E+03  0.12499654324E+03 0.  0.
          5    1    4    4  502    0  0.47288645276E+02 -0.97109653355E+02 -0.11017932966E+03  0.15436345238E+03  0.47000000000E+01 0. -1.
         -5    1    4    4    0  502  0.21739096915E+03 -0.80436807060E+02 -0.32910835472E+03  0.40257087891E+03  0.47000000000E+01 0. -1.
          5    1    3    3  503    0 -0.25443140997E+01  0.50654876879E+02 -0.50112509104E+02  0.71454486595E+02  0.47000000000E+01 0. -1.
         -5    1    3    3    0  503 -0.26213530033E+03  0.12689158354E+03 -0.32067585480E+03  0.43321066873E+03  0.47000000000E+01 0. -1.
<mgrwt>
<rscale>  0 0.34234884E+03</rscale>
<asrwt>0</asrwt>
<pdfrwt beam="2">  1        5 0.14397504E+00 0.34234910E+03</pdfrwt>
<pdfrwt beam="1">  1       -5 0.19347957E-01 0.34234910E+03</pdfrwt>
<totfact> 0.67204433E+00</totfact>
</mgrwt>
</event>
<event>
 8    1  0.1865596E-007  0.1265430E+03  0.7546771E-02  0.1232681E+00
          5   -1    0    0  501    0  0.00000000000E+00  0.00000000000E+00  0.18572261221E+03  0.18578207310E+03  0.47000000000E+01 0. -1.
         -5   -1    0    0    0  501 -0.00000000000E+00 -0.00000000000E+00 -0.89610214356E+02  0.89733385743E+02  0.47000000000E+01 0. -1.
         25    2    1    2    0    0  0.19696259021E+02 -0.30939019455E+00  0.20728514880E+02  0.12822029088E+03  0.12499093296E+03 0.  0.
         25    2    1    2    0    0 -0.19696259021E+02  0.30939019455E+00  0.75383882971E+02  0.14729516796E+03  0.12500039340E+03 0.  0.
          5    1    4    4  502    0 -0.11033884821E+02  0.23191304082E+02  0.10522802275E+03  0.10841867907E+03  0.47000000000E+01 0.  1.
         -5    1    4    4    0  502 -0.86623742003E+01 -0.22881913888E+02 -0.29844139775E+02  0.38876488896E+02  0.47000000000E+01 0.  1.
          5    1    3    3  503    0 -0.50016223687E+02 -0.10487397319E+02  0.25781499216E+02  0.57431557843E+02  0.47000000000E+01 0.  1.
         -5    1    3    3    0  503  0.69712482708E+02  0.10178007124E+02 -0.50529843359E+01  0.70788733038E+02  0.47000000000E+01 0.  1.
<mgrwt>
<rscale>  0 0.12654069E+03</rscale>
<asrwt>0</asrwt>
<pdfrwt beam="1">  1        5 0.28586758E-01 0.12654302E+03</pdfrwt>
<pdfrwt beam="2">  1       -5 0.13800236E-01 0.12654302E+03</pdfrwt>
<totfact> 0.37795646E+02</totfact>
</mgrwt>
</event>
<event>
 8    1  0.1865596E-007  0.2759261E+03  0.7546771E-02  0.1097938E+00
          5   -1    0    0  501    0  0.00000000000E+00  0.00000000000E+00  0.42189117254E+03  0.42191735146E+03  0.47000000000E+01 0. -1.
         -5   -1    0    0    0  501 -0.00000000000E+00 -0.00000000000E+00 -0.21080160147E+03  0.21085399019E+03  0.47000000000E+01 0. -1.
         25    2    1    2    0    0 -0.38149036362E+02 -0.24301308325E+03 -0.14619938897E+02  0.27628851862E+03  0.12494356847E+03 0.  0.
         25    2    1    2    0    0  0.38149036362E+02  0.24301308325E+03  0.22570950997E+03  0.35648282304E+03  0.12499805050E+03 0.  0.
          5    1    4    4  502    0  0.26330607750E+02  0.15656595897E+02 -0.60473241171E+01  0.31576732392E+02  0.47000000000E+01 0. -1.
         -5    1    4    4    0  502  0.11818428612E+02  0.22735648735E+03  0.23175683408E+03  0.32490609065E+03  0.47000000000E+01 0. -1.
          5    1    3    3  503    0 -0.19636706069E+02 -0.22571214291E+03 -0.50442295372E+02  0.23215961502E+03  0.47000000000E+01 0. -1.
         -5    1    3    3    0  503 -0.18512330293E+02 -0.17300940333E+02  0.35822356475E+02  0.44128903598E+02  0.47000000000E+01 0. -1.
<mgrwt>
<rscale>  0 0.27591994E+03</rscale>
<asrwt>0</asrwt>
<pdfrwt beam="1">  1        5 0.64912377E-01 0.27592611E+03</pdfrwt>
<pdfrwt beam="2">  1       -5 0.32437060E-01 0.27592611E+03</pdfrwt>
<totfact> 0.16899211E+01</totfact>
</mgrwt>
</event>
<event>
 8    1  0.1865596E-007  0.1391702E+03  0.7546771E-02  0.1214451E+00
         -5   -1    0    0    0  501 -0.00000000000E+00  0.00000000000E+00  0.95429603112E+02  0.95545272777E+02  0.47000000000E+01 0.  1.
          5   -1    0    0  501    0  0.00000000000E+00 -0.00000000000E+00 -0.20966659038E+03  0.20971926264E+03  0.47000000000E+01 0.  1.
         25    2    1    2    0    0  0.28236252490E+02  0.54276082355E+02 -0.29289262233E+02  0.14221884822E+03  0.12500064335E+03 0.  0.
         25    2    1    2    0    0 -0.28236252490E+02 -0.54276082355E+02 -0.84947725037E+02  0.16304568720E+03  0.12499840421E+03 0.  0.
          5    1    4    4  502    0  0.26298592144E+02  0.99674808079E+01  0.15008483259E+02  0.32222836501E+02  0.47000000000E+01 0.  1.
         -5    1    4    4    0  502 -0.54534844634E+02 -0.64243563163E+02 -0.99956208296E+02  0.13082285070E+03  0.47000000000E+01 0.  1.
          5    1    3    3  503    0 -0.83816203632E+01  0.11712698653E+02 -0.70693127022E+02  0.72298320020E+02  0.47000000000E+01 0.  1.
         -5    1    3    3    0  503  0.36617872853E+02  0.42563383702E+02  0.41403864789E+02  0.69920528201E+02  0.47000000000E+01 0.  1.
<mgrwt>
<rscale>  0 0.13916968E+03</rscale>
<asrwt>0</asrwt>
<pdfrwt beam="2">  1        5 0.32269348E-01 0.13917018E+03</pdfrwt>
<pdfrwt beam="1">  1       -5 0.14694427E-01 0.13917018E+03</pdfrwt>
<totfact> 0.27520140E+02</totfact>
</mgrwt>
</event>
<event>
 8    1  0.1865596E-007  0.1402349E+03  0.7546771E-02  0.1213014E+00
         -5   -1    0    0    0  501 -0.00000000000E+00  0.00000000000E+00  0.13837996094E+03  0.13845975441E+03  0.47000000000E+01 0.  1.
          5   -1    0    0  501    0  0.00000000000E+00 -0.00000000000E+00 -0.14227318663E+03  0.14235079780E+03  0.47000000000E+01 0.  1.
         25    2    1    2    0    0  0.83562033606E+01  0.63009391195E+02 -0.86006720400E+01  0.14049837586E+03  0.12500325014E+03 0.  0.
         25    2    1    2    0    0 -0.83562033606E+01 -0.63009391195E+02  0.47074463569E+01  0.14031217635E+03  0.12500134906E+03 0.  0.
          5    1    3    3  502    0 -0.28405896546E+02 -0.15898177018E+02  0.30590261539E+02  0.44916601520E+02  0.47000000000E+01 0. -1.
         -5    1    3    3    0  502  0.36762099907E+02  0.78907568213E+02 -0.39190933579E+02  0.95581774338E+02  0.47000000000E+01 0. -1.
          5    1    4    4  503    0  0.53152859673E+02 -0.31543782540E+02  0.26930539890E+02  0.67583878900E+02  0.47000000000E+01 0. -1.
         -5    1    4    4    0  503 -0.61509063033E+02 -0.31465608655E+02 -0.22223093533E+02  0.72728297446E+02  0.47000000000E+01 0. -1.
<mgrwt>
<rscale>  0 0.14023446E+03</rscale>
<asrwt>0</asrwt>
<pdfrwt beam="2">  1        5 0.21900291E-01 0.14023488E+03</pdfrwt>
<pdfrwt beam="1">  1       -5 0.21301333E-01 0.14023488E+03</pdfrwt>
<totfact> 0.29445968E+02</totfact>
</mgrwt>
</event>
<event>
 8    1  0.1865596E-007  0.1251471E+03  0.7546771E-02  0.1234851E+00
         -5   -1    0    0    0  501 -0.00000000000E+00  0.00000000000E+00  0.11445347495E+03  0.11454993639E+03  0.47000000000E+01 0. -1.
          5   -1    0    0  501    0  0.00000000000E+00 -0.00000000000E+00 -0.14337703001E+03  0.14345404398E+03  0.47000000000E+01 0. -1.
         25    2    1    2    0    0  0.33685661812E+01  0.46654785585E+01  0.13540839979E+02  0.12584871148E+03  0.12498571881E+03 0.  0.
         25    2    1    2    0    0 -0.33685661812E+01 -0.46654785585E+01 -0.42464395039E+02  0.13215526888E+03  0.12501470441E+03 0.  0.
          5    1    4    4  502    0 -0.15504589314E+02 -0.50791208380E+02 -0.60779947750E+02  0.80848198415E+02  0.47000000000E+01 0.  1.
         -5    1    4    4    0  502  0.12136023133E+02  0.46125729822E+02  0.18315552712E+02  0.51307070470E+02  0.47000000000E+01 0.  1.
          5    1    3    3  503    0 -0.27526375782E+02 -0.16299516829E+01 -0.48561925222E+02  0.56042026083E+02  0.47000000000E+01 0.  1.
         -5    1    3    3    0  503  0.30894941963E+02  0.62954302413E+01  0.62102765201E+02  0.69806685399E+02  0.47000000000E+01 0.  1.
<mgrwt>
<rscale>  0 0.12513984E+03</rscale>
<asrwt>0</asrwt>
<pdfrwt beam="2">  1        5 0.22071349E-01 0.12514707E+03</pdfrwt>
<pdfrwt beam="1">  1       -5 0.17621571E-01 0.12514707E+03</pdfrwt>
<totfact> 0.39635880E+02</totfact>
</mgrwt>
</event>
<event>
 8    1  0.1865596E-007  0.1255063E+03  0.7546771E-02  0.1234282E+00
         -5   -1    0    0    0  501 -0.00000000000E+00  0.00000000000E+00  0.16420281084E+03  0.16427006144E+03  0.47000000000E+01 0. -1.
          5   -1    0    0  501    0  0.00000000000E+00 -0.00000000000E+00 -0.95999105985E+02  0.96114090278E+02  0.47000000000E+01 0. -1.
         25    2    1    2    0    0 -0.17588390499E+01  0.11064758281E+02  0.40306064082E+02  0.13181962765E+03  0.12500525205E+03 0.  0.
         25    2    1    2    0    0  0.17588390499E+01 -0.11064758281E+02  0.27897640769E+02  0.12856452408E+03  0.12500014440E+03 0.  0.
          5    1    4    4  502    0  0.61211132903E+02 -0.38904886748E+01 -0.18330650018E+01  0.61541764849E+02  0.47000000000E+01 0. -1.
         -5    1    4    4    0  502 -0.59452293853E+02 -0.71742696059E+01  0.29730705771E+02  0.67022759227E+02  0.47000000000E+01 0. -1.
          5    1    3    3  503    0 -0.31570388068E+02  0.27835289944E+02 -0.31074006027E+02  0.52527865173E+02  0.47000000000E+01 0. -1.
         -5    1    3    3    0  503  0.29811549018E+02 -0.16770531663E+02  0.71380070109E+02  0.79291762472E+02  0.47000000000E+01 0. -1.
<mgrwt>
<rscale>  0 0.12550504E+03</rscale>
<asrwt>0</asrwt>
<pdfrwt beam="2">  1        5 0.14783112E-01 0.12550632E+03</pdfrwt>
<pdfrwt beam="1">  1       -5 0.25275989E-01 0.12550632E+03</pdfrwt>
<totfact> 0.42225609E+02</totfact>
</mgrwt>
</event>
<event>
 8    1  0.1865596E-007  0.2016207E+03  0.7546771E-02  0.1148379E+00
         -5   -1    0    0    0  501 -0.00000000000E+00  0.00000000000E+00  0.20840283050E+03  0.20845582208E+03  0.47000000000E+01 0. -1.
          5   -1    0    0  501    0  0.00000000000E+00 -0.00000000000E+00 -0.19539512565E+03  0.19545164396E+03  0.47000000000E+01 0. -1.
         25    2    1    2    0    0 -0.15637819792E+03  0.23899668260E+02  0.16120521836E+02  0.20226271368E+03  0.12499999677E+03 0.  0.
         25    2    1    2    0    0  0.15637819792E+03 -0.23899668260E+02 -0.31128169844E+01  0.20164475236E+03  0.12500232636E+03 0.  0.
          5    1    4    4  502    0 -0.30455211050E+01 -0.24811734294E+02  0.29392682293E+02  0.38870517489E+02  0.47000000000E+01 0.  1.
         -5    1    4    4    0  502  0.15942371903E+03  0.91206603369E+00 -0.32505499278E+02  0.16277423487E+03  0.47000000000E+01 0.  1.
          5    1    3    3  503    0  0.14561725359E+02  0.91447531055E+01 -0.20075812739E+02  0.26847692861E+02  0.47000000000E+01 0. -1.
         -5    1    3    3    0  503 -0.17093992328E+03  0.14754915154E+02  0.36196334575E+02  0.17541502082E+03  0.47000000000E+01 0. -1.
<mgrwt>
<rscale>  0 0.20162036E+03</rscale>
<asrwt>0</asrwt>
<pdfrwt beam="2">  1        5 0.30069213E-01 0.20162072E+03</pdfrwt>
<pdfrwt beam="1">  1       -5 0.32070398E-01 0.20162072E+03</pdfrwt>
<totfact> 0.80877369E+01</totfact>
</mgrwt>
</event>
<event>
 8    1  0.1865596E-007  0.1312590E+03  0.7546771E-02  0.1225602E+00
          5   -1    0    0  501    0  0.00000000000E+00  0.00000000000E+00  0.41602511315E+02  0.41867158343E+02  0.47000000000E+01 0. -1.
         -5   -1    0    0    0  501 -0.00000000000E+00 -0.00000000000E+00 -0.42249724129E+03  0.42252338266E+03  0.47000000000E+01 0. -1.
         25    2    1    2    0    0 -0.26335139024E+02 -0.30179093552E+02 -0.22610697306E+03  0.26144185511E+03  0.12499265219E+03 0.  0.
         25    2    1    2    0    0  0.26335139024E+02  0.30179093552E+02 -0.15478775691E+03  0.20294868589E+03  0.12499840871E+03 0.  0.
          5    1    4    4  502    0  0.34405049436E+02  0.57643015389E+01 -0.16938868019E+03  0.17300736856E+03  0.47000000000E+01 0.  1.
         -5    1    4    4    0  502 -0.80699104121E+01  0.24414792014E+02  0.14600923278E+02  0.29941317334E+02  0.47000000000E+01 0.  1.
          5    1    3    3  503    0 -0.65122473192E+02 -0.45847180249E+02 -0.18967327110E+03  0.20576914302E+03  0.47000000000E+01 0.  1.
         -5    1    3    3    0  503  0.38787334168E+02  0.15668086696E+02 -0.36433701961E+02  0.55672712087E+02  0.47000000000E+01 0.  1.
<mgrwt>
<rscale>  0 0.13125761E+03</rscale>
<asrwt>0</asrwt>
<pdfrwt beam="1">  1        5 0.64227550E-02 0.13125898E+03</pdfrwt>
<pdfrwt beam="2">  1       -5 0.65021941E-01 0.13125898E+03</pdfrwt>
<totfact> 0.26335174E+02</totfact>
</mgrwt>
</event>
<event>
 8    1  0.1865596E-007  0.1298681E+03  0.7546771E-02  0.1227652E+00
          5   -1    0    0  501    0  0.00000000000E+00  0.00000000000E+00  0.37115747883E+03  0.37118723589E+03  0.47000000000E+01 0. -1.
         -5   -1    0    0    0  501 -0.00000000000E+00 -0.00000000000E+00 -0.45481030492E+02  0.45723234079E+02  0.47000000000E+01 0. -1.
         25    2    1    2    0    0  0.35216791578E+02  0.43314500319E+00  0.14927911201E+03  0.19786309681E+03  0.12500056708E+03 0.  0.
         25    2    1    2    0    0 -0.35216791578E+02 -0.43314500319E+00  0.17639733632E+03  0.21904737316E+03  0.12500128561E+03 0.  0.
          5    1    4    4  502    0  0.52180581528E+00  0.36060736485E+02  0.16162711844E+03  0.16566853779E+03  0.47000000000E+01 0. -1.
         -5    1    4    4    0  502 -0.35738597393E+02 -0.36493881488E+02  0.14770217880E+02  0.53378835374E+02  0.47000000000E+01 0. -1.
          5    1    3    3  503    0  0.35956097339E+02  0.48806391402E+02  0.27482011301E+02  0.66725225535E+02  0.47000000000E+01 0.  1.
         -5    1    3    3    0  503 -0.73930576113E+00 -0.48373246399E+02  0.12179710071E+03  0.13113787127E+03  0.47000000000E+01 0.  1.
<mgrwt>
<rscale>  0 0.12986796E+03</rscale>
<asrwt>0</asrwt>
<pdfrwt beam="1">  1        5 0.57122072E-01 0.12986813E+03</pdfrwt>
<pdfrwt beam="2">  1       -5 0.70180015E-02 0.12986813E+03</pdfrwt>
<totfact> 0.29997656E+02</totfact>
</mgrwt>
</event>
<event>
 8    1  0.1865596E-007  0.1305361E+03  0.7546771E-02  0.1226667E+00
         -5   -1    0    0    0  501 -0.00000000000E+00  0.00000000000E+00  0.31835095546E+02  0.32180169491E+02  0.47000000000E+01 0.  1.
          5   -1    0    0  501    0  0.00000000000E+00 -0.00000000000E+00 -0.54450414679E+03  0.54452443092E+03  0.47000000000E+01 0.  1.
         25    2    1    2    0    0 -0.33438633608E+02 -0.17204142669E+02 -0.21259643815E+03  0.24947327802E+03  0.12500218474E+03 0.  0.
         25    2    1    2    0    0  0.33438633608E+02  0.17204142669E+02 -0.30007261310E+03  0.32723132239E+03  0.12499056157E+03 0.  0.
          5    1    3    3  502    0 -0.20155124438E+02  0.70100710875E+01 -0.21952816101E+03  0.22061294979E+03  0.47000000000E+01 0.  1.
         -5    1    3    3    0  502 -0.13283509170E+02 -0.24214213757E+02  0.69317228641E+01  0.28860328231E+02  0.47000000000E+01 0.  1.
          5    1    4    4  503    0  0.66976540204E+02  0.48625487378E+02 -0.16860245370E+03  0.18788073971E+03  0.47000000000E+01 0. -1.
         -5    1    4    4    0  503 -0.33537906596E+02 -0.31421344708E+02 -0.13147015939E+03  0.13935058268E+03  0.47000000000E+01 0. -1.
<mgrwt>
<rscale>  0 0.13053331E+03</rscale>
<asrwt>0</asrwt>
<pdfrwt beam="2">  1        5 0.83797966E-01 0.13053609E+03</pdfrwt>
<pdfrwt beam="1">  1       -5 0.49258119E-02 0.13053609E+03</pdfrwt>
<totfact> 0.23002184E+02</totfact>
</mgrwt>
</event>
<event>
 8    1  0.1865596E-007  0.1331682E+03  0.7546771E-02  0.1222832E+00
         -5   -1    0    0    0  501 -0.00000000000E+00  0.00000000000E+00  0.50913871619E+02  0.51130346402E+02  0.47000000000E+01 0. -1.
          5   -1    0    0  501    0  0.00000000000E+00 -0.00000000000E+00 -0.37127443256E+03  0.37130418025E+03  0.47000000000E+01 0. -1.
         25    2    1    2    0    0  0.29261411124E+02 -0.35379085879E+02 -0.10654855989E+03  0.17054722781E+03  0.12500340555E+03 0.  0.
         25    2    1    2    0    0 -0.29261411124E+02  0.35379085879E+02 -0.21381200104E+03  0.25188729884E+03  0.12499491841E+03 0.  0.
          5    1    4    4  502    0  0.16839970863E+02  0.64713440414E+02 -0.16638348291E+03  0.17937939507E+03  0.47000000000E+01 0. -1.
         -5    1    4    4    0  502 -0.46101381987E+02 -0.29334354535E+02 -0.47428518130E+02  0.72507903770E+02  0.47000000000E+01 0. -1.
          5    1    3    3  503    0  0.44321293112E+02 -0.74053754574E+02 -0.92213032875E+02  0.12638698122E+03  0.47000000000E+01 0.  1.
         -5    1    3    3    0  503 -0.15059881988E+02  0.38674668695E+02 -0.14335527018E+02  0.44160246592E+02  0.47000000000E+01 0.  1.
<mgrwt>
<rscale>  0 0.13316618E+03</rscale>
<asrwt>0</asrwt>
<pdfrwt beam="2">  1        5 0.57138082E-01 0.13316817E+03</pdfrwt>
<pdfrwt beam="1">  1       -5 0.78518437E-02 0.13316817E+03</pdfrwt>
<totfact> 0.24982263E+02</totfact>
</mgrwt>
</event>
<event>
 8    1  0.1865596E-007  0.1701509E+03  0.7546771E-02  0.1177700E+00
          5   -1    0    0  501    0  0.00000000000E+00  0.00000000000E+00  0.18653562908E+03  0.18659483090E+03  0.47000000000E+01 0. -1.
         -5   -1    0    0    0  501 -0.00000000000E+00 -0.00000000000E+00 -0.21837030434E+03  0.21842087771E+03  0.47000000000E+01 0. -1.
         25    2    1    2    0    0  0.11492633915E+03  0.10878033498E+02 -0.12493171811E+03  0.21106106683E+03  0.12494976871E+03 0.  0.
         25    2    1    2    0    0 -0.11492633915E+03 -0.10878033498E+02  0.93097042856E+02  0.19395464177E+03  0.12499979453E+03 0.  0.
          5    1    3    3  502    0  0.10479328054E+03 -0.14199746390E+02 -0.26846832227E+02  0.10920671612E+03  0.47000000000E+01 0. -1.
         -5    1    3    3    0  502  0.10133058604E+02  0.25077779888E+02 -0.98084885885E+02  0.10185435072E+03  0.47000000000E+01 0. -1.
          5    1    4    4  503    0 -0.25891645828E+02 -0.54547181574E+02  0.42274248218E+01  0.60710241821E+02  0.47000000000E+01 0.  1.
         -5    1    4    4    0  503 -0.89034693319E+02  0.43669148076E+02  0.88869618034E+02  0.13324439995E+03  0.47000000000E+01 0.  1.
<mgrwt>
<rscale>  0 0.17014176E+03</rscale>
<asrwt>0</asrwt>
<pdfrwt beam="1">  1        5 0.28706233E-01 0.17015094E+03</pdfrwt>
<pdfrwt beam="2">  1       -5 0.33603876E-01 0.17015094E+03</pdfrwt>
<totfact> 0.76947690E+01</totfact>
</mgrwt>
</event>
<event>
 8    1  0.1865596E-007  0.1266734E+03  0.7546771E-02  0.1232479E+00
          5   -1    0    0  501    0  0.00000000000E+00  0.00000000000E+00  0.18859732708E+02  0.19436551078E+02  0.47000000000E+01 0.  1.
         -5   -1    0    0    0  501 -0.00000000000E+00 -0.00000000000E+00 -0.89026169914E+03  0.89027410552E+03  0.47000000000E+01 0.  1.
         25    2    1    2    0    0 -0.12566916062E+02  0.16215424807E+02 -0.54653245793E+03  0.56102038905E+03  0.12500112787E+03 0.  0.
         25    2    1    2    0    0  0.12566916062E+02 -0.16215424807E+02 -0.32486950850E+03  0.34869026756E+03  0.12499535092E+03 0.  0.
          5    1    4    4  502    0 -0.13320081314E+02 -0.59166453343E+02 -0.25741859125E+03  0.26450806205E+03  0.47000000000E+01 0.  1.
         -5    1    4    4    0  502  0.25886997376E+02  0.42951028536E+02 -0.67450917250E+02  0.84182205503E+02  0.47000000000E+01 0.  1.
          5    1    3    3  503    0  0.13089047709E+02 -0.48547030223E+02 -0.32039753616E+03  0.32435290732E+03  0.47000000000E+01 0.  1.
         -5    1    3    3    0  503 -0.25655963771E+02  0.64762455029E+02 -0.22613492177E+03  0.23666748172E+03  0.47000000000E+01 0.  1.
<mgrwt>
<rscale>  0 0.12667197E+03</rscale>
<asrwt>0</asrwt>
<pdfrwt beam="1">  1        5 0.29468230E-02 0.12667340E+03</pdfrwt>
<pdfrwt beam="2">  1       -5 0.13700863E+00 0.12667340E+03</pdfrwt>
<totfact> 0.15615844E+02</totfact>
</mgrwt>
</event>
<event>
 8    1  0.1865596E-007  0.2170212E+03  0.7546771E-02  0.1136125E+00
          5   -1    0    0  501    0  0.00000000000E+00  0.00000000000E+00  0.19624836938E+03  0.19630464204E+03  0.47000000000E+01 0.  1.
         -5   -1    0    0    0  501 -0.00000000000E+00 -0.00000000000E+00 -0.28386939382E+03  0.28390829989E+03  0.47000000000E+01 0.  1.
         25    2    1    2    0    0  0.74970516846E+02  0.16078119219E+03 -0.13832260651E+03  0.25735453512E+03  0.12500817219E+03 0.  0.
         25    2    1    2    0    0 -0.74970516846E+02 -0.16078119219E+03  0.50701582074E+02  0.22285840681E+03  0.12499619557E+03 0.  0.
          5    1    3    3  502    0  0.78160999010E+01  0.99004713292E+02 -0.10137658976E+02  0.99939415654E+02  0.47000000000E+01 0.  1.
         -5    1    3    3    0  502  0.67154416945E+02  0.61776478893E+02 -0.12818494754E+03  0.15741511946E+03  0.47000000000E+01 0.  1.
          5    1    4    4  503    0 -0.42358318343E+02 -0.13606759637E+03 -0.17017345512E+02  0.14359769484E+03  0.47000000000E+01 0. -1.
         -5    1    4    4    0  503 -0.32612198503E+02 -0.24713595815E+02  0.67718927587E+02  0.79260711975E+02  0.47000000000E+01 0. -1.
<mgrwt>
<rscale>  0 0.21701950E+03</rscale>
<asrwt>0</asrwt>
<pdfrwt beam="1">  1        5 0.30199378E-01 0.21702123E+03</pdfrwt>
<pdfrwt beam="2">  1       -5 0.43679536E-01 0.21702123E+03</pdfrwt>
<totfact> 0.43510592E+01</totfact>
</mgrwt>
</event>
<event>
 8    1  0.1865596E-007  0.1821800E+03  0.7546771E-02  0.1165711E+00
         -5   -1    0    0    0  501 -0.00000000000E+00  0.00000000000E+00  0.51290046083E+03  0.51292199478E+03  0.47000000000E+01 0.  1.
          5   -1    0    0  501    0  0.00000000000E+00 -0.00000000000E+00 -0.64620927326E+02  0.64791621746E+02  0.47000000000E+01 0.  1.
         25    2    1    2    0    0 -0.11817705490E+03 -0.59994413669E+02  0.22933666992E+03  0.29289055595E+03  0.12499769445E+03 0.  0.
         25    2    1    2    0    0  0.11817705490E+03  0.59994413669E+02  0.21894286359E+03  0.28482306057E+03  0.12499220913E+03 0.  0.
          5    1    3    3  502    0  0.61190021308E+01 -0.62151972566E+01  0.11545609904E+03  0.11588041970E+03  0.47000000000E+01 0. -1.
         -5    1    3    3    0  502 -0.12429605703E+03 -0.53779216412E+02  0.11388057088E+03  0.17701013625E+03  0.47000000000E+01 0. -1.
          5    1    4    4  503    0  0.61943642044E+01 -0.32134634910E+02  0.67129414414E+02  0.74829494107E+02  0.47000000000E+01 0. -1.
         -5    1    4    4    0  503  0.11198269069E+03  0.92129048579E+02  0.15181344917E+03  0.20999356647E+03  0.47000000000E+01 0. -1.
<mgrwt>
<rscale>  0 0.18217911E+03</rscale>
<asrwt>0</asrwt>
<pdfrwt beam="2">  1        5 0.99564676E-02 0.18218005E+03</pdfrwt>
<pdfrwt beam="1">  1       -5 0.78922552E-01 0.18218005E+03</pdfrwt>
<totfact> 0.88566029E+01</totfact>
</mgrwt>
</event>
<event>
 8    1  0.1865596E-007  0.1441680E+03  0.7546771E-02  0.1207833E+00
         -5   -1    0    0    0  501 -0.00000000000E+00  0.00000000000E+00  0.19300500852E+03  0.19306222653E+03  0.47000000000E+01 0.  1.
          5   -1    0    0  501    0  0.00000000000E+00 -0.00000000000E+00 -0.10766957686E+03  0.10777211040E+03  0.47000000000E+01 0.  1.
         25    2    1    2    0    0  0.19326897025E+02 -0.69186026811E+02  0.37734382695E+02  0.14901115355E+03  0.12498081849E+03 0.  0.
         25    2    1    2    0    0 -0.19326897025E+02  0.69186026811E+02  0.47601048970E+02  0.15182318338E+03  0.12499673554E+03 0.  0.
          5    1    3    3  502    0  0.33800610642E+02 -0.45389836476E+02 -0.37900969679E+02  0.68273655517E+02  0.47000000000E+01 0.  1.
         -5    1    3    3    0  502 -0.14473713617E+02 -0.23796190335E+02  0.75635352375E+02  0.80737498036E+02  0.47000000000E+01 0.  1.
          5    1    4    4  503    0 -0.34161317731E+02 -0.17892622779E+02  0.50017179351E+02  0.63332059884E+02  0.47000000000E+01 0.  1.
         -5    1    4    4    0  503  0.14834420706E+02  0.87078649590E+02 -0.24161303812E+01  0.88491123499E+02  0.47000000000E+01 0.  1.
<mgrwt>
<rscale>  0 0.14416457E+03</rscale>
<asrwt>0</asrwt>
<pdfrwt beam="2">  1        5 0.16576839E-01 0.14416802E+03</pdfrwt>
<pdfrwt beam="1">  1       -5 0.29705366E-01 0.14416802E+03</pdfrwt>
<totfact> 0.26335625E+02</totfact>
</mgrwt>
</event>
<event>
 8    1  0.1865596E-007  0.1335062E+03  0.7546771E-02  0.1222344E+00
          5   -1    0    0  501    0  0.00000000000E+00  0.00000000000E+00  0.13792761997E+03  0.13800767497E+03  0.47000000000E+01 0. -1.
         -5   -1    0    0    0  501 -0.00000000000E+00 -0.00000000000E+00 -0.13208489339E+03  0.13216848740E+03  0.47000000000E+01 0. -1.
         25    2    1    2    0    0 -0.38513220360E+01 -0.46732747364E+02 -0.17492412995E+02  0.13464732851E+03  0.12500054482E+03 0.  0.
         25    2    1    2    0    0  0.38513220360E+01  0.46732747364E+02  0.23335139581E+02  0.13552883386E+03  0.12499901484E+03 0.  0.
          5    1    3    3  502    0 -0.25310696738E+02 -0.37731799965E+02 -0.66219117073E+02  0.80444897687E+02  0.47000000000E+01 0.  1.
         -5    1    3    3    0  502  0.21459374701E+02 -0.90009473996E+01  0.48726704078E+02  0.54202430822E+02  0.47000000000E+01 0.  1.
          5    1    4    4  503    0  0.61240242341E+02  0.66021630674E+01  0.68220345815E+00  0.61777918715E+02  0.47000000000E+01 0.  1.
         -5    1    4    4    0  503 -0.57388920305E+02  0.40130584297E+02  0.22652936123E+02  0.73750915146E+02  0.47000000000E+01 0.  1.
<mgrwt>
<rscale>  0 0.13350589E+03</rscale>
<asrwt>0</asrwt>
<pdfrwt beam="1">  1        5 0.21232222E-01 0.13350625E+03</pdfrwt>
<pdfrwt beam="2">  1       -5 0.20333341E-01 0.13350625E+03</pdfrwt>
<totfact> 0.33486698E+02</totfact>
</mgrwt>
</event>
<event>
 8    1  0.1865596E-007  0.1252109E+03  0.7546771E-02  0.1234760E+00
          5   -1    0    0  501    0  0.00000000000E+00  0.00000000000E+00  0.13855422305E+03  0.13863391622E+03  0.47000000000E+01 0. -1.
         -5   -1    0    0    0  501 -0.00000000000E+00 -0.00000000000E+00 -0.11323058160E+03  0.11332808394E+03  0.47000000000E+01 0. -1.
         25    2    1    2    0    0 -0.62921133145E+01  0.36248227335E+01  0.63370460303E+01  0.12531974612E+03  0.12494859177E+03 0.  0.
         25    2    1    2    0    0  0.62921133145E+01 -0.36248227335E+01  0.18986595425E+02  0.12664225404E+03  0.12500015869E+03 0.  0.
          5    1    3    3  502    0 -0.41282520870E+02  0.32413223036E+02  0.42064149273E+02  0.67426598691E+02  0.47000000000E+01 0. -1.
         -5    1    3    3    0  502  0.34990407555E+02 -0.28788400303E+02 -0.35727103243E+02  0.57893147427E+02  0.47000000000E+01 0. -1.
          5    1    4    4  503    0 -0.15824488052E+01 -0.33395239084E+02  0.63731540039E+02  0.72121739673E+02  0.47000000000E+01 0.  1.
         -5    1    4    4    0  503  0.78745621197E+01  0.29770416351E+02 -0.44744944614E+02  0.54520514366E+02  0.47000000000E+01 0.  1.
<mgrwt>
<rscale>  0 0.12519803E+03</rscale>
<asrwt>0</asrwt>
<pdfrwt beam="1">  1        5 0.21329665E-01 0.12521090E+03</pdfrwt>
<pdfrwt beam="2">  1       -5 0.17433720E-01 0.12521090E+03</pdfrwt>
<totfact> 0.43115381E+02</totfact>
</mgrwt>
</event>
<event>
 8    1  0.1865596E-007  0.1268693E+03  0.7546771E-02  0.1232179E+00
          5   -1    0    0  501    0  0.00000000000E+00  0.00000000000E+00  0.11985829693E+04  0.11985921843E+04  0.47000000000E+01 0.  1.
         -5   -1    0    0    0  501 -0.00000000000E+00 -0.00000000000E+00 -0.14012810005E+02  0.14780015028E+02  0.47000000000E+01 0.  1.
         25    2    1    2    0    0 -0.11383746183E+02 -0.18431100190E+02  0.43427430192E+03  0.45242677397E+03  0.12500608532E+03 0.  0.
         25    2    1    2    0    0  0.11383746183E+02  0.18431100190E+02  0.75029585741E+03  0.76094542540E+03  0.12499908666E+03 0.  0.
          5    1    4    4  502    0 -0.22750570739E+02 -0.43219621687E+01  0.24725056283E+02  0.34200675931E+02  0.47000000000E+01 0.  1.
         -5    1    4    4    0  502  0.34134316923E+02  0.22753062359E+02  0.72557080112E+03  0.72674474947E+03  0.47000000000E+01 0.  1.
          5    1    3    3  503    0 -0.37568817393E+02  0.17496547146E+02  0.37922394390E+03  0.38151072702E+03  0.47000000000E+01 0.  1.
         -5    1    3    3    0  503  0.26185071210E+02 -0.35927647336E+02  0.55050358016E+02  0.70916046950E+02  0.47000000000E+01 0.  1.
<mgrwt>
<rscale>  0 0.12686757E+03</rscale>
<asrwt>0</asrwt>
<pdfrwt beam="1">  1        5 0.18445711E+00 0.12686929E+03</pdfrwt>
<pdfrwt beam="2">  1       -5 0.22155414E-02 0.12686929E+03</pdfrwt>
<totfact> 0.10752072E+02</totfact>
</mgrwt>
</event>
<event>
 8    1  0.1865596E-007  0.1430928E+03  0.7546771E-02  0.1209227E+00
         -5   -1    0    0    0  501 -0.00000000000E+00  0.00000000000E+00  0.22478001611E+03  0.22482914767E+03  0.47000000000E+01 0. -1.
          5   -1    0    0  501    0  0.00000000000E+00 -0.00000000000E+00 -0.91156951523E+02  0.91278035753E+02  0.47000000000E+01 0. -1.
         25    2    1    2    0    0 -0.56515697666E+02  0.40706421832E+02  0.73938720334E+02  0.16106597704E+03  0.12499711090E+03 0.  0.
         25    2    1    2    0    0  0.56515697666E+02 -0.40706421832E+02  0.59684344248E+02  0.15504120638E+03  0.12499807145E+03 0.  0.
          5    1    4    4  502    0  0.17013148308E+02 -0.42705551084E+02 -0.31237660365E+02  0.55777170364E+02  0.47000000000E+01 0.  1.
         -5    1    4    4    0  502  0.39502549358E+02  0.19991292518E+01  0.90922004613E+02  0.99264036017E+02  0.47000000000E+01 0.  1.
          5    1    3    3  503    0 -0.16707413676E+01 -0.23400759601E+02  0.72725198371E+02  0.76559985663E+02  0.47000000000E+01 0. -1.
         -5    1    3    3    0  503 -0.54844956298E+02  0.64107181433E+02  0.12135219628E+01  0.84505991375E+02  0.47000000000E+01 0. -1.
<mgrwt>
<rscale>  0 0.14309261E+03</rscale>
<asrwt>0</asrwt>
<pdfrwt beam="2">  1        5 0.14037240E-01 0.14309282E+03</pdfrwt>
<pdfrwt beam="1">  1       -5 0.34594634E-01 0.14309282E+03</pdfrwt>
<totfact> 0.26264265E+02</totfact>
</mgrwt>
</event>
<event>
 8    1  0.1865596E-007  0.2439381E+03  0.7546771E-02  0.1117199E+00
          5   -1    0    0  501    0  0.00000000000E+00  0.00000000000E+00  0.97877340549E+02  0.97990120894E+02  0.47000000000E+01 0. -1.
         -5   -1    0    0    0  501 -0.00000000000E+00 -0.00000000000E+00 -0.61915952236E+03  0.61917736080E+03  0.47000000000E+01 0. -1.
         25    2    1    2    0    0 -0.10412912880E+02  0.20921299370E+03 -0.30992224419E+03  0.39440792714E+03  0.12500923988E+03 0.  0.
         25    2    1    2    0    0  0.10412912880E+02 -0.20921299370E+03 -0.21135993762E+03  0.32275955456E+03  0.12498880485E+03 0.  0.
          5    1    4    4  502    0  0.26600095227E+02 -0.81318963963E+02 -0.16455965494E+03  0.18553250119E+03  0.47000000000E+01 0. -1.
         -5    1    4    4    0  502 -0.16187182347E+02 -0.12789402974E+03 -0.46800282682E+02  0.13722705336E+03  0.47000000000E+01 0. -1.
          5    1    3    3  503    0 -0.17379816740E+02 -0.11178686042E+02 -0.44665234997E+02  0.49437781795E+02  0.47000000000E+01 0.  1.
         -5    1    3    3    0  503  0.69669038599E+01  0.22039167975E+03 -0.26525700919E+03  0.34497014534E+03  0.47000000000E+01 0.  1.
<mgrwt>
<rscale>  0 0.24393552E+03</rscale>
<asrwt>0</asrwt>
<pdfrwt beam="1">  1        5 0.15068100E-01 0.24393814E+03</pdfrwt>
<pdfrwt beam="2">  1       -5 0.95265357E-01 0.24393814E+03</pdfrwt>
<totfact> 0.29064379E+01</totfact>
</mgrwt>
</event>
<event>
 8    1  0.1865596E-007  0.1734730E+03  0.7546771E-02  0.1174276E+00
          5   -1    0    0  501    0  0.00000000000E+00  0.00000000000E+00  0.71840441670E+03  0.71841979088E+03  0.47000000000E+01 0. -1.
         -5   -1    0    0    0  501 -0.00000000000E+00 -0.00000000000E+00 -0.46172875400E+02  0.46411468655E+02  0.47000000000E+01 0. -1.
         25    2    1    2    0    0 -0.30339791670E+02  0.11638157599E+03  0.21795450018E+03  0.27856247135E+03  0.12501084797E+03 0.  0.
         25    2    1    2    0    0  0.30339791670E+02 -0.11638157599E+03  0.45427704112E+03  0.48626878819E+03  0.12499812032E+03 0.  0.
          5    1    3    3  502    0 -0.27332260502E+02  0.57972394227E+02  0.20967951755E+03  0.21930672821E+03  0.47000000000E+01 0.  1.
         -5    1    3    3    0  502 -0.30075311677E+01  0.58409181762E+02  0.82749826221E+01  0.59255743142E+02  0.47000000000E+01 0.  1.
          5    1    4    4  503    0 -0.66334307315E+01  0.13588309151E+02  0.42870301811E+01  0.16404669355E+02  0.47000000000E+01 0. -1.
         -5    1    4    4    0  503  0.36973222401E+02 -0.12996988514E+03  0.44999001094E+03  0.46986411883E+03  0.47000000000E+01 0. -1.
<mgrwt>
<rscale>  0 0.17347072E+03</rscale>
<asrwt>0</asrwt>
<pdfrwt beam="1">  1        5 0.11054328E+00 0.17347301E+03</pdfrwt>
<pdfrwt beam="2">  1       -5 0.71230558E-02 0.17347301E+03</pdfrwt>
<totfact> 0.69204014E+01</totfact>
</mgrwt>
</event>
<event>
 8    1  0.1865596E-007  0.1255690E+03  0.7546771E-02  0.1234191E+00
         -5   -1    0    0    0  501 -0.00000000000E+00  0.00000000000E+00  0.24927897517E+02  0.25367106153E+02  0.47000000000E+01 0.  1.
          5   -1    0    0  501    0  0.00000000000E+00 -0.00000000000E+00 -0.63091072487E+03  0.63092823106E+03  0.47000000000E+01 0.  1.
         25    2    1    2    0    0 -0.10257511357E+02  0.61389606533E+01 -0.27544162194E+03  0.30271383914E+03  0.12499871174E+03 0.  0.
         25    2    1    2    0    0  0.10257511357E+02 -0.61389606533E+01 -0.33054120542E+03  0.35358149807E+03  0.12497793376E+03 0.  0.
          5    1    3    3  502    0 -0.36477050994E+02 -0.46217934630E+02 -0.19043463172E+03  0.19938433161E+03  0.47000000000E+01 0. -1.
         -5    1    3    3    0  502  0.26219539637E+02  0.52356895284E+02 -0.85006990214E+02  0.10332950754E+03  0.47000000000E+01 0. -1.
          5    1    4    4  503    0  0.57940319009E+01 -0.16267345441E+02  0.43959488755E+01  0.18428556641E+02  0.47000000000E+01 0. -1.
         -5    1    4    4    0  503  0.44634794560E+01  0.10128384788E+02 -0.33493715429E+03  0.33515294143E+03  0.47000000000E+01 0. -1.
<mgrwt>
<rscale>  0 0.12556386E+03</rscale>
<asrwt>0</asrwt>
<pdfrwt beam="2">  1        5 0.97098308E-01 0.12556903E+03</pdfrwt>
<pdfrwt beam="1">  1       -5 0.38701935E-02 0.12556903E+03</pdfrwt>
<totfact> 0.23799613E+02</totfact>
</mgrwt>
</event>
<event>
 8    1  0.1865596E-007  0.1257118E+03  0.7546771E-02  0.1233961E+00
          5   -1    0    0  501    0  0.00000000000E+00  0.00000000000E+00  0.82149873103E+03  0.82151217586E+03  0.47000000000E+01 0. -1.
         -5   -1    0    0    0  501 -0.00000000000E+00 -0.00000000000E+00 -0.20316663760E+02  0.20853221006E+02  0.47000000000E+01 0. -1.
         25    2    1    2    0    0  0.10142770088E+02  0.86143035797E+01  0.29231501457E+03  0.31820045745E+03  0.12500552535E+03 0.  0.
         25    2    1    2    0    0 -0.10142770088E+02 -0.86143035797E+01  0.50886705271E+03  0.52416493942E+03  0.12500449742E+03 0.  0.
          5    1    4    4  502    0 -0.42521121774E+02 -0.53565524973E+02  0.32128632582E+03  0.32851834716E+03  0.47000000000E+01 0.  1.
         -5    1    4    4    0  502  0.32378351686E+02  0.44951221393E+02  0.18758072689E+03  0.19564659226E+03  0.47000000000E+01 0.  1.
          5    1    3    3  503    0  0.46803172535E+02  0.41837566655E+02  0.89742827754E+02  0.10962109321E+03  0.47000000000E+01 0.  1.
         -5    1    3    3    0  503 -0.36660402447E+02 -0.33223263076E+02  0.20257218681E+03  0.20857936424E+03  0.47000000000E+01 0.  1.
<mgrwt>
<rscale>  0 0.12571157E+03</rscale>
<asrwt>0</asrwt>
<pdfrwt beam="1">  1        5 0.12642672E+00 0.12571183E+03</pdfrwt>
<pdfrwt beam="2">  1       -5 0.31679486E-02 0.12571183E+03</pdfrwt>
<totfact> 0.17084525E+02</totfact>
</mgrwt>
</event>
<event>
 8    1  0.1865596E-007  0.1349700E+03  0.7546771E-02  0.1220264E+00
          5   -1    0    0  501    0  0.00000000000E+00  0.00000000000E+00  0.11637538493E+04  0.11637633401E+04  0.47000000000E+01 0. -1.
         -5   -1    0    0    0  501 -0.00000000000E+00 -0.00000000000E+00 -0.15869497981E+02  0.16550859983E+02  0.47000000000E+01 0. -1.
         25    2    1    2    0    0  0.38488231732E+01  0.50753767707E+02  0.46363961846E+03  0.48288568486E+03  0.12500452178E+03 0.  0.
         25    2    1    2    0    0 -0.38488231732E+01 -0.50753767707E+02  0.68424473287E+03  0.69742851523E+03  0.12499968408E+03 0.  0.
          5    1    4    4  502    0 -0.11192254369E+02 -0.17684276472E+02  0.12525116024E+02  0.24838855119E+02  0.47000000000E+01 0.  1.
         -5    1    4    4    0  502  0.73434311960E+01 -0.33069491235E+02  0.67171961685E+03  0.67258966011E+03  0.47000000000E+01 0.  1.
          5    1    3    3  503    0 -0.10628394417E+02 -0.35825727842E+02  0.69370713041E+02  0.78935615352E+02  0.47000000000E+01 0.  1.
         -5    1    3    3    0  503  0.14477217590E+02  0.86579495549E+02  0.39426890542E+03  0.40395006951E+03  0.47000000000E+01 0.  1.
<mgrwt>
<rscale>  0 0.13496884E+03</rscale>
<asrwt>0</asrwt>
<pdfrwt beam="1">  1        5 0.17909220E+00 0.13496996E+03</pdfrwt>
<pdfrwt beam="2">  1       -5 0.24946037E-02 0.13496996E+03</pdfrwt>
<totfact> 0.99003975E+01</totfact>
</mgrwt>
</event>
<event>
 8    1  0.1865596E-007  0.1324060E+03  0.7546771E-02  0.1223930E+00
          5   -1    0    0  501    0  0.00000000000E+00  0.00000000000E+00  0.23672990302E+03  0.23677655497E+03  0.47000000000E+01 0. -1.
         -5   -1    0    0    0  501 -0.00000000000E+00 -0.00000000000E+00 -0.83329504735E+02  0.83461945576E+02  0.47000000000E+01 0. -1.
         25    2    1    2    0    0 -0.43550058987E+02  0.28301402861E+01  0.22972120469E+02  0.13438404980E+03  0.12500694857E+03 0.  0.
         25    2    1    2    0    0  0.43550058987E+02 -0.28301402861E+01  0.13042827782E+03  0.18585445075E+03  0.12500289547E+03 0.  0.
          5    1    4    4  502    0 -0.43450727000E+02  0.28317350694E+01  0.56235111883E+02  0.71277361124E+02  0.47000000000E+01 0. -1.
         -5    1    4    4    0  502  0.87000785987E+02 -0.56618753554E+01  0.74193165937E+02  0.11457708962E+03  0.47000000000E+01 0. -1.
          5    1    3    3  503    0 -0.62323902324E+02  0.61646722558E+01  0.63522905960E+02  0.89328167822E+02  0.47000000000E+01 0. -1.
         -5    1    3    3    0  503  0.18773843337E+02 -0.33345319697E+01 -0.40550785491E+02  0.45055881981E+02  0.47000000000E+01 0. -1.
<mgrwt>
<rscale>  0 0.13240506E+03</rscale>
<asrwt>0</asrwt>
<pdfrwt beam="1">  1        5 0.36433762E-01 0.13240602E+03</pdfrwt>
<pdfrwt beam="2">  1       -5 0.12833700E-01 0.13240602E+03</pdfrwt>
<totfact> 0.27066346E+02</totfact>
</mgrwt>
</event>
<event>
 8    1  0.1865596E-007  0.1259555E+03  0.7546771E-02  0.1233586E+00
          5   -1    0    0  501    0  0.00000000000E+00  0.00000000000E+00  0.96815894763E+02  0.96929910135E+02  0.47000000000E+01 0. -1.
         -5   -1    0    0    0  501 -0.00000000000E+00 -0.00000000000E+00 -0.18962850923E+03  0.18968674575E+03  0.47000000000E+01 0. -1.
         25    2    1    2    0    0  0.14063438886E+02 -0.64524710670E+01 -0.99461205941E+02  0.16048579726E+03  0.12499497966E+03 0.  0.
         25    2    1    2    0    0 -0.14063438886E+02  0.64524710670E+01  0.66485914706E+01  0.12613085862E+03  0.12500150012E+03 0.  0.
          5    1    4    4  502    0  0.31669900659E+02  0.21302236048E+02  0.48719139270E+02  0.62067804855E+02  0.47000000000E+01 0.  1.
         -5    1    4    4    0  502 -0.45733339545E+02 -0.14849764981E+02 -0.42070547799E+02  0.64063053768E+02  0.47000000000E+01 0.  1.
          5    1    3    3  503    0 -0.11546222080E+02 -0.31896908197E+02  0.17166546506E+02  0.38308071158E+02  0.47000000000E+01 0.  1.
         -5    1    3    3    0  503  0.25609660967E+02  0.25444437130E+02 -0.11662775245E+03  0.12217772611E+03  0.47000000000E+01 0.  1.
<mgrwt>
<rscale>  0 0.12595389E+03</rscale>
<asrwt>0</asrwt>
<pdfrwt beam="1">  1        5 0.14908003E-01 0.12595551E+03</pdfrwt>
<pdfrwt beam="2">  1       -5 0.29186867E-01 0.12595551E+03</pdfrwt>
<totfact> 0.31532694E+02</totfact>
</mgrwt>
</event>
<event>
 8    1  0.1865596E-007  0.1250752E+03  0.7546771E-02  0.1234952E+00
          5   -1    0    0  501    0  0.00000000000E+00  0.00000000000E+00  0.28353105749E+02  0.28740017496E+02  0.47000000000E+01 0. -1.
         -5   -1    0    0    0  501 -0.00000000000E+00 -0.00000000000E+00 -0.83500359163E+03  0.83501681901E+03  0.47000000000E+01 0. -1.
         25    2    1    2    0    0 -0.37500937346E+01 -0.21070211833E+01 -0.65663662011E+03  0.66844256646E+03  0.12500124418E+03 0.  0.
         25    2    1    2    0    0  0.37500937346E+01  0.21070211833E+01 -0.15001386577E+03  0.19531427005E+03  0.12500000568E+03 0.  0.
          5    1    3    3  502    0 -0.57877268494E+02 -0.28415550697E+02 -0.35009059744E+03  0.35600946356E+03  0.47000000000E+01 0. -1.
         -5    1    3    3    0  502  0.54127174759E+02  0.26308529513E+02 -0.30654602267E+03  0.31243310290E+03  0.47000000000E+01 0. -1.
          5    1    4    4  503    0  0.11976644258E+02 -0.60178578601E+02 -0.83141651317E+02  0.10343851079E+03  0.47000000000E+01 0. -1.
         -5    1    4    4    0  503 -0.82265505231E+01  0.62285599784E+02 -0.66872214456E+02  0.91875759263E+02  0.47000000000E+01 0. -1.
<mgrwt>
<rscale>  0 0.12507492E+03</rscale>
<asrwt>0</asrwt>
<pdfrwt beam="1">  1        5 0.43927968E-02 0.12507523E+03</pdfrwt>
<pdfrwt beam="2">  1       -5 0.12849285E+00 0.12507523E+03</pdfrwt>
<totfact> 0.95974133E+01</totfact>
</mgrwt>
</event>
<event>
 8    1  0.1865596E-007  0.1319070E+03  0.7546771E-02  0.1224664E+00
         -5   -1    0    0    0  501 -0.00000000000E+00  0.00000000000E+00  0.49358675801E+02  0.49581941035E+02  0.47000000000E+01 0. -1.
          5   -1    0    0  501    0  0.00000000000E+00 -0.00000000000E+00 -0.35140707364E+03  0.35143850302E+03  0.47000000000E+01 0. -1.
         25    2    1    2    0    0 -0.41802732230E+02  0.43069913306E+01 -0.15204679401E+03  0.20129007049E+03  0.12503378068E+03 0.  0.
         25    2    1    2    0    0  0.41802732230E+02 -0.43069913306E+01 -0.15000160383E+03  0.19973037356E+03  0.12500288948E+03 0.  0.
          5    1    4    4  502    0  0.79595556044E+02  0.21628434875E+02 -0.11624291885E+03  0.14261047620E+03  0.47000000000E+01 0. -1.
         -5    1    4    4    0  502 -0.37792823814E+02 -0.25935426205E+02 -0.33758684972E+02  0.57119897368E+02  0.47000000000E+01 0. -1.
          5    1    3    3  503    0  0.81209334872E+00  0.60428212598E+02 -0.60204024542E+02  0.85433266029E+02  0.47000000000E+01 0. -1.
         -5    1    3    3    0  503 -0.42614825579E+02 -0.56121221268E+02 -0.91842769471E+02  0.11585680446E+03  0.47000000000E+01 0. -1.
<mgrwt>
<rscale>  0 0.13189971E+03</rscale>
<asrwt>0</asrwt>
<pdfrwt beam="2">  1        5 0.54082217E-01 0.13190703E+03</pdfrwt>
<pdfrwt beam="1">  1       -5 0.76132345E-02 0.13190703E+03</pdfrwt>
<totfact> 0.29550856E+02</totfact>
</mgrwt>
</event>
<event>
 8    1  0.1865596E-007  0.1290302E+03  0.7546771E-02  0.1228903E+00
          5   -1    0    0  501    0  0.00000000000E+00  0.00000000000E+00  0.13014036174E+02  0.13836731462E+02  0.47000000000E+01 0.  1.
         -5   -1    0    0    0  501 -0.00000000000E+00 -0.00000000000E+00 -0.15315661940E+04  0.15315734056E+04  0.47000000000E+01 0.  1.
         25    2    1    2    0    0  0.89635879091E+01  0.30725363501E+02 -0.10967662649E+04  0.11043301235E+04  0.12499755207E+03 0.  0.
         25    2    1    2    0    0 -0.89635879091E+01 -0.30725363501E+02 -0.42178589294E+03  0.44108001351E+03  0.12499537977E+03 0.  0.
          5    1    3    3  502    0  0.22623478031E+02  0.56121182339E+02 -0.10256769778E+04  0.10274710515E+04  0.47000000000E+01 0.  1.
         -5    1    3    3    0  502 -0.13659890122E+02 -0.25395818839E+02 -0.71089287086E+02  0.76859072015E+02  0.47000000000E+01 0.  1.
          5    1    4    4  503    0 -0.13068865186E+01  0.47682970633E+02 -0.20023625019E+03  0.20589322362E+03  0.47000000000E+01 0.  1.
         -5    1    4    4    0  503 -0.76567013905E+01 -0.78408334134E+02 -0.22154964275E+03  0.23518678989E+03  0.47000000000E+01 0.  1.
<mgrwt>
<rscale>  0 0.12902963E+03</rscale>
<asrwt>0</asrwt>
<pdfrwt beam="1">  1        5 0.20659996E-02 0.12903016E+03</pdfrwt>
<pdfrwt beam="2">  1       -5 0.23568927E+00 0.12903016E+03</pdfrwt>
<totfact> 0.55232003E+01</totfact>
</mgrwt>
</event>
<event>
 8    1  0.1865596E-007  0.1288297E+03  0.7546771E-02  0.1229203E+00
          5   -1    0    0  501    0  0.00000000000E+00  0.00000000000E+00  0.20956897873E+04  0.20956950576E+04  0.47000000000E+01 0. -1.
         -5   -1    0    0    0  501 -0.00000000000E+00 -0.00000000000E+00 -0.12759815690E+02  0.13597900442E+02  0.47000000000E+01 0. -1.
         25    2    1    2    0    0  0.18212788923E+01  0.31129354968E+02  0.37501582419E+03  0.39652682381E+03  0.12499719921E+03 0.  0.
         25    2    1    2    0    0 -0.18212788923E+01 -0.31129354968E+02  0.17079141474E+04  0.17127661342E+04  0.12499896776E+03 0.  0.
          5    1    3    3  502    0 -0.40178144615E+02  0.20734480360E+01  0.37701876662E+02  0.55336281004E+02  0.47000000000E+01 0.  1.
         -5    1    3    3    0  502  0.41999423508E+02  0.29055906931E+02  0.33731394753E+03  0.34119054281E+03  0.47000000000E+01 0.  1.
          5    1    4    4  503    0 -0.61413179819E+02 -0.29757594653E+02  0.99532556361E+03  0.99767337374E+03  0.47000000000E+01 0. -1.
         -5    1    4    4    0  503  0.59591900927E+02 -0.13717603148E+01  0.71258858378E+03  0.71509276049E+03  0.47000000000E+01 0. -1.
<mgrwt>
<rscale>  0 0.12882929E+03</rscale>
<asrwt>0</asrwt>
<pdfrwt beam="1">  1        5 0.32247844E+00 0.12882972E+03</pdfrwt>
<pdfrwt beam="2">  1       -5 0.20279236E-02 0.12882972E+03</pdfrwt>
<totfact> 0.16115108E+01</totfact>
</mgrwt>
</event>
<event>
 8    1  0.1865596E-007  0.1590400E+03  0.7546771E-02  0.1189787E+00
         -5   -1    0    0    0  501 -0.00000000000E+00  0.00000000000E+00  0.23578204216E+03  0.23582888161E+03  0.47000000000E+01 0. -1.
          5   -1    0    0  501    0  0.00000000000E+00 -0.00000000000E+00 -0.11512450173E+03  0.11522040140E+03  0.47000000000E+01 0. -1.
         25    2    1    2    0    0  0.97197006962E+02 -0.14764253020E+02  0.10646150183E+03  0.19138381453E+03  0.12501388629E+03 0.  0.
         25    2    1    2    0    0 -0.97197006962E+02  0.14764253020E+02  0.14196038600E+02  0.15966546848E+03  0.12500517183E+03 0.  0.
          5    1    3    3  502    0  0.30309407234E+02  0.54039251107E+02  0.51472748563E+02  0.80687264619E+02  0.47000000000E+01 0. -1.
         -5    1    3    3    0  502  0.66887599728E+02 -0.68803504127E+02  0.54988753262E+02  0.11069654991E+03  0.47000000000E+01 0. -1.
          5    1    4    4  503    0 -0.76816008771E+02  0.16662291485E+02 -0.49221331053E+02  0.92860974536E+02  0.47000000000E+01 0.  1.
         -5    1    4    4    0  503 -0.20380998191E+02 -0.18980384649E+01  0.63417369653E+02  0.66804493943E+02  0.47000000000E+01 0.  1.
<mgrwt>
<rscale>  0 0.15903826E+03</rscale>
<asrwt>0</asrwt>
<pdfrwt beam="2">  1        5 0.17722442E-01 0.15903997E+03</pdfrwt>
<pdfrwt beam="1">  1       -5 0.36285140E-01 0.15903997E+03</pdfrwt>
<totfact> 0.16154550E+02</totfact>
</mgrwt>
</event>
<event>
 8    1  0.1865596E-007  0.1483342E+03  0.7546771E-02  0.1202537E+00
          5   -1    0    0  501    0  0.00000000000E+00  0.00000000000E+00  0.40067882819E+03  0.40070639296E+03  0.47000000000E+01 0. -1.
         -5   -1    0    0    0  501 -0.00000000000E+00 -0.00000000000E+00 -0.54942784844E+02  0.55143445724E+02  0.47000000000E+01 0. -1.
         25    2    1    2    0    0  0.57320230752E+02 -0.55605901446E+02  0.16056920581E+03  0.21859895401E+03  0.12500163083E+03 0.  0.
         25    2    1    2    0    0 -0.57320230752E+02  0.55605901446E+02  0.18516683754E+03  0.23725088468E+03  0.12499439758E+03 0.  0.
          5    1    3    3  502    0 -0.14138580137E+02 -0.61961458318E+02  0.32040424659E+02  0.71328820105E+02  0.47000000000E+01 0. -1.
         -5    1    3    3    0  502  0.71458810889E+02  0.63555568716E+01  0.12852878115E+03  0.14727013391E+03  0.47000000000E+01 0. -1.
          5    1    4    4  503    0  0.35317623220E+02  0.15194871949E+02  0.91549507178E+02  0.99406342393E+02  0.47000000000E+01 0.  1.
         -5    1    4    4    0  503 -0.92637853972E+02  0.40411029498E+02  0.93617330362E+02  0.13784454228E+03  0.47000000000E+01 0.  1.
<mgrwt>
<rscale>  0 0.14833267E+03</rscale>
<asrwt>0</asrwt>
<pdfrwt beam="1">  1        5 0.61660450E-01 0.14833419E+03</pdfrwt>
<pdfrwt beam="2">  1       -5 0.84702922E-02 0.14833419E+03</pdfrwt>
<totfact> 0.19249807E+02</totfact>
</mgrwt>
</event>
<event>
 8    1  0.1865596E-007  0.1381038E+03  0.7546771E-02  0.1215904E+00
          5   -1    0    0  501    0  0.00000000000E+00  0.00000000000E+00  0.36666899794E+03  0.36669911924E+03  0.47000000000E+01 0.  1.
         -5   -1    0    0    0  501 -0.00000000000E+00 -0.00000000000E+00 -0.57802597860E+02  0.57993364443E+02  0.47000000000E+01 0.  1.
         25    2    1    2    0    0  0.57241400825E+02  0.13085397773E+02  0.86581616458E+02  0.16300013710E+03  0.12499945113E+03 0.  0.
         25    2    1    2    0    0 -0.57241400825E+02 -0.13085397773E+02  0.22228478363E+03  0.26169234659E+03  0.12499821450E+03 0.  0.
          5    1    3    3  502    0  0.92961423061E+02 -0.10965056385E+02  0.49577016811E+02  0.10602843597E+03  0.47000000000E+01 0.  1.
         -5    1    3    3    0  502 -0.35720022237E+02  0.24050454159E+02  0.37004599648E+02  0.56971701123E+02  0.47000000000E+01 0.  1.
          5    1    4    4  503    0  0.14414399334E+01  0.38784585436E+02  0.18355213405E+02  0.43189416246E+02  0.47000000000E+01 0. -1.
         -5    1    4    4    0  503 -0.58682840758E+02 -0.51869983210E+02  0.20392957022E+03  0.21850293034E+03  0.47000000000E+01 0. -1.
<mgrwt>
<rscale>  0 0.13810355E+03</rscale>
<asrwt>0</asrwt>
<pdfrwt beam="1">  1        5 0.56427605E-01 0.13810383E+03</pdfrwt>
<pdfrwt beam="2">  1       -5 0.89096990E-02 0.13810383E+03</pdfrwt>
<totfact> 0.20908498E+02</totfact>
</mgrwt>
</event>
<event>
 8    1  0.1865596E-007  0.1290158E+03  0.7546771E-02  0.1228944E+00
         -5   -1    0    0    0  501 -0.00000000000E+00  0.00000000000E+00  0.64771692729E+03  0.64773397927E+03  0.47000000000E+01 0.  1.
          5   -1    0    0  501    0  0.00000000000E+00 -0.00000000000E+00 -0.36323410737E+02  0.36626222404E+02  0.47000000000E+01 0.  1.
         25    2    1    2    0    0 -0.25533824541E+02  0.19185940844E+02  0.49184738499E+03  0.50847287937E+03  0.12494295664E+03 0.  0.
         25    2    1    2    0    0  0.25533824541E+02 -0.19185940844E+02  0.11954613156E+03  0.17588732230E+03  0.12499998421E+03 0.  0.
          5    1    3    3  502    0  0.37868053429E+02  0.45051059817E+02  0.26350710108E+03  0.27004012624E+03  0.47000000000E+01 0.  1.
         -5    1    3    3    0  502 -0.63401877971E+02 -0.25865118973E+02  0.22834028391E+03  0.23843275313E+03  0.47000000000E+01 0.  1.
          5    1    4    4  503    0  0.53456894782E+02 -0.36268997512E+02  0.15343079986E+02  0.66562601240E+02  0.47000000000E+01 0.  1.
         -5    1    4    4    0  503 -0.27923070241E+02  0.17083056669E+02  0.10420305158E+03  0.10932472106E+03  0.47000000000E+01 0.  1.
<mgrwt>
<rscale>  0 0.12900197E+03</rscale>
<asrwt>0</asrwt>
<pdfrwt beam="2">  1        5 0.56128223E-02 0.12901578E+03</pdfrwt>
<pdfrwt beam="1">  1       -5 0.99673356E-01 0.12901578E+03</pdfrwt>
<totfact> 0.12203736E+02</totfact>
</mgrwt>
</event>
<event>
 8    1  0.1865596E-007  0.1397025E+03  0.7546771E-02  0.1213730E+00
          5   -1    0    0  501    0  0.00000000000E+00  0.00000000000E+00  0.14982123069E+03  0.14989493375E+03  0.47000000000E+01 0.  1.
         -5   -1    0    0    0  501 -0.00000000000E+00 -0.00000000000E+00 -0.13014564685E+03  0.13023048565E+03  0.47000000000E+01 0.  1.
         25    2    1    2    0    0  0.39084430435E+02  0.48618307078E+02  0.77740193887E+01  0.13991864584E+03  0.12500183835E+03 0.  0.
         25    2    1    2    0    0 -0.39084430435E+02 -0.48618307078E+02  0.11901564450E+02  0.14020677357E+03  0.12499983853E+03 0.  0.
          5    1    3    3  502    0  0.81233557174E+02  0.13749161485E+02 -0.76835518008E+01  0.82879775705E+02  0.47000000000E+01 0.  1.
         -5    1    3    3    0  502 -0.42149126739E+02  0.34869145594E+02  0.15457571189E+02  0.57038870136E+02  0.47000000000E+01 0.  1.
          5    1    4    4  503    0  0.45317807881E+02 -0.99225027144E+01  0.65186167315E+01  0.47082291101E+02  0.47000000000E+01 0.  1.
         -5    1    4    4    0  503 -0.84402238316E+02 -0.38695804364E+02  0.53829477190E+01  0.93124482464E+02  0.47000000000E+01 0.  1.
<mgrwt>
<rscale>  0 0.13970207E+03</rscale>
<asrwt>0</asrwt>
<pdfrwt beam="1">  1        5 0.23061616E-01 0.13970251E+03</pdfrwt>
<pdfrwt beam="2">  1       -5 0.20034603E-01 0.13970251E+03</pdfrwt>
<totfact> 0.29915429E+02</totfact>
</mgrwt>
</event>
<event>
 8    1  0.1865596E-007  0.1383523E+03  0.7546771E-02  0.1215567E+00
         -5   -1    0    0    0  501 -0.00000000000E+00  0.00000000000E+00  0.88787537868E+02  0.88911848932E+02  0.47000000000E+01 0.  1.
          5   -1    0    0  501    0  0.00000000000E+00 -0.00000000000E+00 -0.21921378755E+03  0.21926416636E+03  0.47000000000E+01 0.  1.
         25    2    1    2    0    0 -0.59249512759E+02 -0.21339148266E+01 -0.85871692754E+02  0.16282659098E+03  0.12499397090E+03 0.  0.
         25    2    1    2    0    0  0.59249512759E+02  0.21339148266E+01 -0.44554556924E+02  0.14534942431E+03  0.12500515289E+03 0.  0.
          5    1    3    3  502    0 -0.16938763063E+02  0.13533514037E+02 -0.10946841970E+03  0.11169378948E+03  0.47000000000E+01 0.  1.
         -5    1    3    3    0  502 -0.42310749696E+02 -0.15667428863E+02  0.23596726949E+02  0.51132801504E+02  0.47000000000E+01 0.  1.
          5    1    4    4  503    0 -0.19038372233E+02 -0.18459489409E+02  0.26317598799E+02  0.37655256912E+02  0.47000000000E+01 0. -1.
         -5    1    4    4    0  503  0.78287884992E+02  0.20593404236E+02 -0.70872155724E+02  0.10769416740E+03  0.47000000000E+01 0. -1.
<mgrwt>
<rscale>  0 0.13834973E+03</rscale>
<asrwt>0</asrwt>
<pdfrwt beam="2">  1        5 0.33738636E-01 0.13835226E+03</pdfrwt>
<pdfrwt beam="1">  1       -5 0.13673059E-01 0.13835226E+03</pdfrwt>
<totfact> 0.28619820E+02</totfact>
</mgrwt>
</event>
<event>
 8    1  0.1865596E-007  0.1333353E+03  0.7546771E-02  0.1222589E+00
          5   -1    0    0  501    0  0.00000000000E+00  0.00000000000E+00  0.39716127927E+03  0.39718908816E+03  0.47000000000E+01 0.  1.
         -5   -1    0    0    0  501 -0.00000000000E+00 -0.00000000000E+00 -0.53846926471E+02  0.54051655760E+02  0.47000000000E+01 0.  1.
         25    2    1    2    0    0 -0.38463324249E+02 -0.25963580056E+02  0.78432708270E+02  0.15469294030E+03  0.12499872499E+03 0.  0.
         25    2    1    2    0    0  0.38463324249E+02  0.25963580056E+02  0.26488164453E+03  0.29654780362E+03  0.12499911769E+03 0.  0.
          5    1    4    4  502    0 -0.37491868222E+01 -0.26028191493E+02  0.20454965079E+03  0.20628662776E+03  0.47000000000E+01 0. -1.
         -5    1    4    4    0  502  0.42212511071E+02  0.51991771549E+02  0.60331993743E+02  0.90261175867E+02  0.47000000000E+01 0. -1.
          5    1    3    3  503    0 -0.24087535096E+02 -0.75861864684E+02  0.58418354261E+02  0.98843441739E+02  0.47000000000E+01 0.  1.
         -5    1    3    3    0  503 -0.14375789153E+02  0.49898284627E+02  0.20014354009E+02  0.55849498556E+02  0.47000000000E+01 0.  1.
<mgrwt>
<rscale>  0 0.13333525E+03</rscale>
<asrwt>0</asrwt>
<pdfrwt beam="1">  1        5 0.61119626E-01 0.13333534E+03</pdfrwt>
<pdfrwt beam="2">  1       -5 0.83020296E-02 0.13333534E+03</pdfrwt>
<totfact> 0.19610604E+02</totfact>
</mgrwt>
</event>
<event>
 8    1  0.1865596E-007  0.1281036E+03  0.7546771E-02  0.1230297E+00
          5   -1    0    0  501    0  0.00000000000E+00  0.00000000000E+00  0.31715398121E+03  0.31718880466E+03  0.47000000000E+01 0.  1.
         -5   -1    0    0    0  501 -0.00000000000E+00 -0.00000000000E+00 -0.51798806545E+02  0.52011598317E+02  0.47000000000E+01 0.  1.
         25    2    1    2    0    0  0.12164552076E+02 -0.25267940872E+02  0.12121815131E+03  0.17636362559E+03  0.12499537217E+03 0.  0.
         25    2    1    2    0    0 -0.12164552076E+02  0.25267940872E+02  0.14413702336E+03  0.19283677738E+03  0.12499638412E+03 0.  0.
          5    1    4    4  502    0  0.30488705539E+02  0.61241081556E+02  0.10133884723E+03  0.12235882965E+03  0.47000000000E+01 0.  1.
         -5    1    4    4    0  502 -0.42653257615E+02 -0.35973140683E+02  0.42798176132E+02  0.70477947729E+02  0.47000000000E+01 0.  1.
          5    1    3    3  503    0 -0.46367888799E+02 -0.23262604037E+02  0.10202577773E+03  0.11455339008E+03  0.47000000000E+01 0.  1.
         -5    1    3    3    0  503  0.58532440876E+02 -0.20053368353E+01  0.19192373579E+02  0.61810235514E+02  0.47000000000E+01 0.  1.
<mgrwt>
<rscale>  0 0.12810339E+03</rscale>
<asrwt>0</asrwt>
<pdfrwt beam="1">  1        5 0.48811967E-01 0.12810363E+03</pdfrwt>
<pdfrwt beam="2">  1       -5 0.79880945E-02 0.12810363E+03</pdfrwt>
<totfact> 0.33494169E+02</totfact>
</mgrwt>
</event>
<event>
 8    1  0.1865596E-007  0.1388598E+03  0.7546771E-02  0.1214872E+00
          5   -1    0    0  501    0  0.00000000000E+00  0.00000000000E+00  0.59897845032E+03  0.59899688977E+03  0.47000000000E+01 0.  1.
         -5   -1    0    0    0  501 -0.00000000000E+00 -0.00000000000E+00 -0.32004377457E+02  0.32347645608E+02  0.47000000000E+01 0.  1.
         25    2    1    2    0    0  0.22770385020E+02  0.56016155338E+02  0.27997603445E+03  0.31251869831E+03  0.12500022734E+03 0.  0.
         25    2    1    2    0    0 -0.22770385020E+02 -0.56016155338E+02  0.28699803842E+03  0.31882583706E+03  0.12500296089E+03 0.  0.
          5    1    4    4  502    0  0.14018679722E+02 -0.66580814104E+01 -0.75427315900E+01  0.17883965697E+02  0.47000000000E+01 0. -1.
         -5    1    4    4    0  502 -0.36789064742E+02 -0.49358073928E+02  0.29454077001E+03  0.30094187137E+03  0.47000000000E+01 0. -1.
          5    1    3    3  503    0  0.71321483960E+02  0.51357709315E+02  0.15444305663E+03  0.17776140223E+03  0.47000000000E+01 0. -1.
         -5    1    3    3    0  503 -0.48551098940E+02  0.46584460234E+01  0.12553297782E+03  0.13475729608E+03  0.47000000000E+01 0. -1.
<mgrwt>
<rscale>  0 0.13885917E+03</rscale>
<asrwt>0</asrwt>
<pdfrwt beam="1">  1        5 0.92178363E-01 0.13885979E+03</pdfrwt>
<pdfrwt beam="2">  1       -5 0.49515736E-02 0.13885979E+03</pdfrwt>
<totfact> 0.18596486E+02</totfact>
</mgrwt>
</event>
<event>
 8    1  0.1865596E-007  0.1646216E+03  0.7546771E-02  0.1183582E+00
          5   -1    0    0  501    0  0.00000000000E+00  0.00000000000E+00  0.16440179894E+02  0.17098816185E+02  0.47000000000E+01 0. -1.
         -5   -1    0    0    0  501 -0.00000000000E+00 -0.00000000000E+00 -0.16722204458E+04  0.16722270508E+04  0.47000000000E+01 0. -1.
         25    2    1    2    0    0  0.10584634948E+03  0.16227891299E+02 -0.98395556254E+03  0.99763160220E+03  0.12503387742E+03 0.  0.
         25    2    1    2    0    0 -0.10584634948E+03 -0.16227891299E+02 -0.67182470337E+03  0.69169426477E+03  0.12500291876E+03 0.  0.
          5    1    4    4  502    0 -0.15624693307E+02 -0.29278668661E+02 -0.35377048329E+02  0.48733941232E+02  0.47000000000E+01 0. -1.
         -5    1    4    4    0  502 -0.90221656169E+02  0.13050777362E+02 -0.63644765504E+03  0.64296032354E+03  0.47000000000E+01 0. -1.
          5    1    3    3  503    0  0.10107771857E+03 -0.59624235084E+01 -0.38167632683E+03  0.39490652583E+03  0.47000000000E+01 0.  1.
         -5    1    3    3    0  503  0.47686309070E+01  0.22190314807E+02 -0.60227923571E+03  0.60272507637E+03  0.47000000000E+01 0.  1.
<mgrwt>
<rscale>  0 0.16461570E+03</rscale>
<asrwt>0</asrwt>
<pdfrwt beam="1">  1        5 0.25804322E-02 0.16462158E+03</pdfrwt>
<pdfrwt beam="2">  1       -5 0.25731573E+00 0.16462158E+03</pdfrwt>
<totfact> 0.30065608E+01</totfact>
</mgrwt>
</event>
<event>
 8    1  0.1865596E-007  0.1361161E+03  0.7546771E-02  0.1218653E+00
          5   -1    0    0  501    0  0.00000000000E+00  0.00000000000E+00  0.15890039871E+03  0.15896989246E+03  0.47000000000E+01 0.  1.
         -5   -1    0    0    0  501 -0.00000000000E+00 -0.00000000000E+00 -0.11661529528E+03  0.11670996999E+03  0.47000000000E+01 0.  1.
         25    2    1    2    0    0  0.13925937658E+02 -0.52052000899E+02  0.26229798857E+02  0.13862018631E+03  0.12499684462E+03 0.  0.
         25    2    1    2    0    0 -0.13925937658E+02  0.52052000899E+02  0.16055304566E+02  0.13705967614E+03  0.12499695789E+03 0.  0.
          5    1    3    3  502    0  0.56616420671E+02 -0.25662511304E+01  0.42631851005E+02  0.71074393804E+02  0.47000000000E+01 0. -1.
         -5    1    3    3    0  502 -0.42690483012E+02 -0.49485749769E+02 -0.16402052148E+02  0.67545792502E+02  0.47000000000E+01 0. -1.
          5    1    4    4  503    0  0.14558856858E+02 -0.30104928380E+00  0.60601286777E+02  0.62503255137E+02  0.47000000000E+01 0.  1.
         -5    1    4    4    0  503 -0.28484794516E+02  0.52353050183E+02 -0.44545982211E+02  0.74556421006E+02  0.47000000000E+01 0.  1.
<mgrwt>
<rscale>  0 0.13611603E+03</rscale>
<asrwt>0</asrwt>
<pdfrwt beam="1">  1        5 0.24458843E-01 0.13611606E+03</pdfrwt>
<pdfrwt beam="2">  1       -5 0.17953443E-01 0.13611606E+03</pdfrwt>
<totfact> 0.32489959E+02</totfact>
</mgrwt>
</event>
<event>
 8    1  0.1865596E-007  0.1620845E+03  0.7546771E-02  0.1186365E+00
          5   -1    0    0  501    0  0.00000000000E+00  0.00000000000E+00  0.68106338320E+03  0.68107960029E+03  0.47000000000E+01 0.  1.
         -5   -1    0    0    0  501 -0.00000000000E+00 -0.00000000000E+00 -0.38902625607E+02  0.39185511087E+02  0.47000000000E+01 0.  1.
         25    2    1    2    0    0 -0.82005128616E+02 -0.62608811215E+02  0.28082566612E+03  0.32424182480E+03  0.12500000734E+03 0.  0.
         25    2    1    2    0    0  0.82005128616E+02  0.62608811215E+02  0.36133509146E+03  0.39602328658E+03  0.12500676312E+03 0.  0.
          5    1    3    3  502    0 -0.44558376286E+01 -0.63296880589E+02  0.50707268853E+02  0.81361334156E+02  0.47000000000E+01 0.  1.
         -5    1    3    3    0  502 -0.77549290988E+02  0.68806937390E+00  0.23011839727E+03  0.24288049064E+03  0.47000000000E+01 0.  1.
          5    1    4    4  503    0  0.60688766571E+02  0.97695871494E+02  0.21388096458E+03  0.24288838322E+03  0.47000000000E+01 0.  1.
         -5    1    4    4    0  503  0.21316362046E+02 -0.35087060279E+02  0.14745412689E+03  0.15313490336E+03  0.47000000000E+01 0.  1.
<mgrwt>
<rscale>  0 0.16208323E+03</rscale>
<asrwt>0</asrwt>
<pdfrwt beam="1">  1        5 0.10480198E+00 0.16208453E+03</pdfrwt>
<pdfrwt beam="2">  1       -5 0.60080276E-02 0.16208453E+03</pdfrwt>
<totfact> 0.10346510E+02</totfact>
</mgrwt>
</event>
<event>
 8    1  0.1865596E-007  0.1291973E+03  0.7546771E-02  0.1228665E+00
          5   -1    0    0  501    0  0.00000000000E+00  0.00000000000E+00  0.40852129705E+02  0.41121606260E+02  0.47000000000E+01 0.  1.
         -5   -1    0    0    0  501 -0.00000000000E+00 -0.00000000000E+00 -0.52089337260E+03  0.52091457612E+03  0.47000000000E+01 0.  1.
         25    2    1    2    0    0 -0.25604701026E+02  0.20072699440E+02 -0.37149867963E+03  0.39332328823E+03  0.12503369993E+03 0.  0.
         25    2    1    2    0    0  0.25604701026E+02 -0.20072699440E+02 -0.10854256326E+03  0.16871289415E+03  0.12499615449E+03 0.  0.
          5    1    4    4  502    0  0.61173934153E+02 -0.50245053468E+02 -0.50143537870E+02  0.93825796069E+02  0.47000000000E+01 0.  1.
         -5    1    4    4    0  502 -0.35569233127E+02  0.30172354028E+02 -0.58399025389E+02  0.74887098083E+02  0.47000000000E+01 0.  1.
          5    1    3    3  503    0 -0.65095109455E+02 -0.19167489993E+02 -0.25804143903E+03  0.26685621635E+03  0.47000000000E+01 0. -1.
         -5    1    3    3    0  503  0.39490408429E+02  0.39240189433E+02 -0.11345724060E+03  0.12646707188E+03  0.47000000000E+01 0. -1.
<mgrwt>
<rscale>  0 0.12918821E+03</rscale>
<asrwt>0</asrwt>
<pdfrwt beam="1">  1        5 0.63073034E-02 0.12919729E+03</pdfrwt>
<pdfrwt beam="2">  1       -5 0.80159797E-01 0.12919729E+03</pdfrwt>
<totfact> 0.16810252E+02</totfact>
</mgrwt>
</event>
<event>
 8    1  0.1865596E-007  0.1780232E+03  0.7546771E-02  0.1169730E+00
          5   -1    0    0  501    0  0.00000000000E+00  0.00000000000E+00  0.27642925677E+03  0.27646920986E+03  0.47000000000E+01 0.  1.
         -5   -1    0    0    0  501 -0.00000000000E+00 -0.00000000000E+00 -0.13265652815E+03  0.13273976217E+03  0.47000000000E+01 0.  1.
         25    2    1    2    0    0 -0.12653151491E+03 -0.76260024387E+01 -0.36637240574E+01  0.17806015662E+03  0.12499446516E+03 0.  0.
         25    2    1    2    0    0  0.12653151491E+03  0.76260024387E+01  0.14743645268E+03  0.23114881541E+03  0.12499554835E+03 0.  0.
          5    1    4    4  502    0 -0.53928193797E+01 -0.35593141907E+02  0.48636287055E+02  0.60692113740E+02  0.47000000000E+01 0. -1.
         -5    1    4    4    0  502  0.13192433429E+03  0.43219144346E+02  0.98800165623E+02  0.17045670167E+03  0.47000000000E+01 0. -1.
          5    1    3    3  503    0 -0.77824842699E+02  0.53625838305E+02 -0.22851413542E+02  0.97348414347E+02  0.47000000000E+01 0. -1.
         -5    1    3    3    0  503 -0.48706672215E+02 -0.61251840743E+02  0.19187689485E+02  0.80711742271E+02  0.47000000000E+01 0. -1.
<mgrwt>
<rscale>  0 0.17802303E+03</rscale>
<asrwt>0</asrwt>
<pdfrwt beam="1">  1        5 0.42537054E-01 0.17802322E+03</pdfrwt>
<pdfrwt beam="2">  1       -5 0.20418173E-01 0.17802322E+03</pdfrwt>
<totfact> 0.92691911E+01</totfact>
</mgrwt>
</event>
<event>
 8    1  0.1865596E-007  0.1366593E+03  0.7546771E-02  0.1217896E+00
         -5   -1    0    0    0  501 -0.00000000000E+00  0.00000000000E+00  0.85412420874E+03  0.85413714002E+03  0.47000000000E+01 0.  1.
          5   -1    0    0  501    0  0.00000000000E+00 -0.00000000000E+00 -0.34255231327E+02  0.34576160476E+02  0.47000000000E+01 0.  1.
         25    2    1    2    0    0  0.53286274834E+02 -0.14547508541E+02  0.67836108661E+03  0.69198949115E+03  0.12499853978E+03 0.  0.
         25    2    1    2    0    0 -0.53286274834E+02  0.14547508541E+02  0.14150789080E+03  0.19672380934E+03  0.12499886764E+03 0.  0.
          5    1    3    3  502    0  0.62875985511E+02 -0.61087311492E+02  0.39549279051E+03  0.40511934849E+03  0.47000000000E+01 0. -1.
         -5    1    3    3    0  502 -0.95897106776E+01  0.46539802951E+02  0.28286829610E+03  0.28687014266E+03  0.47000000000E+01 0. -1.
          5    1    4    4  503    0 -0.69661081161E+02  0.52338414561E+02  0.61947788268E+02  0.10701212239E+03  0.47000000000E+01 0. -1.
         -5    1    4    4    0  503  0.16374806327E+02 -0.37790906020E+02  0.79560102536E+02  0.89711686951E+02  0.47000000000E+01 0. -1.
<mgrwt>
<rscale>  0 0.13665926E+03</rscale>
<asrwt>0</asrwt>
<pdfrwt beam="2">  1        5 0.52957172E-02 0.13665934E+03</pdfrwt>
<pdfrwt beam="1">  1       -5 0.13142940E+00 0.13665934E+03</pdfrwt>
<totfact> 0.68332809E+01</totfact>
</mgrwt>
</event>
<event>
 8    1  0.1865596E-007  0.1308597E+03  0.7546771E-02  0.1226188E+00
         -5   -1    0    0    0  501 -0.00000000000E+00  0.00000000000E+00  0.19652613198E+03  0.19658232513E+03  0.47000000000E+01 0.  1.
          5   -1    0    0  501    0  0.00000000000E+00 -0.00000000000E+00 -0.98185904177E+02  0.98298330500E+02  0.47000000000E+01 0.  1.
         25    2    1    2    0    0  0.38342760327E+02  0.54055071053E+01  0.98896634197E+02  0.16402683433E+03  0.12499948539E+03 0.  0.
         25    2    1    2    0    0 -0.38342760327E+02 -0.54055071053E+01 -0.55640639211E+00  0.13085382130E+03  0.12499210448E+03 0.  0.
          5    1    3    3  502    0  0.33205795153E+02  0.34644597902E+02 -0.11534606170E+02  0.49578323237E+02  0.47000000000E+01 0.  1.
         -5    1    3    3    0  502  0.51369651739E+01 -0.29239090797E+02  0.11043124037E+03  0.11444851109E+03  0.47000000000E+01 0.  1.
          5    1    4    4  503    0 -0.60991128543E+02 -0.47814964714E+02 -0.17629231601E+02  0.79618266864E+02  0.47000000000E+01 0.  1.
         -5    1    4    4    0  503  0.22648368216E+02  0.42409457608E+02  0.17072825209E+02  0.51235554433E+02  0.47000000000E+01 0.  1.
<mgrwt>
<rscale>  0 0.13085793E+03</rscale>
<asrwt>0</asrwt>
<pdfrwt beam="2">  1        5 0.15118495E-01 0.13085969E+03</pdfrwt>
<pdfrwt beam="1">  1       -5 0.30247760E-01 0.13085969E+03</pdfrwt>
<totfact> 0.29071129E+02</totfact>
</mgrwt>
</event>
<event>
 8    1  0.1865596E-007  0.1311914E+03  0.7546771E-02  0.1225701E+00
         -5   -1    0    0    0  501 -0.00000000000E+00  0.00000000000E+00  0.13184526354E+03  0.13192900939E+03  0.47000000000E+01 0.  1.
          5   -1    0    0  501    0  0.00000000000E+00 -0.00000000000E+00 -0.13614843340E+03  0.13622953394E+03  0.47000000000E+01 0.  1.
         25    2    1    2    0    0  0.36433913876E+02 -0.16080369528E+02  0.25464855411E+02  0.13363998741E+03  0.12500071604E+03 0.  0.
         25    2    1    2    0    0 -0.36433913876E+02  0.16080369528E+02 -0.29768025272E+02  0.13451855591E+03  0.12499239254E+03 0.  0.
          5    1    4    4  502    0 -0.26508931993E+02  0.38322535937E+02  0.39295381698E+02  0.61135564599E+02  0.47000000000E+01 0. -1.
         -5    1    4    4    0  502 -0.99249818835E+01 -0.22242166409E+02 -0.69063406970E+02  0.73382991315E+02  0.47000000000E+01 0. -1.
          5    1    3    3  503    0  0.61063049418E+02 -0.43347484155E+02 -0.17363162021E+02  0.77014737435E+02  0.47000000000E+01 0.  1.
         -5    1    3    3    0  503 -0.24629135541E+02  0.27267114627E+02  0.42828017432E+02  0.56625249975E+02  0.47000000000E+01 0.  1.
<mgrwt>
<rscale>  0 0.13118943E+03</rscale>
<asrwt>0</asrwt>
<pdfrwt beam="2">  1        5 0.20958593E-01 0.13119142E+03</pdfrwt>
<pdfrwt beam="1">  1       -5 0.20296567E-01 0.13119142E+03</pdfrwt>
<totfact> 0.34212984E+02</totfact>
</mgrwt>
</event>
<event>
 8    1  0.1865596E-007  0.2763105E+03  0.7546771E-02  0.1097721E+00
          5   -1    0    0  501    0  0.00000000000E+00  0.00000000000E+00  0.27741837288E+03  0.27745818354E+03  0.47000000000E+01 0. -1.
         -5   -1    0    0    0  501 -0.00000000000E+00 -0.00000000000E+00 -0.31226734172E+03  0.31230271005E+03  0.47000000000E+01 0. -1.
         25    2    1    2    0    0 -0.21106951923E+03  0.12717086668E+03 -0.11910909378E+03  0.30088945314E+03  0.12499886202E+03 0.  0.
         25    2    1    2    0    0  0.21106951923E+03 -0.12717086668E+03  0.84260124947E+02  0.28887144045E+03  0.12499667664E+03 0.  0.
          5    1    4    4  502    0  0.92526044957E+02 -0.47372423947E+02 -0.27236309134E+02  0.10755985348E+03  0.47000000000E+01 0. -1.
         -5    1    4    4    0  502  0.11854347427E+03 -0.79798442738E+02  0.11149643408E+03  0.18131158697E+03  0.47000000000E+01 0. -1.
          5    1    3    3  503    0 -0.78538658970E+02  0.95956674243E+02 -0.10746446880E+03  0.16415451970E+03  0.47000000000E+01 0. -1.
         -5    1    3    3    0  503 -0.13253086026E+03  0.31214192442E+02 -0.11644624983E+02  0.13673493343E+03  0.47000000000E+01 0. -1.
<mgrwt>
<rscale>  0 0.27631024E+03</rscale>
<asrwt>0</asrwt>
<pdfrwt beam="1">  1        5 0.42685533E-01 0.27631049E+03</pdfrwt>
<pdfrwt beam="2">  1       -5 0.48046912E-01 0.27631049E+03</pdfrwt>
<totfact> 0.18612125E+01</totfact>
</mgrwt>
</event>
<event>
 8    1  0.1865596E-007  0.1332797E+03  0.7546771E-02  0.1222669E+00
         -5   -1    0    0    0  501 -0.00000000000E+00  0.00000000000E+00  0.18204230982E+03  0.18210297242E+03  0.47000000000E+01 0.  1.
          5   -1    0    0  501    0  0.00000000000E+00 -0.00000000000E+00 -0.10587448701E+03  0.10597875730E+03  0.47000000000E+01 0.  1.
         25    2    1    2    0    0 -0.46238309478E+02 -0.56088984872E+00  0.78696160295E+02  0.15477807192E+03  0.12499948017E+03 0.  0.
         25    2    1    2    0    0  0.46238309478E+02  0.56088984872E+00 -0.25283374793E+01  0.13330365780E+03  0.12500070732E+03 0.  0.
          5    1    4    4  502    0  0.22048306868E+02  0.37411880065E+02  0.48792502643E+02  0.65487211881E+02  0.47000000000E+01 0.  1.
         -5    1    4    4    0  502  0.24190002610E+02 -0.36850990216E+02 -0.51320840122E+02  0.67816445919E+02  0.47000000000E+01 0.  1.
          5    1    3    3  503    0 -0.52110504512E+02  0.49122385939E+02  0.75889924031E+02  0.10445039038E+03  0.47000000000E+01 0.  1.
         -5    1    3    3    0  503  0.58721950345E+01 -0.49683275788E+02  0.28062362637E+01  0.50327681543E+02  0.47000000000E+01 0.  1.
<mgrwt>
<rscale>  0 0.13327939E+03</rscale>
<asrwt>0</asrwt>
<pdfrwt beam="2">  1        5 0.16301070E-01 0.13327968E+03</pdfrwt>
<pdfrwt beam="1">  1       -5 0.28019196E-01 0.13327968E+03</pdfrwt>
<totfact> 0.29633772E+02</totfact>
</mgrwt>
</event>
<event>
 8    1  0.1865596E-007  0.1282535E+03  0.7546771E-02  0.1230074E+00
         -5   -1    0    0    0  501 -0.00000000000E+00  0.00000000000E+00  0.66002917024E+02  0.66170046514E+02  0.47000000000E+01 0.  1.
          5   -1    0    0  501    0  0.00000000000E+00 -0.00000000000E+00 -0.24923064194E+03  0.24927495439E+03  0.47000000000E+01 0.  1.
         25    2    1    2    0    0 -0.15857651750E+02 -0.23852501108E+02 -0.84274270003E+02  0.15345504541E+03  0.12500356575E+03 0.  0.
         25    2    1    2    0    0  0.15857651750E+02  0.23852501108E+02 -0.98953454917E+02  0.16198995549E+03  0.12501420924E+03 0.  0.
          5    1    4    4  502    0  0.60973599285E+02 -0.38857805785E+00 -0.91450127534E+02  0.11001430193E+03  0.47000000000E+01 0.  1.
         -5    1    4    4    0  502 -0.45115947535E+02  0.24241079166E+02 -0.75033273835E+01  0.51975653560E+02  0.47000000000E+01 0.  1.
          5    1    3    3  503    0  0.43621113164E+01  0.37152062795E+02 -0.80516093878E+02  0.88905765608E+02  0.47000000000E+01 0. -1.
         -5    1    3    3    0  503 -0.20219763066E+02 -0.61004563903E+02 -0.37581761256E+01  0.64549279804E+02  0.47000000000E+01 0. -1.
<mgrwt>
<rscale>  0 0.12825090E+03</rscale>
<asrwt>0</asrwt>
<pdfrwt beam="2">  1        5 0.38359440E-01 0.12825350E+03</pdfrwt>
<pdfrwt beam="1">  1       -5 0.10170560E-01 0.12825350E+03</pdfrwt>
<totfact> 0.36329045E+02</totfact>
</mgrwt>
</event>
<event>
 8    1  0.1865596E-007  0.1619537E+03  0.7546771E-02  0.1186509E+00
          5   -1    0    0  501    0  0.00000000000E+00  0.00000000000E+00  0.10455018767E+03  0.10465577739E+03  0.47000000000E+01 0.  1.
         -5   -1    0    0    0  501 -0.00000000000E+00 -0.00000000000E+00 -0.25084782306E+03  0.25089184987E+03  0.47000000000E+01 0.  1.
         25    2    1    2    0    0  0.56673895082E+02  0.85977221440E+02 -0.78518731722E+02  0.17998290830E+03  0.12499857222E+03 0.  0.
         25    2    1    2    0    0 -0.56673895082E+02 -0.85977221440E+02 -0.67778903668E+02  0.17556471896E+03  0.12499991109E+03 0.  0.
          5    1    3    3  502    0  0.73238226671E+02  0.11002387272E+03 -0.66842201116E+02  0.14818589766E+03  0.47000000000E+01 0.  1.
         -5    1    3    3    0  502 -0.16564331590E+02 -0.24046651279E+02 -0.11676530606E+02  0.31797010642E+02  0.47000000000E+01 0.  1.
          5    1    4    4  503    0 -0.65555602184E+01 -0.17490885506E+02  0.36357740866E+02  0.41144644444E+02  0.47000000000E+01 0.  1.
         -5    1    4    4    0  503 -0.50118334863E+02 -0.68486335934E+02 -0.10413664453E+03  0.13442007452E+03  0.47000000000E+01 0.  1.
<mgrwt>
<rscale>  0 0.16195341E+03</rscale>
<asrwt>0</asrwt>
<pdfrwt beam="1">  1        5 0.16096153E-01 0.16195367E+03</pdfrwt>
<pdfrwt beam="2">  1       -5 0.38603482E-01 0.16195367E+03</pdfrwt>
<totfact> 0.17097563E+02</totfact>
</mgrwt>
</event>
<event>
 8    1  0.1865596E-007  0.1262571E+03  0.7546771E-02  0.1233119E+00
          5   -1    0    0  501    0  0.00000000000E+00  0.00000000000E+00  0.14554518495E+03  0.14562105226E+03  0.47000000000E+01 0. -1.
         -5   -1    0    0    0  501 -0.00000000000E+00 -0.00000000000E+00 -0.11167569700E+03  0.11177455569E+03  0.47000000000E+01 0. -1.
         25    2    1    2    0    0  0.56459729511E+01 -0.16899246111E+02 -0.15571621266E+01  0.12626244847E+03  0.12498927799E+03 0.  0.
         25    2    1    2    0    0 -0.56459729511E+01  0.16899246111E+02  0.35426650076E+02  0.13113315948E+03  0.12499358563E+03 0.  0.
          5    1    3    3  502    0 -0.52671137843E+02 -0.49160682238E+01  0.27546687411E+02  0.59827472584E+02  0.47000000000E+01 0. -1.
         -5    1    3    3    0  502  0.58317110794E+02 -0.11983177887E+02 -0.29103849538E+02  0.66434975891E+02  0.47000000000E+01 0. -1.
          5    1    4    4  503    0 -0.26694079723E+02  0.56871411167E+02  0.53103609636E+02  0.82395477162E+02  0.47000000000E+01 0. -1.
         -5    1    4    4    0  503  0.21048106772E+02 -0.39972165056E+02 -0.17676959560E+02  0.48737682313E+02  0.47000000000E+01 0. -1.
<mgrwt>
<rscale>  0 0.12625604E+03</rscale>
<asrwt>0</asrwt>
<pdfrwt beam="1">  1        5 0.22405007E-01 0.12625711E+03</pdfrwt>
<pdfrwt beam="2">  1       -5 0.17194317E-01 0.12625711E+03</pdfrwt>
<totfact> 0.40437411E+02</totfact>
</mgrwt>
</event>
<event>
 8    1  0.1865596E-007  0.1499181E+03  0.7546771E-02  0.1200574E+00
         -5   -1    0    0    0  501 -0.00000000000E+00  0.00000000000E+00  0.59764166184E+02  0.59948691059E+02  0.47000000000E+01 0. -1.
          5   -1    0    0  501    0  0.00000000000E+00 -0.00000000000E+00 -0.37528668247E+03  0.37531611215E+03  0.47000000000E+01 0. -1.
         25    2    1    2    0    0  0.44005630750E+02  0.70100791388E+02 -0.15757607381E+03  0.21749865018E+03  0.12499930920E+03 0.  0.
         25    2    1    2    0    0 -0.44005630750E+02 -0.70100791388E+02 -0.15794644247E+03  0.21776615303E+03  0.12499760887E+03 0.  0.
          5    1    3    3  502    0  0.52603586339E+02  0.52438121938E+02 -0.18134641551E+02  0.76601887393E+02  0.47000000000E+01 0. -1.
         -5    1    3    3    0  502 -0.85979555885E+01  0.17662669451E+02 -0.13944143226E+03  0.14089676278E+03  0.47000000000E+01 0. -1.
          5    1    4    4  503    0 -0.43043429617E+02  0.26604876587E+02 -0.37131400539E+02  0.62939551932E+02  0.47000000000E+01 0.  1.
         -5    1    4    4    0  503 -0.96220113296E+00 -0.96705667975E+02 -0.12081504193E+03  0.15482660110E+03  0.47000000000E+01 0.  1.
<mgrwt>
<rscale>  0 0.14991777E+03</rscale>
<asrwt>0</asrwt>
<pdfrwt beam="2">  1        5 0.57752869E-01 0.14991812E+03</pdfrwt>
<pdfrwt beam="1">  1       -5 0.92109454E-02 0.14991812E+03</pdfrwt>
<totfact> 0.19284752E+02</totfact>
</mgrwt>
</event>
<event>
 8    1  0.1865596E-007  0.1281754E+03  0.7546771E-02  0.1230193E+00
          5   -1    0    0  501    0  0.00000000000E+00  0.00000000000E+00  0.53449694487E+02  0.53655939473E+02  0.47000000000E+01 0. -1.
         -5   -1    0    0    0  501 -0.00000000000E+00 -0.00000000000E+00 -0.36882513457E+03  0.36885507980E+03  0.47000000000E+01 0. -1.
         25    2    1    2    0    0 -0.72602127987E+01  0.27390569644E+02 -0.24449002997E+03  0.27605125611E+03  0.12500386893E+03 0.  0.
         25    2    1    2    0    0  0.72602127987E+01 -0.27390569644E+02 -0.70885410114E+02  0.14645976317E+03  0.12499106714E+03 0.  0.
          5    1    4    4  502    0  0.48683229502E+02 -0.55876096460E+02 -0.25343602825E+02  0.78463897395E+02  0.47000000000E+01 0.  1.
         -5    1    4    4    0  502 -0.41423016703E+02  0.28485526816E+02 -0.45541807289E+02  0.67995865770E+02  0.47000000000E+01 0.  1.
          5    1    3    3  503    0 -0.49846006100E+02  0.35523464637E+02 -0.21453345729E+03  0.22314397854E+03  0.47000000000E+01 0. -1.
         -5    1    3    3    0  503  0.42585793301E+02 -0.81328949934E+01 -0.29956572683E+02  0.52907277562E+02  0.47000000000E+01 0. -1.
<mgrwt>
<rscale>  0 0.12817223E+03</rscale>
<asrwt>0</asrwt>
<pdfrwt beam="1">  1        5 0.82411986E-02 0.12817535E+03</pdfrwt>
<pdfrwt beam="2">  1       -5 0.56760495E-01 0.12817535E+03</pdfrwt>
<totfact> 0.23011098E+02</totfact>
</mgrwt>
</event>
<event>
 8    1  0.1865596E-007  0.1397968E+03  0.7546771E-02  0.1213604E+00
         -5   -1    0    0    0  501 -0.00000000000E+00  0.00000000000E+00  0.17906998603E+03  0.17913165521E+03  0.47000000000E+01 0.  1.
          5   -1    0    0  501    0  0.00000000000E+00 -0.00000000000E+00 -0.11561060585E+03  0.11570610263E+03  0.47000000000E+01 0.  1.
         25    2    1    2    0    0 -0.20847615263E+02 -0.59024320947E+02  0.66947577822E+02  0.15500037944E+03  0.12499858369E+03 0.  0.
         25    2    1    2    0    0  0.20847615263E+02  0.59024320947E+02 -0.34881976475E+01  0.13983737840E+03  0.12499532531E+03 0.  0.
          5    1    4    4  502    0 -0.39152020673E+02  0.14034899719E+02  0.35770806923E+02  0.55059057028E+02  0.47000000000E+01 0. -1.
         -5    1    4    4    0  502  0.59999635935E+02  0.44989421228E+02 -0.39259004571E+02  0.84778321372E+02  0.47000000000E+01 0. -1.
          5    1    3    3  503    0  0.20343107469E+02  0.31335224622E+02  0.53093990468E+01  0.38026543911E+02  0.47000000000E+01 0. -1.
         -5    1    3    3    0  503 -0.41190722732E+02 -0.90359545569E+02  0.61638178776E+02  0.11697383552E+03  0.47000000000E+01 0. -1.
<mgrwt>
<rscale>  0 0.13979605E+03</rscale>
<asrwt>0</asrwt>
<pdfrwt beam="2">  1        5 0.17798337E-01 0.13979678E+03</pdfrwt>
<pdfrwt beam="1">  1       -5 0.27561318E-01 0.13979678E+03</pdfrwt>
<totfact> 0.26473062E+02</totfact>
</mgrwt>
</event>
<event>
 8    1  0.1865596E-007  0.1334891E+03  0.7546771E-02  0.1222370E+00
         -5   -1    0    0    0  501 -0.00000000000E+00  0.00000000000E+00  0.66789744198E+02  0.66954909678E+02  0.47000000000E+01 0.  1.
          5   -1    0    0  501    0  0.00000000000E+00 -0.00000000000E+00 -0.27199355020E+03  0.27203415475E+03  0.47000000000E+01 0.  1.
         25    2    1    2    0    0  0.10638809967E+02  0.45614803517E+02 -0.78036286501E+02  0.15462279866E+03  0.12499861310E+03 0.  0.
         25    2    1    2    0    0 -0.10638809967E+02 -0.45614803517E+02 -0.12716751950E+03  0.18436626577E+03  0.12500178943E+03 0.  0.
          5    1    4    4  502    0 -0.42225951656E+02 -0.26085965316E+02 -0.13689442111E+03  0.14569036039E+03  0.47000000000E+01 0. -1.
         -5    1    4    4    0  502  0.31587141689E+02 -0.19528838201E+02  0.97269016127E+01  0.38675905374E+02  0.47000000000E+01 0. -1.
          5    1    3    3  503    0 -0.18331384828E+02  0.47617219857E+01 -0.98428360363E+02  0.10034413680E+03  0.47000000000E+01 0. -1.
         -5    1    3    3    0  503  0.28970194795E+02  0.40853081531E+02  0.20392073862E+02  0.54278661861E+02  0.47000000000E+01 0. -1.
<mgrwt>
<rscale>  0 0.13348836E+03</rscale>
<asrwt>0</asrwt>
<pdfrwt beam="2">  1        5 0.41860990E-01 0.13348911E+03</pdfrwt>
<pdfrwt beam="1">  1       -5 0.10291174E-01 0.13348911E+03</pdfrwt>
<totfact> 0.30204148E+02</totfact>
</mgrwt>
</event>
<event>
 8    1  0.1865596E-007  0.1289522E+03  0.7546771E-02  0.1229020E+00
         -5   -1    0    0    0  501 -0.00000000000E+00  0.00000000000E+00  0.15357862100E+03  0.15365052173E+03  0.47000000000E+01 0.  1.
          5   -1    0    0  501    0  0.00000000000E+00 -0.00000000000E+00 -0.10942366840E+03  0.10952455983E+03  0.47000000000E+01 0.  1.
         25    2    1    2    0    0  0.13919123220E+02  0.28450221545E+02  0.36408139237E+02  0.13399042602E+03  0.12499889826E+03 0.  0.
         25    2    1    2    0    0 -0.13919123220E+02 -0.28450221545E+02  0.77468133575E+01  0.12918465554E+03  0.12500202004E+03 0.  0.
          5    1    4    4  502    0  0.12156601972E+02 -0.64543290211E+02 -0.28332420379E+02  0.71682880294E+02  0.47000000000E+01 0. -1.
         -5    1    4    4    0  502 -0.26075725192E+02  0.36093068666E+02  0.36079233736E+02  0.57501775251E+02  0.47000000000E+01 0. -1.
          5    1    3    3  503    0 -0.16955216159E+02  0.35156100643E+02  0.74525516529E+02  0.84258966177E+02  0.47000000000E+01 0. -1.
         -5    1    3    3    0  503  0.30874339379E+02 -0.67058790978E+01 -0.38117377291E+02  0.49731459843E+02  0.47000000000E+01 0. -1.
<mgrwt>
<rscale>  0 0.12895141E+03</rscale>
<asrwt>0</asrwt>
<pdfrwt beam="2">  1        5 0.16847702E-01 0.12895217E+03</pdfrwt>
<pdfrwt beam="1">  1       -5 0.23640772E-01 0.12895217E+03</pdfrwt>
<totfact> 0.38212867E+02</totfact>
</mgrwt>
</event>
<event>
 8    1  0.1865596E-007  0.1555506E+03  0.7546771E-02  0.1193814E+00
         -5   -1    0    0    0  501 -0.00000000000E+00  0.00000000000E+00  0.25512198144E+03  0.25516527078E+03  0.47000000000E+01 0. -1.
          5   -1    0    0  501    0  0.00000000000E+00 -0.00000000000E+00 -0.10260778642E+03  0.10271537292E+03  0.47000000000E+01 0. -1.
         25    2    1    2    0    0 -0.35353056157E+02 -0.85564943442E+02  0.12580027863E+03  0.20005423430E+03  0.12499915372E+03 0.  0.
         25    2    1    2    0    0  0.35353056157E+02  0.85564943442E+02  0.26713916388E+02  0.15782640940E+03  0.12499737617E+03 0.  0.
          5    1    4    4  502    0  0.32144414455E+02  0.52376864592E+02  0.76178140752E+02  0.97988766977E+02  0.47000000000E+01 0.  1.
         -5    1    4    4    0  502  0.32086417022E+01  0.33188078849E+02 -0.49464224364E+02  0.59837642427E+02  0.47000000000E+01 0.  1.
          5    1    3    3  503    0 -0.53055722615E+02  0.93196775714E+01  0.22407356846E+02  0.58531578938E+02  0.47000000000E+01 0.  1.
         -5    1    3    3    0  503  0.17702666457E+02 -0.94884621013E+02  0.10339292178E+03  0.14152265536E+03  0.47000000000E+01 0.  1.
<mgrwt>
<rscale>  0 0.15555023E+03</rscale>
<asrwt>0</asrwt>
<pdfrwt beam="2">  1        5 0.15797419E-01 0.15555059E+03</pdfrwt>
<pdfrwt beam="1">  1       -5 0.39261141E-01 0.15555059E+03</pdfrwt>
<totfact> 0.16874776E+02</totfact>
</mgrwt>
</event>
<event>
 8    1  0.1865596E-007  0.1810559E+03  0.7546771E-02  0.1166786E+00
         -5   -1    0    0    0  501 -0.00000000000E+00  0.00000000000E+00  0.87624504711E+02  0.87750463394E+02  0.47000000000E+01 0.  1.
          5   -1    0    0  501    0  0.00000000000E+00 -0.00000000000E+00 -0.40954899231E+03  0.40957596011E+03  0.47000000000E+01 0.  1.
         25    2    1    2    0    0 -0.13098185923E+03  0.77893035359E-01 -0.87398812772E+02  0.20104672329E+03  0.12499991583E+03 0.  0.
         25    2    1    2    0    0  0.13098185923E+03 -0.77893035359E-01 -0.23452567483E+03  0.29627970021E+03  0.12499246014E+03 0.  0.
          5    1    4    4  502    0  0.30270547685E+02  0.56575037698E+02 -0.99625020787E+02  0.11859289909E+03  0.47000000000E+01 0. -1.
         -5    1    4    4    0  502  0.10071131154E+03 -0.56652930733E+02 -0.13490065404E+03  0.17768680113E+03  0.47000000000E+01 0. -1.
          5    1    3    3  503    0 -0.45365143955E+02  0.32997020659E+02  0.19990471327E+02  0.59736995257E+02  0.47000000000E+01 0. -1.
         -5    1    3    3    0  503 -0.85616715274E+02 -0.32919127623E+02 -0.10738928410E+03  0.14130972803E+03  0.47000000000E+01 0. -1.
<mgrwt>
<rscale>  0 0.18105460E+03</rscale>
<asrwt>0</asrwt>
<pdfrwt beam="2">  1        5 0.63019300E-01 0.18105588E+03</pdfrwt>
<pdfrwt beam="1">  1       -5 0.13492457E-01 0.18105588E+03</pdfrwt>
<totfact> 0.85872036E+01</totfact>
</mgrwt>
</event>
<event>
 8    1  0.1865596E-007  0.1293222E+03  0.7546771E-02  0.1228465E+00
          5   -1    0    0  501    0  0.00000000000E+00  0.00000000000E+00  0.42257359657E+03  0.42259973322E+03  0.47000000000E+01 0.  1.
         -5   -1    0    0    0  501 -0.00000000000E+00 -0.00000000000E+00 -0.42322315620E+02  0.42582489353E+02  0.47000000000E+01 0.  1.
         25    2    1    2    0    0 -0.23619889960E+02  0.23263495789E+02  0.12932261762E+03  0.18288952729E+03  0.12500060130E+03 0.  0.
         25    2    1    2    0    0  0.23619889960E+02 -0.23263495789E+02  0.25092866333E+03  0.28229269529E+03  0.12499952918E+03 0.  0.
          5    1    3    3  502    0 -0.56778747034E+02 -0.30950539795E+02  0.75120037650E+02  0.99231406746E+02  0.47000000000E+01 0.  1.
         -5    1    3    3    0  502  0.33158857074E+02  0.54214035584E+02  0.54202579970E+02  0.83658120539E+02  0.47000000000E+01 0.  1.
          5    1    4    4  503    0 -0.44967175978E+02 -0.58331693203E+01  0.16338273258E+03  0.16962334770E+03  0.47000000000E+01 0. -1.
         -5    1    4    4    0  503  0.68587065938E+02 -0.17430326468E+02  0.87545930750E+02  0.11266934759E+03  0.47000000000E+01 0. -1.
<mgrwt>
<rscale>  0 0.12932197E+03</rscale>
<asrwt>0</asrwt>
<pdfrwt beam="1">  1        5 0.65033346E-01 0.12932223E+03</pdfrwt>
<pdfrwt beam="2">  1       -5 0.65331494E-02 0.12932223E+03</pdfrwt>
<totfact> 0.25442461E+02</totfact>
</mgrwt>
</event>
<event>
 8    1  0.1865596E-007  0.1376508E+03  0.7546771E-02  0.1216526E+00
          5   -1    0    0  501    0  0.00000000000E+00  0.00000000000E+00  0.16747874873E+04  0.16747940822E+04  0.47000000000E+01 0.  1.
         -5   -1    0    0    0  501 -0.00000000000E+00 -0.00000000000E+00 -0.22356089490E+02  0.22844796722E+02  0.47000000000E+01 0.  1.
         25    2    1    2    0    0 -0.43059533021E+02 -0.38317290472E+02  0.22626670913E+03  0.26484668942E+03  0.12499922841E+03 0.  0.
         25    2    1    2    0    0  0.43059533021E+02  0.38317290472E+02  0.14261646887E+04  0.14327921895E+04  0.12500160315E+03 0.  0.
          5    1    4    4  502    0  0.19717747767E+02 -0.27424928957E+02  0.11984843853E+03  0.12460599714E+03  0.47000000000E+01 0. -1.
         -5    1    4    4    0  502  0.23341785254E+02  0.65742219429E+02  0.13063162502E+04  0.13081861924E+04  0.47000000000E+01 0. -1.
          5    1    3    3  503    0  0.38588859345E+02 -0.34370896709E+02  0.11965045289E+03  0.13041771154E+03  0.47000000000E+01 0.  1.
         -5    1    3    3    0  503 -0.81648392366E+02 -0.39463937625E+01  0.10661625623E+03  0.13442897788E+03  0.47000000000E+01 0.  1.
<mgrwt>
<rscale>  0 0.13765025E+03</rscale>
<asrwt>0</asrwt>
<pdfrwt beam="1">  1        5 0.25769776E+00 0.13765079E+03</pdfrwt>
<pdfrwt beam="2">  1       -5 0.34774979E-02 0.13765079E+03</pdfrwt>
<totfact> 0.17668259E+01</totfact>
</mgrwt>
</event>
<event>
 8    1  0.1865596E-007  0.1316173E+03  0.7546771E-02  0.1225077E+00
         -5   -1    0    0    0  501 -0.00000000000E+00  0.00000000000E+00  0.56080486562E+02  0.56277091015E+02  0.47000000000E+01 0. -1.
          5   -1    0    0  501    0  0.00000000000E+00 -0.00000000000E+00 -0.34660123838E+03  0.34663310351E+03  0.47000000000E+01 0. -1.
         25    2    1    2    0    0  0.79468530891E+01 -0.40431321866E+02 -0.78171308086E+02  0.15308121164E+03  0.12500103875E+03 0.  0.
         25    2    1    2    0    0 -0.79468530891E+01  0.40431321866E+02 -0.21234944373E+03  0.24982898288E+03  0.12499756066E+03 0.  0.
          5    1    4    4  502    0 -0.46876667842E+02  0.35672502058E+02 -0.36188713134E+02  0.69294028237E+02  0.47000000000E+01 0.  1.
         -5    1    4    4    0  502  0.38929814752E+02  0.47588198073E+01 -0.17616073060E+03  0.18053495464E+03  0.47000000000E+01 0.  1.
          5    1    3    3  503    0  0.46426223100E+02 -0.38082127325E+01  0.11989320383E+02  0.48329395597E+02  0.47000000000E+01 0.  1.
         -5    1    3    3    0  503 -0.38479370011E+02 -0.36623109133E+02 -0.90160628469E+02  0.10475181605E+03  0.47000000000E+01 0.  1.
<mgrwt>
<rscale>  0 0.13161644E+03</rscale>
<asrwt>0</asrwt>
<pdfrwt beam="2">  1        5 0.53340840E-01 0.13161726E+03</pdfrwt>
<pdfrwt beam="1">  1       -5 0.86453420E-02 0.13161726E+03</pdfrwt>
<totfact> 0.24455890E+02</totfact>
</mgrwt>
</event>
<event>
 8    1  0.1865596E-007  0.1492518E+03  0.7546771E-02  0.1201406E+00
         -5   -1    0    0    0  501 -0.00000000000E+00  0.00000000000E+00  0.25170635291E+03  0.25175022958E+03  0.47000000000E+01 0. -1.
          5   -1    0    0  501    0  0.00000000000E+00 -0.00000000000E+00 -0.89844124746E+02  0.89966975894E+02  0.47000000000E+01 0. -1.
         25    2    1    2    0    0 -0.63634783979E+02 -0.50966622689E+02  0.10281166839E+03  0.18120838710E+03  0.12497703005E+03 0.  0.
         25    2    1    2    0    0  0.63634783979E+02  0.50966622689E+02  0.59050559777E+02  0.16050881838E+03  0.12501651813E+03 0.  0.
          5    1    3    3  502    0  0.16388636461E+02 -0.24601758975E+02  0.91250706800E+02  0.96034449242E+02  0.47000000000E+01 0.  1.
         -5    1    3    3    0  502 -0.80023420440E+02 -0.26364863713E+02  0.11560961585E+02  0.85173937859E+02  0.47000000000E+01 0.  1.
          5    1    4    4  503    0  0.90675237046E+02  0.68598553976E+02  0.58338072545E+02  0.12787955634E+03  0.47000000000E+01 0.  1.
         -5    1    4    4    0  503 -0.27040453067E+02 -0.17631931288E+02  0.71248723196E+00  0.32629262037E+02  0.47000000000E+01 0.  1.
<mgrwt>
<rscale>  0 0.14924357E+03</rscale>
<asrwt>0</asrwt>
<pdfrwt beam="2">  1        5 0.13834998E-01 0.14925184E+03</pdfrwt>
<pdfrwt beam="1">  1       -5 0.38736879E-01 0.14925184E+03</pdfrwt>
<totfact> 0.21757187E+02</totfact>
</mgrwt>
</event>
<event>
 8    1  0.1865596E-007  0.1437416E+03  0.7546771E-02  0.1208384E+00
          5   -1    0    0  501    0  0.00000000000E+00  0.00000000000E+00  0.55163454616E+03  0.55165456811E+03  0.47000000000E+01 0.  1.
         -5   -1    0    0    0  501 -0.00000000000E+00 -0.00000000000E+00 -0.40203153688E+02  0.40476951052E+02  0.47000000000E+01 0.  1.
         25    2    1    2    0    0  0.39795601082E+02  0.58757744337E+02  0.17625602906E+03  0.22743755228E+03  0.12500196008E+03 0.  0.
         25    2    1    2    0    0 -0.39795601082E+02 -0.58757744337E+02  0.33517536341E+03  0.36469396688E+03  0.12499201117E+03 0.  0.
          5    1    4    4  502    0  0.19951383040E+02 -0.46995207644E+02  0.27212566984E+03  0.27691348363E+03  0.47000000000E+01 0. -1.
         -5    1    4    4    0  502 -0.59746984122E+02 -0.11762536692E+02  0.63049693571E+02  0.87780483255E+02  0.47000000000E+01 0. -1.
          5    1    3    3  503    0  0.10539241671E+02  0.85148819074E+02  0.60553542264E+02  0.10512001943E+03  0.47000000000E+01 0. -1.
         -5    1    3    3    0  503  0.29256359411E+02 -0.26391074737E+02  0.11570248680E+03  0.12231753285E+03  0.47000000000E+01 0. -1.
<mgrwt>
<rscale>  0 0.14373945E+03</rscale>
<asrwt>0</asrwt>
<pdfrwt beam="1">  1        5 0.84889447E-01 0.14374162E+03</pdfrwt>
<pdfrwt beam="2">  1       -5 0.62077026E-02 0.14374162E+03</pdfrwt>
<totfact> 0.15655946E+02</totfact>
</mgrwt>
</event>
<event>
 8    1  0.1865596E-007  0.1451882E+03  0.7546771E-02  0.1206514E+00
         -5   -1    0    0    0  501 -0.00000000000E+00  0.00000000000E+00  0.13740445432E+03  0.13748481395E+03  0.47000000000E+01 0. -1.
          5   -1    0    0  501    0  0.00000000000E+00 -0.00000000000E+00 -0.15662425925E+03  0.15669476248E+03  0.47000000000E+01 0. -1.
         25    2    1    2    0    0 -0.67640304173E+02 -0.29659624931E+02  0.11970542878E+02  0.14567889365E+03  0.12499656819E+03 0.  0.
         25    2    1    2    0    0  0.67640304173E+02  0.29659624931E+02 -0.31190347813E+02  0.14850068277E+03  0.12499884354E+03 0.  0.
          5    1    3    3  502    0 -0.10129398547E+03 -0.39617972538E+02  0.19741371849E+01  0.10888545567E+03  0.47000000000E+01 0.  1.
         -5    1    3    3    0  502  0.33653681293E+02  0.99583476064E+01  0.99964056930E+01  0.36793437980E+02  0.47000000000E+01 0.  1.
          5    1    4    4  503    0  0.89902253567E+02  0.29784301426E+02 -0.59679030232E+02  0.11204104809E+03  0.47000000000E+01 0.  1.
         -5    1    4    4    0  503 -0.22261949393E+02 -0.12467649509E+00  0.28488682419E+02  0.36459634680E+02  0.47000000000E+01 0.  1.
<mgrwt>
<rscale>  0 0.14518772E+03</rscale>
<asrwt>0</asrwt>
<pdfrwt beam="2">  1        5 0.24107645E-01 0.14518821E+03</pdfrwt>
<pdfrwt beam="1">  1       -5 0.21150752E-01 0.14518821E+03</pdfrwt>
<totfact> 0.25163581E+02</totfact>
</mgrwt>
</event>
<event>
 8    1  0.1865596E-007  0.1380604E+03  0.7546771E-02  0.1215964E+00
         -5   -1    0    0    0  501 -0.00000000000E+00  0.00000000000E+00  0.28632291583E+02  0.29015480718E+02  0.47000000000E+01 0.  1.
          5   -1    0    0  501    0  0.00000000000E+00 -0.00000000000E+00 -0.72527862898E+03  0.72529385745E+03  0.47000000000E+01 0.  1.
         25    2    1    2    0    0 -0.33789877512E+02  0.47903882356E+02 -0.23597237635E+03  0.27339281657E+03  0.12499652789E+03 0.  0.
         25    2    1    2    0    0  0.33789877512E+02 -0.47903882356E+02 -0.46067396105E+03  0.48091652160E+03  0.12499465826E+03 0.  0.
          5    1    4    4  502    0  0.36839099787E+02 -0.86729716867E+02 -0.26357696894E+03  0.27995369549E+03  0.47000000000E+01 0.  1.
         -5    1    4    4    0  502 -0.30492222749E+01  0.38825834512E+02 -0.19709699211E+03  0.20096282612E+03  0.47000000000E+01 0.  1.
          5    1    3    3  503    0 -0.45317647835E+02  0.43211316473E+02 -0.34820708335E+02  0.71801662972E+02  0.47000000000E+01 0. -1.
         -5    1    3    3    0  503  0.11527770323E+02  0.46925658823E+01 -0.20115166801E+03  0.20159115359E+03  0.47000000000E+01 0. -1.
<mgrwt>
<rscale>  0 0.13805996E+03</rscale>
<asrwt>0</asrwt>
<pdfrwt beam="2">  1        5 0.11161196E+00 0.13806038E+03</pdfrwt>
<pdfrwt beam="1">  1       -5 0.44356160E-02 0.13806038E+03</pdfrwt>
<totfact> 0.13956055E+02</totfact>
</mgrwt>
</event>
<event>
 8    1  0.1865596E-007  0.2564832E+03  0.7546771E-02  0.1109278E+00
          5   -1    0    0  501    0  0.00000000000E+00  0.00000000000E+00  0.85253359146E+03  0.85254654687E+03  0.47000000000E+01 0.  1.
         -5   -1    0    0    0  501 -0.00000000000E+00 -0.00000000000E+00 -0.77473652012E+02  0.77616085679E+02  0.47000000000E+01 0.  1.
         25    2    1    2    0    0 -0.20590628380E+03  0.88103751190E+02  0.35399441528E+03  0.43713139125E+03  0.12494854335E+03 0.  0.
         25    2    1    2    0    0  0.20590628380E+03 -0.88103751190E+02  0.42106552417E+03  0.49303124130E+03  0.12499584221E+03 0.  0.
          5    1    4    4  502    0  0.13931989146E+03 -0.82161501026E+02  0.17648695474E+03  0.23943742315E+03  0.47000000000E+01 0.  1.
         -5    1    4    4    0  502  0.66586392332E+02 -0.59422501643E+01  0.24457856943E+03  0.25359381815E+03  0.47000000000E+01 0.  1.
          5    1    3    3  503    0 -0.20136350871E+03  0.10524170657E+03  0.35157700273E+03  0.41863057496E+03  0.47000000000E+01 0. -1.
         -5    1    3    3    0  503 -0.45427750848E+01 -0.17137955376E+02  0.24174125492E+01  0.18500816289E+02  0.47000000000E+01 0. -1.
<mgrwt>
<rscale>  0 0.25647743E+03</rscale>
<asrwt>0</asrwt>
<pdfrwt beam="1">  1        5 0.13117097E+00 0.25648319E+03</pdfrwt>
<pdfrwt beam="2">  1       -5 0.11930976E-01 0.25648319E+03</pdfrwt>
<totfact> 0.19903889E+01</totfact>
</mgrwt>
</event>
<event>
 8    1  0.1865596E-007  0.1532829E+03  0.7546771E-02  0.1196505E+00
          5   -1    0    0  501    0  0.00000000000E+00  0.00000000000E+00  0.80538587563E+02  0.80675610234E+02  0.47000000000E+01 0.  1.
         -5   -1    0    0    0  501 -0.00000000000E+00 -0.00000000000E+00 -0.29167913076E+03  0.29171699526E+03  0.47000000000E+01 0.  1.
         25    2    1    2    0    0 -0.38976055782E+02  0.79650995954E+02 -0.11253987415E+03  0.19013524480E+03  0.12499109552E+03 0.  0.
         25    2    1    2    0    0  0.38976055782E+02 -0.79650995954E+02 -0.98600669043E+02  0.18225736069E+03  0.12502895468E+03 0.  0.
          5    1    4    4  502    0  0.71835706874E+02 -0.45572093249E+02 -0.15641029288E+02  0.86625147979E+02  0.47000000000E+01 0. -1.
         -5    1    4    4    0  502 -0.32859651092E+02 -0.34078902705E+02 -0.82959639755E+02  0.95632212710E+02  0.47000000000E+01 0. -1.
          5    1    3    3  503    0  0.38193643811E+02  0.38462744528E+02 -0.79871862261E+02  0.96642338161E+02  0.47000000000E+01 0. -1.
         -5    1    3    3    0  503 -0.77169699593E+02  0.41188251426E+02 -0.32668011893E+02  0.93492906639E+02  0.47000000000E+01 0. -1.
<mgrwt>
<rscale>  0 0.15327520E+03</rscale>
<asrwt>0</asrwt>
<pdfrwt beam="1">  1        5 0.12404005E-01 0.15328292E+03</pdfrwt>
<pdfrwt beam="2">  1       -5 0.44887165E-01 0.15328292E+03</pdfrwt>
<totfact> 0.19693036E+02</totfact>
</mgrwt>
</event>
<event>
 8    1  0.1865596E-007  0.1295218E+03  0.7546771E-02  0.1228182E+00
          5   -1    0    0  501    0  0.00000000000E+00  0.00000000000E+00  0.30022995172E+03  0.30026673794E+03  0.47000000000E+01 0.  1.
         -5   -1    0    0    0  501 -0.00000000000E+00 -0.00000000000E+00 -0.59405051758E+02  0.59590688655E+02  0.47000000000E+01 0.  1.
         25    2    1    2    0    0  0.14920081174E+02 -0.30371911137E+02  0.75702258572E+02  0.15002245196E+03  0.12502336714E+03 0.  0.
         25    2    1    2    0    0 -0.14920081174E+02  0.30371911137E+02  0.16512264139E+03  0.20983497463E+03  0.12498067078E+03 0.  0.
          5    1    3    3  502    0 -0.39922609711E+02  0.18073929589E+02 -0.76171547953E+00  0.44081196756E+02  0.47000000000E+01 0. -1.
         -5    1    3    3    0  502  0.54842690885E+02 -0.48445840727E+02  0.76463974051E+02  0.10594125521E+03  0.47000000000E+01 0. -1.
          5    1    4    4  503    0  0.50428453443E+02 -0.11184820839E+02  0.68303229585E+02  0.85764504928E+02  0.47000000000E+01 0.  1.
         -5    1    4    4    0  503 -0.65348534617E+02  0.41556731976E+02  0.96819411808E+02  0.12407046970E+03  0.47000000000E+01 0.  1.
<mgrwt>
<rscale>  0 0.12951152E+03</rscale>
<asrwt>0</asrwt>
<pdfrwt beam="1">  1        5 0.46206333E-01 0.12952183E+03</pdfrwt>
<pdfrwt beam="2">  1       -5 0.91563481E-02 0.12952183E+03</pdfrwt>
<totfact> 0.29831967E+02</totfact>
</mgrwt>
</event>
<event>
 8    1  0.1865596E-007  0.1354763E+03  0.7546771E-02  0.1219550E+00
         -5   -1    0    0    0  501 -0.00000000000E+00  0.00000000000E+00  0.49999043734E+03  0.50001252728E+03  0.47000000000E+01 0.  1.
          5   -1    0    0  501    0  0.00000000000E+00 -0.00000000000E+00 -0.48768457157E+02  0.48994412064E+02  0.47000000000E+01 0.  1.
         25    2    1    2    0    0  0.14568451481E+02  0.50160632527E+02  0.36269858577E+03  0.38717304845E+03  0.12499750597E+03 0.  0.
         25    2    1    2    0    0 -0.14568451481E+02 -0.50160632527E+02  0.88523394419E+02  0.16183389088E+03  0.12500195217E+03 0.  0.
          5    1    3    3  502    0  0.38961908062E+02 -0.30853651727E+02  0.11454354007E+03  0.12494915236E+03  0.47000000000E+01 0.  1.
         -5    1    3    3    0  502 -0.24393456580E+02  0.81014284254E+02  0.24815504570E+03  0.26222389609E+03  0.47000000000E+01 0.  1.
          5    1    4    4  503    0 -0.51290389441E+02 -0.22921231337E+02 -0.60341043778E+01  0.56697330719E+02  0.47000000000E+01 0.  1.
         -5    1    4    4    0  503  0.36721937960E+02 -0.27239401190E+02  0.94557498797E+02  0.10513656017E+03  0.47000000000E+01 0.  1.
<mgrwt>
<rscale>  0 0.13547523E+03</rscale>
<asrwt>0</asrwt>
<pdfrwt beam="2">  1        5 0.75219202E-02 0.13547626E+03</pdfrwt>
<pdfrwt beam="1">  1       -5 0.76940683E-01 0.13547626E+03</pdfrwt>
<totfact> 0.13928263E+02</totfact>
</mgrwt>
</event>
<event>
 8    1  0.1865596E-007  0.1446138E+03  0.7546771E-02  0.1207255E+00
          5   -1    0    0  501    0  0.00000000000E+00  0.00000000000E+00  0.21733507095E+03  0.21738588515E+03  0.47000000000E+01 0.  1.
         -5   -1    0    0    0  501 -0.00000000000E+00 -0.00000000000E+00 -0.97943907770E+02  0.98056611553E+02  0.47000000000E+01 0.  1.
         25    2    1    2    0    0  0.65674067876E+02 -0.31223821045E+02  0.38078686715E+02  0.14954310258E+03  0.12500057182E+03 0.  0.
         25    2    1    2    0    0 -0.65674067876E+02  0.31223821045E+02  0.81312476463E+02  0.16589939413E+03  0.12499151952E+03 0.  0.
          5    1    4    4  502    0 -0.83040346699E+01 -0.38297722275E+02  0.62158750665E+02  0.73630651277E+02  0.47000000000E+01 0. -1.
         -5    1    4    4    0  502 -0.57370033207E+02  0.69521543320E+02  0.19153725798E+02  0.92268742853E+02  0.47000000000E+01 0. -1.
          5    1    3    3  503    0 -0.17398552103E+02  0.66767362415E+01  0.53475994547E+02  0.56824822173E+02  0.47000000000E+01 0. -1.
         -5    1    3    3    0  503  0.83072619980E+02 -0.37900557286E+02 -0.15397307832E+02  0.92718280405E+02  0.47000000000E+01 0. -1.
<mgrwt>
<rscale>  0 0.14461185E+03</rscale>
<asrwt>0</asrwt>
<pdfrwt beam="1">  1        5 0.33448743E-01 0.14461381E+03</pdfrwt>
<pdfrwt beam="2">  1       -5 0.15080872E-01 0.14461381E+03</pdfrwt>
<totfact> 0.24767543E+02</totfact>
</mgrwt>
</event>
<event>
 8    1  0.1865596E-007  0.1436747E+03  0.7546771E-02  0.1208483E+00
         -5   -1    0    0    0  501 -0.00000000000E+00  0.00000000000E+00  0.24742324220E+02  0.25184769362E+02  0.47000000000E+01 0. -1.
          5   -1    0    0  501    0  0.00000000000E+00 -0.00000000000E+00 -0.86882658278E+03  0.86883929524E+03  0.47000000000E+01 0. -1.
         25    2    1    2    0    0 -0.18242422602E+02  0.68448123983E+02 -0.32311119829E+03  0.35361458058E+03  0.12499797389E+03 0.  0.
         25    2    1    2    0    0  0.18242422602E+02 -0.68448123983E+02 -0.52097306027E+03  0.54040948402E+03  0.12494618535E+03 0.  0.
          5    1    4    4  502    0 -0.10720813198E+00 -0.59283707926E+02 -0.51515671821E+03  0.51857796312E+03  0.47000000000E+01 0.  1.
         -5    1    4    4    0  502  0.18349630734E+02 -0.91644160574E+01 -0.58163420573E+01  0.21831520897E+02  0.47000000000E+01 0.  1.
          5    1    3    3  503    0 -0.66816482979E+02  0.51465138434E+02 -0.14149493785E+03  0.16479080772E+03  0.47000000000E+01 0.  1.
         -5    1    3    3    0  503  0.48574060377E+02  0.16982985549E+02 -0.18161626044E+03  0.18882377286E+03  0.47000000000E+01 0.  1.
<mgrwt>
<rscale>  0 0.14366346E+03</rscale>
<asrwt>0</asrwt>
<pdfrwt beam="2">  1        5 0.13370062E+00 0.14367472E+03</pdfrwt>
<pdfrwt beam="1">  1       -5 0.38415242E-02 0.14367472E+03</pdfrwt>
<totfact> 0.11275309E+02</totfact>
</mgrwt>
</event>
<event>
 8    1  0.1865596E-007  0.1967114E+03  0.7546771E-02  0.1152545E+00
          5   -1    0    0  501    0  0.00000000000E+00  0.00000000000E+00  0.19433960464E+03  0.19439642984E+03  0.47000000000E+01 0. -1.
         -5   -1    0    0    0  501 -0.00000000000E+00 -0.00000000000E+00 -0.21044380159E+03  0.21049627937E+03  0.47000000000E+01 0. -1.
         25    2    1    2    0    0  0.15036932810E+03 -0.21409511375E+02 -0.55263331304E+02  0.20432676747E+03  0.12500436036E+03 0.  0.
         25    2    1    2    0    0 -0.15036932810E+03  0.21409511375E+02  0.39159134357E+02  0.20056594173E+03  0.12499582861E+03 0.  0.
          5    1    4    4  502    0 -0.18231607286E+02  0.21879685436E+02  0.60122118768E+02  0.66692363162E+02  0.47000000000E+01 0.  1.
         -5    1    4    4    0  502 -0.13213772081E+03 -0.47017406130E+00 -0.20962984411E+02  0.13387357857E+03  0.47000000000E+01 0.  1.
          5    1    3    3  503    0 -0.16368667964E+02 -0.24514403312E+02 -0.71326413858E+01  0.30689637238E+02  0.47000000000E+01 0.  1.
         -5    1    3    3    0  503  0.16673799606E+03  0.31048919374E+01 -0.48130689918E+02  0.17363713023E+03  0.47000000000E+01 0.  1.
<mgrwt>
<rscale>  0 0.19671009E+03</rscale>
<asrwt>0</asrwt>
<pdfrwt beam="1">  1        5 0.29906809E-01 0.19671144E+03</pdfrwt>
<pdfrwt beam="2">  1       -5 0.32384377E-01 0.19671144E+03</pdfrwt>
<totfact> 0.79647920E+01</totfact>
</mgrwt>
</event>
<event>
 8    1  0.1865596E-007  0.1333463E+03  0.7546771E-02  0.1222576E+00
         -5   -1    0    0    0  501 -0.00000000000E+00  0.00000000000E+00  0.29619214036E+02  0.29989795600E+02  0.47000000000E+01 0.  1.
          5   -1    0    0  501    0  0.00000000000E+00 -0.00000000000E+00 -0.59620537535E+03  0.59622390056E+03  0.47000000000E+01 0.  1.
         25    2    1    2    0    0  0.43647241166E+02  0.15782796660E+02 -0.28140355410E+03  0.31139570667E+03  0.12500059017E+03 0.  0.
         25    2    1    2    0    0 -0.43647241166E+02 -0.15782796660E+02 -0.28518260722E+03  0.31481798949E+03  0.12500827458E+03 0.  0.
          5    1    3    3  502    0 -0.12792954101E+02 -0.38903684996E+01 -0.23539641321E+03  0.23582272154E+03  0.47000000000E+01 0.  1.
         -5    1    3    3    0  502  0.56440195267E+02  0.19673165159E+02 -0.46007140888E+02  0.75572985133E+02  0.47000000000E+01 0.  1.
          5    1    4    4  503    0 -0.62226315004E+02  0.39328316882E+02 -0.18015718798E+03  0.19467288760E+03  0.47000000000E+01 0.  1.
         -5    1    4    4    0  503  0.18579073839E+02 -0.55111113542E+02 -0.10502541924E+03  0.12014510189E+03  0.47000000000E+01 0.  1.
<mgrwt>
<rscale>  0 0.13334454E+03</rscale>
<asrwt>0</asrwt>
<pdfrwt beam="2">  1        5 0.91753827E-01 0.13334634E+03</pdfrwt>
<pdfrwt beam="1">  1       -5 0.45867339E-02 0.13334634E+03</pdfrwt>
<totfact> 0.21058799E+02</totfact>
</mgrwt>
</event>
<event>
 8    1  0.1865596E-007  0.1283800E+03  0.7546771E-02  0.1229890E+00
          5   -1    0    0  501    0  0.00000000000E+00  0.00000000000E+00  0.44615824191E+02  0.44862699075E+02  0.47000000000E+01 0. -1.
         -5   -1    0    0    0  501 -0.00000000000E+00 -0.00000000000E+00 -0.38258081029E+03  0.38260967892E+03  0.47000000000E+01 0. -1.
         25    2    1    2    0    0  0.44587209733E+01 -0.28925040659E+02 -0.21063868472E+03  0.24667808626E+03  0.12499953828E+03 0.  0.
         25    2    1    2    0    0 -0.44587209733E+01  0.28925040659E+02 -0.12732630138E+03  0.18079429173E+03  0.12497219983E+03 0.  0.
          5    1    3    3  502    0  0.60489371242E+02  0.70639014420E+01 -0.11196847637E+03  0.12754564845E+03  0.47000000000E+01 0.  1.
         -5    1    3    3    0  502 -0.56030650268E+02 -0.35988942101E+02 -0.98670208346E+02  0.11913243781E+03  0.47000000000E+01 0.  1.
          5    1    4    4  503    0  0.27132398631E+02  0.61419308643E+02 -0.11556497048E+03  0.13373799360E+03  0.47000000000E+01 0.  1.
         -5    1    4    4    0  503 -0.31591119604E+02 -0.32494267983E+02 -0.11761330894E+02  0.47056298133E+02  0.47000000000E+01 0.  1.
<mgrwt>
<rscale>  0 0.12837334E+03</rscale>
<asrwt>0</asrwt>
<pdfrwt beam="1">  1        5 0.68851842E-02 0.12837999E+03</pdfrwt>
<pdfrwt beam="2">  1       -5 0.58879795E-01 0.12837999E+03</pdfrwt>
<totfact> 0.28890137E+02</totfact>
</mgrwt>
</event>
<event>
 8    1  0.1865596E-007  0.1250702E+03  0.7546771E-02  0.1234961E+00
         -5   -1    0    0    0  501 -0.00000000000E+00  0.00000000000E+00  0.37941178537E+03  0.37944089511E+03  0.47000000000E+01 0.  1.
          5   -1    0    0  501    0  0.00000000000E+00 -0.00000000000E+00 -0.41251017500E+02  0.41517905110E+02  0.47000000000E+01 0.  1.
         25    2    1    2    0    0 -0.20441315757E+01 -0.37506459180E+01  0.18324219364E+03  0.22185498775E+03  0.12499475285E+03 0.  0.
         25    2    1    2    0    0  0.20441315757E+01  0.37506459180E+01  0.15491857423E+03  0.19910381247E+03  0.12499727069E+03 0.  0.
          5    1    3    3  502    0 -0.57714615944E+02  0.21066754033E+02  0.70720742203E+02  0.93799245182E+02  0.47000000000E+01 0.  1.
         -5    1    3    3    0  502  0.55670484368E+02 -0.24817399951E+02  0.11252145144E+03  0.12805574256E+03  0.47000000000E+01 0.  1.
          5    1    4    4  503    0  0.57670446613E+02 -0.29366218004E+01  0.11908898137E+03  0.13243405772E+03  0.47000000000E+01 0. -1.
         -5    1    4    4    0  503 -0.55626315037E+02  0.66872677183E+01  0.35829592868E+02  0.66669754756E+02  0.47000000000E+01 0. -1.
<mgrwt>
<rscale>  0 0.12506961E+03</rscale>
<asrwt>0</asrwt>
<pdfrwt beam="2">  1        5 0.63690796E-02 0.12507023E+03</pdfrwt>
<pdfrwt beam="1">  1       -5 0.58393811E-01 0.12507023E+03</pdfrwt>
<totfact> 0.33235844E+02</totfact>
</mgrwt>
</event>
<event>
 8    1  0.1865596E-007  0.1306133E+03  0.7546771E-02  0.1226554E+00
         -5   -1    0    0    0  501 -0.00000000000E+00  0.00000000000E+00  0.17666033563E+03  0.17672284568E+03  0.47000000000E+01 0.  1.
          5   -1    0    0  501    0  0.00000000000E+00 -0.00000000000E+00 -0.11872341341E+03  0.11881640834E+03  0.47000000000E+01 0.  1.
         25    2    1    2    0    0 -0.34659662162E+02 -0.15122419488E+02  0.92969037969E+02  0.16030948729E+03  0.12500363971E+03 0.  0.
         25    2    1    2    0    0  0.34659662162E+02  0.15122419488E+02 -0.35032115744E+02  0.13522976673E+03  0.12501944218E+03 0.  0.
          5    1    3    3  502    0 -0.46061043242E+02 -0.28000397021E+02 -0.10667711514E+02  0.55150086191E+02  0.47000000000E+01 0. -1.
         -5    1    3    3    0  502  0.11401381080E+02  0.12877977533E+02  0.10363674948E+03  0.10515940110E+03  0.47000000000E+01 0. -1.
          5    1    4    4  503    0  0.79051680048E+02  0.19889819874E+02 -0.62240928710E+01  0.81887742582E+02  0.47000000000E+01 0. -1.
         -5    1    4    4    0  503 -0.44392017886E+02 -0.47674003855E+01 -0.28808022873E+02  0.53342024149E+02  0.47000000000E+01 0. -1.
<mgrwt>
<rscale>  0 0.13060954E+03</rscale>
<asrwt>0</asrwt>
<pdfrwt beam="2">  1        5 0.18277102E-01 0.13061333E+03</pdfrwt>
<pdfrwt beam="1">  1       -5 0.27190475E-01 0.13061333E+03</pdfrwt>
<totfact> 0.25279594E+02</totfact>
</mgrwt>
</event>
<event>
 8    1  0.1865596E-007  0.2595704E+03  0.7546771E-02  0.1107403E+00
         -5   -1    0    0    0  501 -0.00000000000E+00  0.00000000000E+00  0.27310561720E+03  0.27314605643E+03  0.47000000000E+01 0. -1.
          5   -1    0    0  501    0  0.00000000000E+00 -0.00000000000E+00 -0.24750225725E+03  0.24754687908E+03  0.47000000000E+01 0. -1.
         25    2    1    2    0    0 -0.20811575427E+03 -0.91866304327E+02  0.28348943426E+02  0.26110806496E+03  0.12498869527E+03 0.  0.
         25    2    1    2    0    0  0.20811575427E+03  0.91866304327E+02 -0.27455834763E+01  0.25958487056E+03  0.12500072699E+03 0.  0.
          5    1    4    4  502    0 -0.21320200899E+01 -0.20444931576E+02  0.14548508335E+01  0.21136398174E+02  0.47000000000E+01 0. -1.
         -5    1    4    4    0  502  0.21024777436E+03  0.11231123590E+03 -0.42004343098E+01  0.23844847239E+03  0.47000000000E+01 0. -1.
          5    1    3    3  503    0 -0.16964065388E+03 -0.87185617832E+02  0.70734076727E+02  0.20348140705E+03  0.47000000000E+01 0. -1.
         -5    1    3    3    0  503 -0.38475100392E+02 -0.46806864951E+01 -0.42385133301E+02  0.57626657904E+02  0.47000000000E+01 0. -1.
<mgrwt>
<rscale>  0 0.25956890E+03</rscale>
<asrwt>0</asrwt>
<pdfrwt beam="2">  1        5 0.38083814E-01 0.25957035E+03</pdfrwt>
<pdfrwt beam="1">  1       -5 0.42022792E-01 0.25957035E+03</pdfrwt>
<totfact> 0.30839672E+01</totfact>
</mgrwt>
</event>
<event>
 8    1  0.1865596E-007  0.1354822E+03  0.7546771E-02  0.1219548E+00
         -5   -1    0    0    0  501 -0.00000000000E+00  0.00000000000E+00  0.17490309333E+03  0.17496623119E+03  0.47000000000E+01 0. -1.
          5   -1    0    0  501    0  0.00000000000E+00 -0.00000000000E+00 -0.12625020610E+03  0.12633766081E+03  0.47000000000E+01 0. -1.
         25    2    1    2    0    0 -0.81814048903E+01  0.51604416025E+02  0.86393115869E+02  0.16068353298E+03  0.12500190464E+03 0.  0.
         25    2    1    2    0    0  0.81814048903E+01 -0.51604416025E+02 -0.37740228635E+02  0.14062035902E+03  0.12497923577E+03 0.  0.
          5    1    4    4  502    0  0.41019454893E+02  0.25567334066E+02 -0.28003118350E+02  0.56058441722E+02  0.47000000000E+01 0.  1.
         -5    1    4    4    0  502 -0.32838050003E+02 -0.77171750090E+02 -0.97371102852E+01  0.84561917296E+02  0.47000000000E+01 0.  1.
          5    1    3    3  503    0  0.10865601926E+02 -0.39864947969E+02  0.21364129607E+02  0.46752448231E+02  0.47000000000E+01 0.  1.
         -5    1    3    3    0  503 -0.19047006816E+02  0.91469363994E+02  0.65028986263E+02  0.11393108475E+03  0.47000000000E+01 0.  1.
<mgrwt>
<rscale>  0 0.13547697E+03</rscale>
<asrwt>0</asrwt>
<pdfrwt beam="2">  1        5 0.19434693E-01 0.13548220E+03</pdfrwt>
<pdfrwt beam="1">  1       -5 0.26919752E-01 0.13548220E+03</pdfrwt>
<totfact> 0.23296732E+02</totfact>
</mgrwt>
</event>
<event>
 8    1  0.1865596E-007  0.1328812E+03  0.7546771E-02  0.1223242E+00
         -5   -1    0    0    0  501 -0.00000000000E+00  0.00000000000E+00  0.42333124365E+03  0.42335733352E+03  0.47000000000E+01 0.  1.
          5   -1    0    0  501    0  0.00000000000E+00 -0.00000000000E+00 -0.63425831104E+02  0.63599733106E+02  0.47000000000E+01 0.  1.
         25    2    1    2    0    0 -0.16577711531E+02  0.41914858433E+02  0.32266696060E+03  0.34895756986E+03  0.12500296885E+03 0.  0.
         25    2    1    2    0    0  0.16577711531E+02 -0.41914858433E+02  0.37238451937E+02  0.13799949676E+03  0.12500193169E+03 0.  0.
          5    1    3    3  502    0 -0.71892673409E+01  0.37192783626E+02  0.33196933312E+03  0.33415672498E+03  0.47000000000E+01 0. -1.
         -5    1    3    3    0  502 -0.93884441905E+01  0.47220748079E+01 -0.93023725152E+01  0.14800844882E+02  0.47000000000E+01 0. -1.
          5    1    4    4  503    0 -0.11845449243E+02  0.32109696979E+02 -0.20160253259E+02  0.39998413960E+02  0.47000000000E+01 0. -1.
         -5    1    4    4    0  503  0.28423160775E+02 -0.74024555413E+02  0.57398705197E+02  0.98001082804E+02  0.47000000000E+01 0. -1.
<mgrwt>
<rscale>  0 0.13288097E+03</rscale>
<asrwt>0</asrwt>
<pdfrwt beam="2">  1        5 0.97732039E-02 0.13288122E+03</pdfrwt>
<pdfrwt beam="1">  1       -5 0.65143269E-01 0.13288122E+03</pdfrwt>
<totfact> 0.12833602E+02</totfact>
</mgrwt>
</event>
<event>
 8    1  0.1865596E-007  0.1448787E+03  0.7546771E-02  0.1206913E+00
         -5   -1    0    0    0  501 -0.00000000000E+00  0.00000000000E+00  0.12595430270E+02  0.13443766722E+02  0.47000000000E+01 0. -1.
          5   -1    0    0  501    0  0.00000000000E+00 -0.00000000000E+00 -0.18833995779E+04  0.18834054423E+04  0.47000000000E+01 0. -1.
         25    2    1    2    0    0  0.66056528232E+02 -0.31631245666E+02 -0.57494429340E+03  0.59291569442E+03  0.12499631816E+03 0.  0.
         25    2    1    2    0    0 -0.66056528232E+02  0.31631245666E+02 -0.12958598542E+04  0.13039335146E+04  0.12500339208E+03 0.  0.
          5    1    4    4  502    0 -0.62479625399E+02  0.72901373777E+02 -0.10658401191E+04  0.10701661382E+04  0.47000000000E+01 0.  1.
         -5    1    4    4    0  502 -0.35769028331E+01 -0.41270128111E+02 -0.23001973511E+03  0.23376737635E+03  0.47000000000E+01 0.  1.
          5    1    3    3  503    0  0.57514770473E+02  0.61005035467E+01 -0.94504689570E+02  0.11089811232E+03  0.47000000000E+01 0.  1.
         -5    1    3    3    0  503  0.85417577592E+01 -0.37731749212E+02 -0.48043960383E+03  0.48201758210E+03  0.47000000000E+01 0.  1.
<mgrwt>
<rscale>  0 0.14487721E+03</rscale>
<asrwt>0</asrwt>
<pdfrwt beam="2">  1        5 0.28981927E+00 0.14487874E+03</pdfrwt>
<pdfrwt beam="1">  1       -5 0.20034678E-02 0.14487874E+03</pdfrwt>
<totfact> 0.27223890E+01</totfact>
</mgrwt>
</event>
<event>
 8    1  0.1865596E-007  0.1302250E+03  0.7546771E-02  0.1227123E+00
          5   -1    0    0  501    0  0.00000000000E+00  0.00000000000E+00  0.62133384767E+02  0.62310893932E+02  0.47000000000E+01 0. -1.
         -5   -1    0    0    0  501 -0.00000000000E+00 -0.00000000000E+00 -0.31288008124E+03  0.31291538031E+03  0.47000000000E+01 0. -1.
         25    2    1    2    0    0  0.36484290580E+02  0.13176038552E+01 -0.19287724793E+03  0.23272341039E+03  0.12500285371E+03 0.  0.
         25    2    1    2    0    0 -0.36484290580E+02 -0.13176038552E+01 -0.57869448545E+02  0.14250286386E+03  0.12500141437E+03 0.  0.
          5    1    3    3  502    0  0.73684534669E+02 -0.28950279797E+02 -0.14201455645E+03  0.16265839539E+03  0.47000000000E+01 0. -1.
         -5    1    3    3    0  502 -0.37200244089E+02  0.30267883652E+02 -0.50862691482E+02  0.70065014992E+02  0.47000000000E+01 0. -1.
          5    1    4    4  503    0  0.20674424602E+02 -0.12239538953E+02 -0.77211708633E+02  0.80999852447E+02  0.47000000000E+01 0.  1.
         -5    1    4    4    0  503 -0.57158715182E+02  0.10921935098E+02  0.19342260088E+02  0.61503011413E+02  0.47000000000E+01 0.  1.
<mgrwt>
<rscale>  0 0.13022466E+03</rscale>
<asrwt>0</asrwt>
<pdfrwt beam="1">  1        5 0.95753523E-02 0.13022501E+03</pdfrwt>
<pdfrwt beam="2">  1       -5 0.48151766E-01 0.13022501E+03</pdfrwt>
<totfact> 0.25367547E+02</totfact>
</mgrwt>
</event>
<event>
 8    1  0.1865596E-007  0.1277613E+03  0.7546771E-02  0.1230821E+00
          5   -1    0    0  501    0  0.00000000000E+00  0.00000000000E+00  0.38220808636E+02  0.38508703079E+02  0.47000000000E+01 0. -1.
         -5   -1    0    0    0  501 -0.00000000000E+00 -0.00000000000E+00 -0.55065502974E+03  0.55067508731E+03  0.47000000000E+01 0. -1.
         25    2    1    2    0    0 -0.11918764408E+02  0.23594029776E+02 -0.39684524844E+03  0.41690417532E+03  0.12499681999E+03 0.  0.
         25    2    1    2    0    0  0.11918764408E+02 -0.23594029776E+02 -0.11558897267E+03  0.17227961507E+03  0.12498287874E+03 0.  0.
          5    1    3    3  502    0  0.17273964415E+01  0.66440266508E+02 -0.12819504997E+03  0.14447613557E+03  0.47000000000E+01 0. -1.
         -5    1    3    3    0  502 -0.13646160849E+02 -0.42846236732E+02 -0.26865019846E+03  0.27242803975E+03  0.47000000000E+01 0. -1.
          5    1    4    4  503    0 -0.83212387178E+01  0.29428332707E+02 -0.11090349047E+03  0.11513880309E+03  0.47000000000E+01 0.  1.
         -5    1    4    4    0  503  0.20240003126E+02 -0.53022362483E+02 -0.46854822081E+01  0.57140811976E+02  0.47000000000E+01 0.  1.
<mgrwt>
<rscale>  0 0.12775785E+03</rscale>
<asrwt>0</asrwt>
<pdfrwt beam="1">  1        5 0.59038134E-02 0.12776126E+03</pdfrwt>
<pdfrwt beam="2">  1       -5 0.84739842E-01 0.12776126E+03</pdfrwt>
<totfact> 0.16444795E+02</totfact>
</mgrwt>
</event>
<event>
 8    1  0.1865596E-007  0.1819540E+03  0.7546771E-02  0.1165925E+00
         -5   -1    0    0    0  501 -0.00000000000E+00  0.00000000000E+00  0.22223800723E+03  0.22228770064E+03  0.47000000000E+01 0.  1.
          5   -1    0    0  501    0  0.00000000000E+00 -0.00000000000E+00 -0.25570512229E+03  0.25574831293E+03  0.47000000000E+01 0.  1.
         25    2    1    2    0    0  0.12134622971E+03  0.52516008480E+02  0.13773101397E+03  0.22820407632E+03  0.12499771848E+03 0.  0.
         25    2    1    2    0    0 -0.12134622971E+03 -0.52516008480E+02 -0.17119812904E+03  0.24983193725E+03  0.12499743547E+03 0.  0.
          5    1    4    4  502    0 -0.88558539015E+01 -0.41242454323E+02 -0.11682126749E+03  0.12429265756E+03  0.47000000000E+01 0. -1.
         -5    1    4    4    0  502 -0.11249037581E+03 -0.11273554157E+02 -0.54376861557E+02  0.12553927969E+03  0.47000000000E+01 0. -1.
          5    1    3    3  503    0 -0.81910057308E+01  0.23906725535E+02  0.78950729650E+02  0.83029704401E+02  0.47000000000E+01 0.  1.
         -5    1    3    3    0  503  0.12953723544E+03  0.28609282945E+02  0.58780284325E+02  0.14517437192E+03  0.47000000000E+01 0.  1.
<mgrwt>
<rscale>  0 0.18195398E+03</rscale>
<asrwt>0</asrwt>
<pdfrwt beam="2">  1        5 0.39346394E-01 0.18195403E+03</pdfrwt>
<pdfrwt beam="1">  1       -5 0.34197608E-01 0.18195403E+03</pdfrwt>
<totfact> 0.40262298E+01</totfact>
</mgrwt>
</event>
<event>
 8    1  0.1865596E-007  0.1345263E+03  0.7546771E-02  0.1220890E+00
         -5   -1    0    0    0  501 -0.00000000000E+00  0.00000000000E+00  0.95887027558E+02  0.96002146090E+02  0.47000000000E+01 0. -1.
          5   -1    0    0  501    0  0.00000000000E+00 -0.00000000000E+00 -0.23451074147E+03  0.23455783480E+03  0.47000000000E+01 0. -1.
         25    2    1    2    0    0 -0.31549722768E+02  0.38435366603E+02  0.38901705271E+01  0.13458250539E+03  0.12499861967E+03 0.  0.
         25    2    1    2    0    0  0.31549722768E+02 -0.38435366603E+02 -0.14251388444E+03  0.19597747550E+03  0.12499720489E+03 0.  0.
          5    1    4    4  502    0 -0.27128123543E+02 -0.59936601929E+02 -0.10160924276E+03  0.12113983470E+03  0.47000000000E+01 0.  1.
         -5    1    4    4    0  502  0.58677846311E+02  0.21501235326E+02 -0.40904641686E+02  0.74837640795E+02  0.47000000000E+01 0.  1.
          5    1    3    3  503    0 -0.62778659346E+02 -0.47524796449E+01 -0.31378369261E+02  0.70501334665E+02  0.47000000000E+01 0. -1.
         -5    1    3    3    0  503  0.31228936578E+02  0.43187846248E+02  0.35268539788E+02  0.64081170730E+02  0.47000000000E+01 0. -1.
<mgrwt>
<rscale>  0 0.13452594E+03</rscale>
<asrwt>0</asrwt>
<pdfrwt beam="2">  1        5 0.36091053E-01 0.13452627E+03</pdfrwt>
<pdfrwt beam="1">  1       -5 0.14764328E-01 0.13452627E+03</pdfrwt>
<totfact> 0.21569516E+02</totfact>
</mgrwt>
</event>
<event>
 8    1  0.1865596E-007  0.1288888E+03  0.7546771E-02  0.1229116E+00
          5   -1    0    0  501    0  0.00000000000E+00  0.00000000000E+00  0.37318309891E+03  0.37321269447E+03  0.47000000000E+01 0. -1.
         -5   -1    0    0    0  501 -0.00000000000E+00 -0.00000000000E+00 -0.47868559915E+02  0.48098742482E+02  0.47000000000E+01 0. -1.
         25    2    1    2    0    0 -0.29203794158E+02 -0.11524770583E+02  0.10576869374E+03  0.16672805119E+03  0.12500217818E+03 0.  0.
         25    2    1    2    0    0  0.29203794158E+02  0.11524770583E+02  0.21954584526E+03  0.25458338576E+03  0.12500656065E+03 0.  0.
          5    1    3    3  502    0 -0.70341287949E+02  0.23821171342E+02  0.59284988638E+02  0.95142760483E+02  0.47000000000E+01 0.  1.
         -5    1    3    3    0  502  0.41137493791E+02 -0.35345941926E+02  0.46483705097E+02  0.71585290707E+02  0.47000000000E+01 0.  1.
          5    1    4    4  503    0  0.19747395260E+02  0.66466963673E+02  0.15006977058E+03  0.16538090253E+03  0.47000000000E+01 0. -1.
         -5    1    4    4    0  503  0.94563988980E+01 -0.54942193090E+02  0.69476074677E+02  0.89202483228E+02  0.47000000000E+01 0. -1.
<mgrwt>
<rscale>  0 0.12888773E+03</rscale>
<asrwt>0</asrwt>
<pdfrwt beam="1">  1        5 0.57432768E-01 0.12888880E+03</pdfrwt>
<pdfrwt beam="2">  1       -5 0.73843767E-02 0.12888880E+03</pdfrwt>
<totfact> 0.27116084E+02</totfact>
</mgrwt>
</event>
<event>
 8    1  0.1865596E-007  0.1250048E+03  0.7546771E-02  0.1235065E+00
         -5   -1    0    0    0  501 -0.00000000000E+00  0.00000000000E+00  0.41397900371E+03  0.41400568294E+03  0.47000000000E+01 0. -1.
          5   -1    0    0  501    0  0.00000000000E+00 -0.00000000000E+00 -0.39332324755E+02  0.39612141708E+02  0.47000000000E+01 0. -1.
         25    2    1    2    0    0 -0.73986578194E+00  0.77695420928E+00  0.23514154244E+03  0.26630023652E+03  0.12499247948E+03 0.  0.
         25    2    1    2    0    0  0.73986578194E+00 -0.77695420928E+00  0.13950513651E+03  0.18731758813E+03  0.12500017861E+03 0.  0.
          5    1    4    4  502    0 -0.40198974875E+02  0.22266996959E+02  0.70869857539E+01  0.46734271169E+02  0.47000000000E+01 0.  1.
         -5    1    4    4    0  502  0.40938840657E+02 -0.23043951169E+02  0.13241815075E+03  0.14058331696E+03  0.47000000000E+01 0.  1.
          5    1    3    3  503    0 -0.55315250276E+02 -0.15894597947E+02  0.17016057139E+03  0.17969175054E+03  0.47000000000E+01 0. -1.
         -5    1    3    3    0  503  0.54575384494E+02  0.16671552156E+02  0.64980971053E+02  0.86608485976E+02  0.47000000000E+01 0. -1.
<mgrwt>
<rscale>  0 0.12500286E+03</rscale>
<asrwt>0</asrwt>
<pdfrwt beam="2">  1        5 0.60747035E-02 0.12500478E+03</pdfrwt>
<pdfrwt beam="1">  1       -5 0.63712655E-01 0.12500478E+03</pdfrwt>
<totfact> 0.29726439E+02</totfact>
</mgrwt>
</event>
<event>
 8    1  0.1865596E-007  0.1495718E+03  0.7546771E-02  0.1201001E+00
         -5   -1    0    0    0  501 -0.00000000000E+00  0.00000000000E+00  0.49986917498E+02  0.50207389107E+02  0.47000000000E+01 0.  1.
          5   -1    0    0  501    0  0.00000000000E+00 -0.00000000000E+00 -0.63663640863E+03  0.63665375739E+03  0.47000000000E+01 0.  1.
         25    2    1    2    0    0 -0.73791834718E+02 -0.36082964575E+02 -0.10558962272E+03  0.18308508043E+03  0.12499505210E+03 0.  0.
         25    2    1    2    0    0  0.73791834718E+02  0.36082964575E+02 -0.48105986841E+03  0.50377606606E+03  0.12499805012E+03 0.  0.
          5    1    3    3  502    0 -0.90401088046E+02 -0.45629090782E+02 -0.12114531053E+03  0.15796406841E+03  0.47000000000E+01 0.  1.
         -5    1    3    3    0  502  0.16609253329E+02  0.95461262069E+01  0.15555687813E+02  0.25121012022E+02  0.47000000000E+01 0.  1.
          5    1    4    4  503    0  0.47250393132E+02 -0.34675089869E+02 -0.32549203388E+03  0.33075990632E+03  0.47000000000E+01 0.  1.
         -5    1    4    4    0  503  0.26541441586E+02  0.70758054444E+02 -0.15556783454E+03  0.17301615974E+03  0.47000000000E+01 0.  1.
<mgrwt>
<rscale>  0 0.14957119E+03</rscale>
<asrwt>0</asrwt>
<pdfrwt beam="2">  1        5 0.97962351E-01 0.14957181E+03</pdfrwt>
<pdfrwt beam="1">  1       -5 0.77085893E-02 0.14957181E+03</pdfrwt>
<totfact> 0.78010224E+01</totfact>
</mgrwt>
</event>
<event>
 8    1  0.1865596E-007  0.1325496E+03  0.7546771E-02  0.1223722E+00
          5   -1    0    0  501    0  0.00000000000E+00  0.00000000000E+00  0.51619357382E+03  0.51621497039E+03  0.47000000000E+01 0.  1.
         -5   -1    0    0    0  501 -0.00000000000E+00 -0.00000000000E+00 -0.36782540990E+02  0.37081603548E+02  0.47000000000E+01 0.  1.
         25    2    1    2    0    0 -0.43810971091E+02 -0.48981909354E+01  0.16196141254E+03  0.20928662402E+03  0.12500399345E+03 0.  0.
         25    2    1    2    0    0  0.43810971091E+02  0.48981909354E+01  0.31744962030E+03  0.34400994992E+03  0.12500076303E+03 0.  0.
          5    1    3    3  502    0 -0.65911931813E+02 -0.45850421784E+02  0.12917596735E+03  0.15216821111E+03  0.47000000000E+01 0.  1.
         -5    1    3    3    0  502  0.22100960722E+02  0.40952230849E+02  0.32785445188E+02  0.57118412903E+02  0.47000000000E+01 0.  1.
          5    1    4    4  503    0 -0.21663778555E+02  0.15724174908E+02  0.24157132186E+03  0.24309537742E+03  0.47000000000E+01 0.  1.
         -5    1    4    4    0  503  0.65474749646E+02 -0.10825983973E+02  0.75878298440E+02  0.10091457251E+03  0.47000000000E+01 0.  1.
<mgrwt>
<rscale>  0 0.13254882E+03</rscale>
<asrwt>0</asrwt>
<pdfrwt beam="1">  1        5 0.79439050E-01 0.13254958E+03</pdfrwt>
<pdfrwt beam="2">  1       -5 0.56835030E-02 0.13254958E+03</pdfrwt>
<totfact> 0.20628238E+02</totfact>
</mgrwt>
</event>
<event>
 8    1  0.1865596E-007  0.1721939E+03  0.7546771E-02  0.1175580E+00
         -5   -1    0    0    0  501 -0.00000000000E+00  0.00000000000E+00  0.61488701731E+02  0.61668066619E+02  0.47000000000E+01 0. -1.
          5   -1    0    0  501    0  0.00000000000E+00 -0.00000000000E+00 -0.48291585791E+03  0.48293872885E+03  0.47000000000E+01 0. -1.
         25    2    1    2    0    0  0.59628652644E+02 -0.10232159581E+03 -0.19504704773E+03  0.26017987036E+03  0.12499971572E+03 0.  0.
         25    2    1    2    0    0 -0.59628652644E+02  0.10232159581E+03 -0.22638010846E+03  0.28442692511E+03  0.12500174814E+03 0.  0.
          5    1    3    3  502    0  0.98102784141E+02 -0.68364023252E+02 -0.14871726153E+03  0.19088402187E+03  0.47000000000E+01 0. -1.
         -5    1    3    3    0  502 -0.38474131497E+02 -0.33957572554E+02 -0.46329786200E+02  0.69295848487E+02  0.47000000000E+01 0. -1.
          5    1    4    4  503    0 -0.14805712926E+02  0.35797888175E+02 -0.19385041352E+03  0.19773914826E+03  0.47000000000E+01 0. -1.
         -5    1    4    4    0  503 -0.44822939719E+02  0.66523707631E+02 -0.32529694937E+02  0.86687776847E+02  0.47000000000E+01 0. -1.
<mgrwt>
<rscale>  0 0.17219348E+03</rscale>
<asrwt>0</asrwt>
<pdfrwt beam="2">  1        5 0.74310302E-01 0.17219385E+03</pdfrwt>
<pdfrwt beam="1">  1       -5 0.94753572E-02 0.17219385E+03</pdfrwt>
<totfact> 0.10916734E+02</totfact>
</mgrwt>
</event>
<event>
 8    1  0.1865596E-007  0.1553998E+03  0.7546771E-02  0.1194010E+00
         -5   -1    0    0    0  501 -0.00000000000E+00  0.00000000000E+00  0.49209912728E+03  0.49212157144E+03  0.47000000000E+01 0. -1.
          5   -1    0    0  501    0  0.00000000000E+00 -0.00000000000E+00 -0.49842136454E+02  0.50063245663E+02  0.47000000000E+01 0. -1.
         25    2    1    2    0    0  0.77591605378E+02  0.49824509480E+02  0.25803505393E+03  0.30121619623E+03  0.12508464672E+03 0.  0.
         25    2    1    2    0    0 -0.77591605378E+02 -0.49824509480E+02  0.18422193690E+03  0.24096862087E+03  0.12500086096E+03 0.  0.
          5    1    4    4  502    0 -0.49791385556E+02 -0.87821268735E+02  0.15600097384E+03  0.18587670956E+03  0.47000000000E+01 0.  1.
         -5    1    4    4    0  502 -0.27800219822E+02  0.37996759255E+02  0.28220963062E+02  0.55091911313E+02  0.47000000000E+01 0.  1.
          5    1    3    3  503    0  0.95908361140E+02 -0.34975005928E+01  0.18845949756E+03  0.21154129258E+03  0.47000000000E+01 0.  1.
         -5    1    3    3    0  503 -0.18316755762E+02  0.53322010072E+02  0.69575556367E+02  0.89674903645E+02  0.47000000000E+01 0.  1.
<mgrwt>
<rscale>  0 0.15538297E+03</rscale>
<asrwt>0</asrwt>
<pdfrwt beam="2">  1        5 0.76867558E-02 0.15539983E+03</pdfrwt>
<pdfrwt beam="1">  1       -5 0.75726294E-01 0.15539983E+03</pdfrwt>
<totfact> 0.14550496E+02</totfact>
</mgrwt>
</event>
<event>
 8    1  0.1865596E-007  0.1376239E+03  0.7546771E-02  0.1216563E+00
          5   -1    0    0  501    0  0.00000000000E+00  0.00000000000E+00  0.51619168938E+02  0.51832698192E+02  0.47000000000E+01 0. -1.
         -5   -1    0    0    0  501 -0.00000000000E+00 -0.00000000000E+00 -0.39433228571E+03  0.39436029408E+03  0.47000000000E+01 0. -1.
         25    2    1    2    0    0 -0.12899656109E+02 -0.56111303012E+02 -0.23120834153E+03  0.26906810888E+03  0.12500188226E+03 0.  0.
         25    2    1    2    0    0  0.12899656109E+02  0.56111303012E+02 -0.11150477523E+03  0.17712488340E+03  0.12500011986E+03 0.  0.
          5    1    3    3  502    0  0.40534226460E+02 -0.43669534740E+02 -0.44791495386E+02  0.74688820034E+02  0.47000000000E+01 0. -1.
         -5    1    3    3    0  502 -0.53433882569E+02 -0.12441768272E+02 -0.18641684615E+03  0.19437928885E+03  0.47000000000E+01 0. -1.
          5    1    4    4  503    0  0.39891518127E+02 -0.96883908962E+01 -0.95526810432E+02  0.10408006364E+03  0.47000000000E+01 0. -1.
         -5    1    4    4    0  503 -0.26991862018E+02  0.65799693909E+02 -0.15977964802E+02  0.73044819754E+02  0.47000000000E+01 0. -1.
<mgrwt>
<rscale>  0 0.13762354E+03</rscale>
<asrwt>0</asrwt>
<pdfrwt beam="1">  1        5 0.79599907E-02 0.13762394E+03</pdfrwt>
<pdfrwt beam="2">  1       -5 0.60685083E-01 0.13762394E+03</pdfrwt>
<totfact> 0.21639659E+02</totfact>
</mgrwt>
</event>
<event>
 8    1  0.1865596E-007  0.1371998E+03  0.7546771E-02  0.1217148E+00
         -5   -1    0    0    0  501 -0.00000000000E+00  0.00000000000E+00  0.64041916152E+03  0.64043640780E+03  0.47000000000E+01 0.  1.
          5   -1    0    0  501    0  0.00000000000E+00 -0.00000000000E+00 -0.30578064053E+02  0.30937162139E+02  0.47000000000E+01 0.  1.
         25    2    1    2    0    0  0.56502094953E+02 -0.22725722841E+01  0.37607279957E+03  0.40031803647E+03  0.12500451363E+03 0.  0.
         25    2    1    2    0    0 -0.56502094953E+02  0.22725722841E+01  0.23376829789E+03  0.27105553347E+03  0.12500333518E+03 0.  0.
          5    1    4    4  502    0 -0.65221809574E+02  0.35101236954E+02  0.64434571224E+02  0.98284715234E+02  0.47000000000E+01 0. -1.
         -5    1    4    4    0  502  0.87197146213E+01 -0.32828664669E+02  0.16933372667E+03  0.17277081824E+03  0.47000000000E+01 0. -1.
          5    1    3    3  503    0 -0.30621620823E+02  0.29317772418E+02  0.90506095531E+02  0.10005327966E+03  0.47000000000E+01 0. -1.
         -5    1    3    3    0  503  0.87123715776E+02 -0.31590344702E+02  0.28556670404E+03  0.30026475682E+03  0.47000000000E+01 0. -1.
<mgrwt>
<rscale>  0 0.13719951E+03</rscale>
<asrwt>0</asrwt>
<pdfrwt beam="2">  1        5 0.47332676E-02 0.13719978E+03</pdfrwt>
<pdfrwt beam="1">  1       -5 0.98554964E-01 0.13719978E+03</pdfrwt>
<totfact> 0.16997387E+02</totfact>
</mgrwt>
</event>
<event>
 8    1  0.1865596E-007  0.1281169E+03  0.7546771E-02  0.1230278E+00
         -5   -1    0    0    0  501 -0.00000000000E+00  0.00000000000E+00  0.18722942998E+04  0.18723001990E+04  0.47000000000E+01 0. -1.
          5   -1    0    0  501    0  0.00000000000E+00 -0.00000000000E+00 -0.10372502140E+02  0.11387660016E+02  0.47000000000E+01 0. -1.
         25    2    1    2    0    0 -0.26491193894E+02 -0.95314109059E+01  0.13465457237E+04  0.13526268212E+04  0.12498520044E+03 0.  0.
         25    2    1    2    0    0  0.26491193894E+02  0.95314109059E+01  0.51537607403E+03  0.53106103784E+03  0.12498278711E+03 0.  0.
          5    1    4    4  502    0  0.61315854703E+02  0.46425579556E+02  0.32096031115E+03  0.33007965677E+03  0.47000000000E+01 0. -1.
         -5    1    4    4    0  502 -0.34824660809E+02 -0.36894168651E+02  0.19441576288E+03  0.20098138107E+03  0.47000000000E+01 0. -1.
          5    1    3    3  503    0 -0.19981876199E+02 -0.20145133633E+02  0.13340865475E+04  0.13343965333E+04  0.47000000000E+01 0.  1.
         -5    1    3    3    0  503 -0.65093176950E+01  0.10613722727E+02  0.12459176178E+02  0.18230287930E+02  0.47000000000E+01 0.  1.
<mgrwt>
<rscale>  0 0.12811628E+03</rscale>
<asrwt>0</asrwt>
<pdfrwt beam="2">  1        5 0.16743117E-02 0.12811687E+03</pdfrwt>
<pdfrwt beam="1">  1       -5 0.28812394E+00 0.12811687E+03</pdfrwt>
<totfact> 0.35917130E+01</totfact>
</mgrwt>
</event>
<event>
 8    1  0.1865596E-007  0.1943188E+03  0.7546771E-02  0.1154629E+00
         -5   -1    0    0    0  501 -0.00000000000E+00  0.00000000000E+00  0.12825934645E+03  0.12834543214E+03  0.47000000000E+01 0. -1.
          5   -1    0    0  501    0  0.00000000000E+00 -0.00000000000E+00 -0.32041013491E+03  0.32044460450E+03  0.47000000000E+01 0. -1.
         25    2    1    2    0    0  0.13268038999E+03 -0.67223030006E+02 -0.31846252846E+02  0.19688260380E+03  0.12500221681E+03 0.  0.
         25    2    1    2    0    0 -0.13268038999E+03  0.67223030006E+02 -0.16030453561E+03  0.25190743284E+03  0.12504714683E+03 0.  0.
          5    1    4    4  502    0  0.91032012461E+01  0.43957178626E+02 -0.15139923030E+02  0.47606817737E+02  0.47000000000E+01 0.  1.
         -5    1    4    4    0  502 -0.14178359124E+03  0.23265851379E+02 -0.14516461258E+03  0.20430061510E+03  0.47000000000E+01 0.  1.
          5    1    3    3  503    0  0.44187881946E+02 -0.85582109112E+02 -0.43216276926E+02  0.10567214819E+03  0.47000000000E+01 0.  1.
         -5    1    3    3    0  503  0.88492508047E+02  0.18359079106E+02  0.11370024079E+02  0.91210455616E+02  0.47000000000E+01 0.  1.
<mgrwt>
<rscale>  0 0.19431161E+03</rscale>
<asrwt>0</asrwt>
<pdfrwt beam="2">  1        5 0.49303140E-01 0.19431884E+03</pdfrwt>
<pdfrwt beam="1">  1       -5 0.19741481E-01 0.19431884E+03</pdfrwt>
<totfact> 0.74241679E+01</totfact>
</mgrwt>
</event>
<event>
 8    1  0.1865596E-007  0.2255841E+03  0.7546771E-02  0.1129787E+00
         -5   -1    0    0    0  501 -0.00000000000E+00  0.00000000000E+00  0.26727754142E+03  0.26731886231E+03  0.47000000000E+01 0. -1.
          5   -1    0    0  501    0  0.00000000000E+00 -0.00000000000E+00 -0.19037382413E+03  0.19043183272E+03  0.47000000000E+01 0. -1.
         25    2    1    2    0    0  0.14449748141E+03 -0.11993018457E+03  0.34188011452E+02  0.22816004334E+03  0.12500165577E+03 0.  0.
         25    2    1    2    0    0 -0.14449748141E+03  0.11993018457E+03  0.42715705833E+02  0.22959065169E+03  0.12499785803E+03 0.  0.
          5    1    4    4  502    0 -0.16374753840E+03  0.88161132051E+02  0.47075456874E+02  0.19189536257E+03  0.47000000000E+01 0. -1.
         -5    1    4    4    0  502  0.19250056991E+02  0.31769052524E+02 -0.43597510412E+01  0.37695289116E+02  0.47000000000E+01 0. -1.
          5    1    3    3  503    0  0.37579914889E+02  0.22005093865E+02  0.24377802929E+02  0.50128249867E+02  0.47000000000E+01 0.  1.
         -5    1    3    3    0  503  0.10691756652E+03 -0.14193527844E+03  0.98102085227E+01  0.17803179348E+03  0.47000000000E+01 0.  1.
<mgrwt>
<rscale>  0 0.22558357E+03</rscale>
<asrwt>0</asrwt>
<pdfrwt beam="2">  1        5 0.29295921E-01 0.22558410E+03</pdfrwt>
<pdfrwt beam="1">  1       -5 0.41127262E-01 0.22558410E+03</pdfrwt>
<totfact> 0.52889799E+01</totfact>
</mgrwt>
</event>
<event>
 8    1  0.1865596E-007  0.1464518E+03  0.7546771E-02  0.1204903E+00
         -5   -1    0    0    0  501 -0.00000000000E+00  0.00000000000E+00  0.10160006131E+03  0.10170871378E+03  0.47000000000E+01 0. -1.
          5   -1    0    0  501    0  0.00000000000E+00 -0.00000000000E+00 -0.21551166016E+03  0.21556290420E+03  0.47000000000E+01 0. -1.
         25    2    1    2    0    0 -0.55343725620E+02 -0.52532357770E+02 -0.33633071084E+02  0.15026032661E+03  0.12499762279E+03 0.  0.
         25    2    1    2    0    0  0.55343725620E+02  0.52532357770E+02 -0.80278527767E+02  0.16701129137E+03  0.12500221137E+03 0.  0.
          5    1    3    3  502    0  0.28154321325E+02 -0.42000353092E+02  0.14993664709E+02  0.52948989136E+02  0.47000000000E+01 0.  1.
         -5    1    3    3    0  502 -0.83498046945E+02 -0.10532004678E+02 -0.48626735793E+02  0.97311337469E+02  0.47000000000E+01 0.  1.
          5    1    4    4  503    0  0.22087833721E+02  0.33805560149E+02 -0.11073176599E+03  0.11795890087E+03  0.47000000000E+01 0. -1.
         -5    1    4    4    0  503  0.33255891898E+02  0.18726797621E+02  0.30453238226E+02  0.49052390498E+02  0.47000000000E+01 0. -1.
<mgrwt>
<rscale>  0 0.14645082E+03</rscale>
<asrwt>0</asrwt>
<pdfrwt beam="2">  1        5 0.33167940E-01 0.14645180E+03</pdfrwt>
<pdfrwt beam="1">  1       -5 0.15643078E-01 0.14645180E+03</pdfrwt>
<totfact> 0.23667004E+02</totfact>
</mgrwt>
</event>
<event>
 8    1  0.1865596E-007  0.1330138E+03  0.7546771E-02  0.1223053E+00
         -5   -1    0    0    0  501 -0.00000000000E+00  0.00000000000E+00  0.84559775410E+03  0.84561081577E+03  0.47000000000E+01 0. -1.
          5   -1    0    0  501    0  0.00000000000E+00 -0.00000000000E+00 -0.20826508355E+02  0.21350256445E+02  0.47000000000E+01 0. -1.
         25    2    1    2    0    0  0.28087529284E+02  0.35756211601E+02  0.37244943998E+03  0.39548864502E+03  0.12500106813E+03 0.  0.
         25    2    1    2    0    0 -0.28087529284E+02 -0.35756211601E+02  0.45232180577E+03  0.47147242719E+03  0.12499527052E+03 0.  0.
          5    1    4    4  502    0 -0.11433667689E+02  0.11308252335E+02  0.39482766681E+03  0.39518297256E+03  0.47000000000E+01 0. -1.
         -5    1    4    4    0  502 -0.16653861595E+02 -0.47064463936E+02  0.57494138961E+02  0.76289454622E+02  0.47000000000E+01 0. -1.
          5    1    3    3  503    0 -0.11206476623E+02 -0.40545263663E+02  0.77930689280E+02  0.88683627888E+02  0.47000000000E+01 0. -1.
         -5    1    3    3    0  503  0.39294005908E+02  0.76301475264E+02  0.29451875070E+03  0.30680501713E+03  0.47000000000E+01 0. -1.
<mgrwt>
<rscale>  0 0.13301248E+03</rscale>
<asrwt>0</asrwt>
<pdfrwt beam="2">  1        5 0.32453714E-02 0.13301385E+03</pdfrwt>
<pdfrwt beam="1">  1       -5 0.13013325E+00 0.13301385E+03</pdfrwt>
<totfact> 0.15541595E+02</totfact>
</mgrwt>
</event>
<event>
 8    1  0.1865596E-007  0.1703094E+03  0.7546771E-02  0.1177526E+00
          5   -1    0    0  501    0  0.00000000000E+00  0.00000000000E+00  0.80722999014E+02  0.80859709187E+02  0.47000000000E+01 0.  1.
         -5   -1    0    0    0  501 -0.00000000000E+00 -0.00000000000E+00 -0.38674968629E+03  0.38677824376E+03  0.47000000000E+01 0.  1.
         25    2    1    2    0    0  0.68578402453E+02  0.93146916026E+02 -0.21579107749E+03  0.27490194812E+03  0.12500378678E+03 0.  0.
         25    2    1    2    0    0 -0.68578402453E+02 -0.93146916026E+02 -0.90235609786E+02  0.19273600483E+03  0.12500142813E+03 0.  0.
          5    1    3    3  502    0  0.40001300245E+02  0.12177663155E+03 -0.17758432007E+03  0.21906148166E+03  0.47000000000E+01 0.  1.
         -5    1    3    3    0  502  0.28577102208E+02 -0.28629715527E+02 -0.38206757422E+02  0.55840466460E+02  0.47000000000E+01 0.  1.
          5    1    4    4  503    0 -0.32433995727E+02 -0.12025775803E+03 -0.70587111365E+02  0.14324288023E+03  0.47000000000E+01 0.  1.
         -5    1    4    4    0  503 -0.36144406726E+02  0.27110842007E+02 -0.19648498422E+02  0.49493124595E+02  0.47000000000E+01 0.  1.
<mgrwt>
<rscale>  0 0.17030897E+03</rscale>
<asrwt>0</asrwt>
<pdfrwt beam="1">  1        5 0.12431636E-01 0.17030940E+03</pdfrwt>
<pdfrwt beam="2">  1       -5 0.59512663E-01 0.17030940E+03</pdfrwt>
<totfact> 0.11085764E+02</totfact>
</mgrwt>
</event>
<event>
 8    1  0.1865596E-007  0.2209094E+03  0.7546771E-02  0.1133207E+00
          5   -1    0    0  501    0  0.00000000000E+00  0.00000000000E+00  0.21312818549E+03  0.21318000246E+03  0.47000000000E+01 0.  1.
         -5   -1    0    0    0  501 -0.00000000000E+00 -0.00000000000E+00 -0.27064590455E+03  0.27068671125E+03  0.47000000000E+01 0.  1.
         25    2    1    2    0    0  0.31312481246E+02 -0.17942992137E+03 -0.12379343117E+03  0.25322971233E+03  0.12499962177E+03 0.  0.
         25    2    1    2    0    0 -0.31312481246E+02  0.17942992137E+03  0.66275712117E+02  0.23063700138E+03  0.12500155289E+03 0.  0.
          5    1    4    4  502    0 -0.15316292551E+02  0.19046563571E+03  0.79126808601E+02  0.20686925592E+03  0.47000000000E+01 0.  1.
         -5    1    4    4    0  502 -0.15996188694E+02 -0.11035714341E+02 -0.12851096483E+02  0.23767745467E+02  0.47000000000E+01 0.  1.
          5    1    3    3  503    0 -0.15624480059E+01 -0.49575061393E+02 -0.10714957704E+03  0.11816619574E+03  0.47000000000E+01 0. -1.
         -5    1    3    3    0  503  0.32874929251E+02 -0.12985485997E+03 -0.16643854129E+02  0.13506351659E+03  0.47000000000E+01 0. -1.
<mgrwt>
<rscale>  0 0.22090911E+03</rscale>
<asrwt>0</asrwt>
<pdfrwt beam="1">  1        5 0.32796076E-01 0.22090939E+03</pdfrwt>
<pdfrwt beam="2">  1       -5 0.41644957E-01 0.22090939E+03</pdfrwt>
<totfact> 0.40958894E+01</totfact>
</mgrwt>
</event>
<event>
 8    1  0.1865596E-007  0.1313544E+03  0.7546771E-02  0.1225467E+00
          5   -1    0    0  501    0  0.00000000000E+00  0.00000000000E+00  0.28386178332E+02  0.28772645347E+02  0.47000000000E+01 0.  1.
         -5   -1    0    0    0  501 -0.00000000000E+00 -0.00000000000E+00 -0.66976891724E+03  0.66978540780E+03  0.47000000000E+01 0.  1.
         25    2    1    2    0    0  0.20968679064E+02  0.34447945251E+02 -0.43076857473E+03  0.45035045596E+03  0.12501048666E+03 0.  0.
         25    2    1    2    0    0 -0.20968679064E+02 -0.34447945251E+02 -0.21061416418E+03  0.24820759719E+03  0.12498935441E+03 0.  0.
          5    1    3    3  502    0 -0.32437681218E+02 -0.29605645508E+02 -0.20297776227E+03  0.20772760863E+03  0.47000000000E+01 0.  1.
         -5    1    3    3    0  502  0.53406360282E+02  0.64053590759E+02 -0.22779081246E+03  0.24262284733E+03  0.47000000000E+01 0.  1.
          5    1    4    4  503    0 -0.13891305931E+02  0.46290641924E+02 -0.98123630111E+02  0.10948117964E+03  0.47000000000E+01 0.  1.
         -5    1    4    4    0  503 -0.70773731334E+01 -0.80738587175E+02 -0.11249053407E+03  0.13872641754E+03  0.47000000000E+01 0.  1.
<mgrwt>
<rscale>  0 0.13134933E+03</rscale>
<asrwt>0</asrwt>
<pdfrwt beam="1">  1        5 0.43981016E-02 0.13135436E+03</pdfrwt>
<pdfrwt beam="2">  1       -5 0.10307236E+00 0.13135436E+03</pdfrwt>
<totfact> 0.16954819E+02</totfact>
</mgrwt>
</event>
<event>
 8    1  0.1865596E-007  0.1345457E+03  0.7546771E-02  0.1220862E+00
         -5   -1    0    0    0  501 -0.00000000000E+00  0.00000000000E+00  0.17528482678E+04  0.17528545690E+04  0.47000000000E+01 0.  1.
          5   -1    0    0  501    0  0.00000000000E+00 -0.00000000000E+00 -0.11020047090E+02  0.11980460670E+02  0.47000000000E+01 0.  1.
         25    2    1    2    0    0  0.29447748063E+02 -0.40141544683E+02  0.11533841025E+04  0.11612051511E+04  0.12499600632E+03 0.  0.
         25    2    1    2    0    0 -0.29447748063E+02  0.40141544683E+02  0.58844411827E+03  0.60362987858E+03  0.12499614599E+03 0.  0.
          5    1    4    4  502    0 -0.53396060021E+02 -0.25745276634E+02  0.19165904931E+03  0.20067197033E+03  0.47000000000E+01 0. -1.
         -5    1    4    4    0  502  0.23948311958E+02  0.65886821317E+02  0.39678506896E+03  0.40295790825E+03  0.47000000000E+01 0. -1.
          5    1    3    3  503    0  0.38655714946E+01 -0.12601916247E+02  0.10644191539E+04  0.10645111442E+04  0.47000000000E+01 0.  1.
         -5    1    3    3    0  503  0.25582176569E+02 -0.27539628435E+02  0.88964948526E+02  0.96694006839E+02  0.47000000000E+01 0.  1.
<mgrwt>
<rscale>  0 0.13454568E+03</rscale>
<asrwt>0</asrwt>
<pdfrwt beam="2">  1        5 0.17697536E-02 0.13454572E+03</pdfrwt>
<pdfrwt beam="1">  1       -5 0.26974347E+00 0.13454572E+03</pdfrwt>
<totfact> 0.43494861E+01</totfact>
</mgrwt>
</event>
<event>
 8    1  0.1865596E-007  0.1349501E+03  0.7546771E-02  0.1220290E+00
          5   -1    0    0  501    0  0.00000000000E+00  0.00000000000E+00  0.64537497749E+02  0.64708412249E+02  0.47000000000E+01 0.  1.
         -5   -1    0    0    0  501 -0.00000000000E+00 -0.00000000000E+00 -0.29059797192E+03  0.29063597727E+03  0.47000000000E+01 0.  1.
         25    2    1    2    0    0  0.30251917082E+02  0.40885010624E+02 -0.14424625709E+03  0.19753103297E+03  0.12499905488E+03 0.  0.
         25    2    1    2    0    0 -0.30251917082E+02 -0.40885010624E+02 -0.81814217085E+02  0.15781335655E+03  0.12499890723E+03 0.  0.
          5    1    3    3  502    0  0.11228108271E+02  0.13541862084E+02 -0.15954149304E+03  0.16057717909E+03  0.47000000000E+01 0.  1.
         -5    1    3    3    0  502  0.19023808811E+02  0.27343148540E+02  0.15295235948E+02  0.36953853878E+02  0.47000000000E+01 0.  1.
          5    1    4    4  503    0 -0.61165767140E+02 -0.13669343275E+02 -0.95353925199E+02  0.11420404137E+03  0.47000000000E+01 0.  1.
         -5    1    4    4    0  503  0.30913850058E+02 -0.27215667348E+02  0.13539708114E+02  0.43609315180E+02  0.47000000000E+01 0.  1.
<mgrwt>
<rscale>  0 0.13495005E+03</rscale>
<asrwt>0</asrwt>
<pdfrwt beam="1">  1        5 0.99449167E-02 0.13495009E+03</pdfrwt>
<pdfrwt beam="2">  1       -5 0.44723450E-01 0.13495009E+03</pdfrwt>
<totfact> 0.28066982E+02</totfact>
</mgrwt>
</event>
<event>
 8    1  0.1865596E-007  0.1263271E+03  0.7546771E-02  0.1233011E+00
         -5   -1    0    0    0  501 -0.00000000000E+00  0.00000000000E+00  0.95421415712E+02  0.95537095290E+02  0.47000000000E+01 0.  1.
          5   -1    0    0  501    0  0.00000000000E+00 -0.00000000000E+00 -0.17254837312E+03  0.17261237229E+03  0.47000000000E+01 0.  1.
         25    2    1    2    0    0  0.15464387589E+02 -0.97061787356E+01 -0.14508362462E+02  0.12715747620E+03  0.12500069593E+03 0.  0.
         25    2    1    2    0    0 -0.15464387589E+02  0.97061787356E+01 -0.62618594949E+02  0.14099199138E+03  0.12499718401E+03 0.  0.
          5    1    4    4  502    0 -0.54976535938E+02  0.41627139232E+02 -0.57154127937E+02  0.89687917607E+02  0.47000000000E+01 0.  1.
         -5    1    4    4    0  502  0.39512148348E+02 -0.31920960497E+02 -0.54644670121E+01  0.51304073774E+02  0.47000000000E+01 0.  1.
          5    1    3    3  503    0 -0.41470296991E+02  0.34408071554E+02 -0.81248450494E+01  0.54697385931E+02  0.47000000000E+01 0.  1.
         -5    1    3    3    0  503  0.56934684580E+02 -0.44114250290E+02 -0.63835174121E+01  0.72460090267E+02  0.47000000000E+01 0.  1.
<mgrwt>
<rscale>  0 0.12632621E+03</rscale>
<asrwt>0</asrwt>
<pdfrwt beam="2">  1        5 0.26559725E-01 0.12632708E+03</pdfrwt>
<pdfrwt beam="1">  1       -5 0.14694039E-01 0.12632708E+03</pdfrwt>
<totfact> 0.38906884E+02</totfact>
</mgrwt>
</event>
<event>
 8    1  0.1865596E-007  0.1277610E+03  0.7546771E-02  0.1230817E+00
         -5   -1    0    0    0  501 -0.00000000000E+00  0.00000000000E+00  0.92609261026E+02  0.92728448859E+02  0.47000000000E+01 0. -1.
          5   -1    0    0  501    0  0.00000000000E+00 -0.00000000000E+00 -0.18111851366E+03  0.18117948557E+03  0.47000000000E+01 0. -1.
         25    2    1    2    0    0 -0.19305551511E+02 -0.18023241602E+02 -0.21219305634E+02  0.12950983115E+03  0.12499998351E+03 0.  0.
         25    2    1    2    0    0  0.19305551511E+02  0.18023241602E+02 -0.67289947000E+02  0.14439810327E+03  0.12500133481E+03 0.  0.
          5    1    3    3  502    0  0.52961357522E+02 -0.14593189070E+02 -0.11984751277E+02  0.56423318061E+02  0.47000000000E+01 0.  1.
         -5    1    3    3    0  502 -0.72266909033E+02 -0.34300525322E+01 -0.92345543563E+01  0.73086513091E+02  0.47000000000E+01 0.  1.
          5    1    4    4  503    0  0.25409593470E+02 -0.40877626345E+02  0.74460256759E+01  0.48930165279E+02  0.47000000000E+01 0. -1.
         -5    1    4    4    0  503 -0.61040419587E+01  0.58900867947E+02 -0.74735972676E+02  0.95467937994E+02  0.47000000000E+01 0. -1.
<mgrwt>
<rscale>  0 0.12776068E+03</rscale>
<asrwt>0</asrwt>
<pdfrwt beam="2">  1        5 0.27878245E-01 0.12776101E+03</pdfrwt>
<pdfrwt beam="1">  1       -5 0.14261437E-01 0.12776101E+03</pdfrwt>
<totfact> 0.37542632E+02</totfact>
</mgrwt>
</event>
<event>
 8    1  0.1865596E-007  0.1375787E+03  0.7546771E-02  0.1216626E+00
          5   -1    0    0  501    0  0.00000000000E+00  0.00000000000E+00  0.66216186347E+03  0.66217854347E+03  0.47000000000E+01 0. -1.
         -5   -1    0    0    0  501 -0.00000000000E+00 -0.00000000000E+00 -0.28433421428E+02  0.28819254920E+02  0.47000000000E+01 0. -1.
         25    2    1    2    0    0 -0.15697956106E+02  0.55281176300E+02  0.30113160293E+03  0.33106925474E+03  0.12499669946E+03 0.  0.
         25    2    1    2    0    0  0.15697956106E+02 -0.55281176300E+02  0.33259683911E+03  0.35992854365E+03  0.12500185945E+03 0.  0.
          5    1    3    3  502    0 -0.59004597924E+02 -0.88805742878E+01  0.13933596927E+03  0.15164764920E+03  0.47000000000E+01 0.  1.
         -5    1    3    3    0  502  0.43306641819E+02  0.64161750588E+02  0.16179563366E+03  0.17942160554E+03  0.47000000000E+01 0.  1.
          5    1    4    4  503    0 -0.44331670737E+02  0.13090446385E+02  0.11441876235E+03  0.12349250987E+03  0.47000000000E+01 0. -1.
         -5    1    4    4    0  503  0.60029626843E+02 -0.68371622685E+02  0.21817807677E+03  0.23643603378E+03  0.47000000000E+01 0. -1.
<mgrwt>
<rscale>  0 0.13757753E+03</rscale>
<asrwt>0</asrwt>
<pdfrwt beam="1">  1        5 0.10190201E+00 0.13757870E+03</pdfrwt>
<pdfrwt beam="2">  1       -5 0.44053354E-02 0.13757870E+03</pdfrwt>
<totfact> 0.17657941E+02</totfact>
</mgrwt>
</event>
<event>
 8    1  0.1865596E-007  0.1541721E+03  0.7546771E-02  0.1195438E+00
          5   -1    0    0  501    0  0.00000000000E+00  0.00000000000E+00  0.42141456109E+03  0.42144076962E+03  0.47000000000E+01 0.  1.
         -5   -1    0    0    0  501 -0.00000000000E+00 -0.00000000000E+00 -0.59020922849E+02  0.59207764136E+02  0.47000000000E+01 0.  1.
         25    2    1    2    0    0 -0.46140380434E+02 -0.77557599012E+02  0.12947115772E+03  0.20132513044E+03  0.12499964638E+03 0.  0.
         25    2    1    2    0    0  0.46140380434E+02  0.77557599012E+02  0.23292248053E+03  0.27932340332E+03  0.12499826333E+03 0.  0.
          5    1    3    3  502    0  0.19412551122E+01 -0.18639824796E+02  0.12338691339E+03  0.12489047976E+03  0.47000000000E+01 0. -1.
         -5    1    3    3    0  502 -0.48081635546E+02 -0.58917774216E+02  0.60842443305E+01  0.76434650679E+02  0.47000000000E+01 0. -1.
          5    1    4    4  503    0 -0.21239013709E+02  0.73717349890E+02  0.74410918539E+02  0.10697858747E+03  0.47000000000E+01 0. -1.
         -5    1    4    4    0  503  0.67379394142E+02  0.38402491220E+01  0.15851156199E+03  0.17234481585E+03  0.47000000000E+01 0. -1.
<mgrwt>
<rscale>  0 0.15417179E+03</rscale>
<asrwt>0</asrwt>
<pdfrwt beam="1">  1        5 0.64849398E-01 0.15417207E+03</pdfrwt>
<pdfrwt beam="2">  1       -5 0.90965304E-02 0.15417207E+03</pdfrwt>
<totfact> 0.15410164E+02</totfact>
</mgrwt>
</event>
<event>
 8    1  0.1865596E-007  0.1749693E+03  0.7546771E-02  0.1172771E+00
          5   -1    0    0  501    0  0.00000000000E+00  0.00000000000E+00  0.38042267378E+03  0.38045170616E+03  0.47000000000E+01 0. -1.
         -5   -1    0    0    0  501 -0.00000000000E+00 -0.00000000000E+00 -0.84005755429E+02  0.84137131786E+02  0.47000000000E+01 0. -1.
         25    2    1    2    0    0 -0.36390653788E+02 -0.11689905603E+03  0.99839414246E+02  0.20142167609E+03  0.12495244686E+03 0.  0.
         25    2    1    2    0    0  0.36390653788E+02  0.11689905603E+03  0.19657750410E+03  0.26316716186E+03  0.12499828390E+03 0.  0.
          5    1    4    4  502    0  0.50694337906E+02  0.67971249346E+02  0.31902353256E+02  0.90718558061E+02  0.47000000000E+01 0.  1.
         -5    1    4    4    0  502 -0.14303684117E+02  0.48927806689E+02  0.16467515084E+03  0.17244860380E+03  0.47000000000E+01 0.  1.
          5    1    3    3  503    0 -0.14239021195E+02 -0.13439241785E+03  0.50428647162E+02  0.14432328348E+03  0.47000000000E+01 0.  1.
         -5    1    3    3    0  503 -0.22151632593E+02  0.17493361818E+02  0.49410767085E+02  0.57098392606E+02  0.47000000000E+01 0.  1.
<mgrwt>
<rscale>  0 0.17496107E+03</rscale>
<asrwt>0</asrwt>
<pdfrwt beam="1">  1        5 0.58538904E-01 0.17496925E+03</pdfrwt>
<pdfrwt beam="2">  1       -5 0.12936302E-01 0.17496925E+03</pdfrwt>
<totfact> 0.10789538E+02</totfact>
</mgrwt>
</event>
<event>
 8    1  0.1865596E-007  0.1426671E+03  0.7546771E-02  0.1209785E+00
         -5   -1    0    0    0  501 -0.00000000000E+00  0.00000000000E+00  0.97633015561E+03  0.97634146832E+03  0.47000000000E+01 0. -1.
          5   -1    0    0  501    0  0.00000000000E+00 -0.00000000000E+00 -0.23738928192E+02  0.24199725447E+02  0.47000000000E+01 0. -1.
         25    2    1    2    0    0 -0.59155606854E+02  0.35056930767E+02  0.65713823658E+03  0.67244612938E+03  0.12499904287E+03 0.  0.
         25    2    1    2    0    0  0.59155606854E+02 -0.35056930767E+02  0.29545299084E+03  0.32809506439E+03  0.12500210904E+03 0.  0.
          5    1    3    3  502    0 -0.92487471422E+02  0.47731857650E+02  0.53807311492E+03  0.54806662880E+03  0.47000000000E+01 0. -1.
         -5    1    3    3    0  502  0.33331864569E+02 -0.12674926883E+02  0.11906512167E+03  0.12437950058E+03  0.47000000000E+01 0. -1.
          5    1    4    4  503    0  0.23135810191E+02 -0.63953736860E+02  0.69236221139E+02  0.97165274091E+02  0.47000000000E+01 0. -1.
         -5    1    4    4    0  503  0.36019796663E+02  0.28896806093E+02  0.22621676970E+03  0.23092979030E+03  0.47000000000E+01 0. -1.
<mgrwt>
<rscale>  0 0.14266643E+03</rscale>
<asrwt>0</asrwt>
<pdfrwt beam="2">  1        5 0.36884592E-02 0.14266710E+03</pdfrwt>
<pdfrwt beam="1">  1       -5 0.15024094E+00 0.14266710E+03</pdfrwt>
<totfact> 0.87957420E+01</totfact>
</mgrwt>
</event>
<event>
 8    1  0.1865596E-007  0.1270317E+03  0.7546771E-02  0.1231934E+00
          5   -1    0    0  501    0  0.00000000000E+00  0.00000000000E+00  0.32138627972E+03  0.32142064463E+03  0.47000000000E+01 0. -1.
         -5   -1    0    0    0  501 -0.00000000000E+00 -0.00000000000E+00 -0.91278039646E+02  0.91398963460E+02  0.47000000000E+01 0. -1.
         25    2    1    2    0    0 -0.16115385659E+02  0.15708908724E+02 -0.23495639424E+02  0.12918629832E+03  0.12502231454E+03 0.  0.
         25    2    1    2    0    0  0.16115385659E+02 -0.15708908724E+02  0.25360387950E+03  0.28363330977E+03  0.12500580484E+03 0.  0.
          5    1    3    3  502    0  0.29939898888E+02  0.22228943872E+02 -0.59363334717E+02  0.70261077418E+02  0.47000000000E+01 0. -1.
         -5    1    3    3    0  502 -0.46055284547E+02 -0.65200351480E+01  0.35867695294E+02  0.58925220905E+02  0.47000000000E+01 0. -1.
          5    1    4    4  503    0 -0.22445767215E+02  0.26136400925E+02  0.14273814584E+02  0.37586642600E+02  0.47000000000E+01 0.  1.
         -5    1    4    4    0  503  0.38561152875E+02 -0.41845309649E+02  0.23933006492E+03  0.24604666717E+03  0.47000000000E+01 0.  1.
<mgrwt>
<rscale>  0 0.12702764E+03</rscale>
<asrwt>0</asrwt>
<pdfrwt beam="1">  1        5 0.49455988E-01 0.12703171E+03</pdfrwt>
<pdfrwt beam="2">  1       -5 0.14054721E-01 0.12703171E+03</pdfrwt>
<totfact> 0.12070432E+02</totfact>
</mgrwt>
</event>
<event>
 8    1  0.1865596E-007  0.2333603E+03  0.7546771E-02  0.1124297E+00
         -5   -1    0    0    0  501 -0.00000000000E+00  0.00000000000E+00  0.12634490019E+04  0.12634577438E+04  0.47000000000E+01 0.  1.
          5   -1    0    0  501    0  0.00000000000E+00 -0.00000000000E+00 -0.43210998845E+02  0.43465853509E+02  0.47000000000E+01 0.  1.
         25    2    1    2    0    0 -0.19634081388E+03  0.16787695932E+02  0.65930153502E+03  0.69938201689E+03  0.12500059815E+03 0.  0.
         25    2    1    2    0    0  0.19634081388E+03 -0.16787695932E+02  0.56093646801E+03  0.60754158041E+03  0.12500203540E+03 0.  0.
          5    1    4    4  502    0  0.19228144322E+03  0.60130277653E+01  0.38906324053E+03  0.43405138525E+03  0.47000000000E+01 0. -1.
         -5    1    4    4    0  502  0.40593706612E+01 -0.22800723697E+02  0.17187322748E+03  0.17349019516E+03  0.47000000000E+01 0. -1.
          5    1    3    3  503    0 -0.12179185374E+03 -0.48397527376E+02  0.31816915474E+03  0.34413555079E+03  0.47000000000E+01 0. -1.
         -5    1    3    3    0  503 -0.74548960142E+02  0.65185223309E+02  0.34113238028E+03  0.35524646609E+03  0.47000000000E+01 0. -1.
<mgrwt>
<rscale>  0 0.23336015E+03</rscale>
<asrwt>0</asrwt>
<pdfrwt beam="2">  1        5 0.66681237E-02 0.23336035E+03</pdfrwt>
<pdfrwt beam="1">  1       -5 0.19439702E+00 0.23336035E+03</pdfrwt>
<totfact> 0.17527450E+01</totfact>
</mgrwt>
</event>
<event>
 8    1  0.1865596E-007  0.1335423E+03  0.7546771E-02  0.1222295E+00
          5   -1    0    0  501    0  0.00000000000E+00  0.00000000000E+00  0.55996722592E+03  0.55998694995E+03  0.47000000000E+01 0.  1.
         -5   -1    0    0    0  501 -0.00000000000E+00 -0.00000000000E+00 -0.32385345014E+02  0.32724617212E+02  0.47000000000E+01 0.  1.
         25    2    1    2    0    0 -0.28381757958E+01  0.46909738840E+02  0.21944756584E+03  0.25688671521E+03  0.12499988583E+03 0.  0.
         25    2    1    2    0    0  0.28381757958E+01 -0.46909738840E+02  0.30813431507E+03  0.33582485194E+03  0.12499198463E+03 0.  0.
          5    1    4    4  502    0 -0.36890957182E+02 -0.13202344891E+02  0.22473761228E+02  0.45413704717E+02  0.47000000000E+01 0.  1.
         -5    1    4    4    0  502  0.39729132978E+02 -0.33707393949E+02  0.28566055384E+03  0.29041114723E+03  0.47000000000E+01 0.  1.
          5    1    3    3  503    0 -0.34530460640E+02 -0.22685261708E+02  0.26561164830E+02  0.49341253408E+02  0.47000000000E+01 0. -1.
         -5    1    3    3    0  503  0.31692284844E+02  0.69595000548E+02  0.19288640101E+03  0.20754546181E+03  0.47000000000E+01 0. -1.
<mgrwt>
<rscale>  0 0.13354047E+03</rscale>
<asrwt>0</asrwt>
<pdfrwt beam="1">  1        5 0.86176416E-01 0.13354232E+03</pdfrwt>
<pdfrwt beam="2">  1       -5 0.50099760E-02 0.13354232E+03</pdfrwt>
<totfact> 0.21113034E+02</totfact>
</mgrwt>
</event>
<event>
 8    1  0.1865596E-007  0.1319229E+03  0.7546771E-02  0.1224633E+00
         -5   -1    0    0    0  501 -0.00000000000E+00  0.00000000000E+00  0.33476949777E+02  0.33805268323E+02  0.47000000000E+01 0. -1.
          5   -1    0    0  501    0  0.00000000000E+00 -0.00000000000E+00 -0.52383162481E+03  0.52385270941E+03  0.47000000000E+01 0. -1.
         25    2    1    2    0    0  0.33755814185E+02  0.25327531024E+02 -0.21326604238E+03  0.25077089871E+03  0.12499079962E+03 0.  0.
         25    2    1    2    0    0 -0.33755814185E+02 -0.25327531024E+02 -0.27708863266E+03  0.30688707902E+03  0.12498251918E+03 0.  0.
          5    1    4    4  502    0  0.52051252693E+01  0.14536861601E+02 -0.23822818694E+03  0.23877431337E+03  0.47000000000E+01 0. -1.
         -5    1    4    4    0  502 -0.38960939455E+02 -0.39864392625E+02 -0.38860445721E+02  0.68112765648E+02  0.47000000000E+01 0. -1.
          5    1    3    3  503    0  0.10255279834E+02 -0.14661099258E+02  0.11126054515E+02  0.21586979524E+02  0.47000000000E+01 0.  1.
         -5    1    3    3    0  503  0.23500534352E+02  0.39988630282E+02 -0.22439209689E+03  0.22918391919E+03  0.47000000000E+01 0.  1.
<mgrwt>
<rscale>  0 0.13192089E+03</rscale>
<asrwt>0</asrwt>
<pdfrwt beam="2">  1        5 0.80616352E-01 0.13192285E+03</pdfrwt>
<pdfrwt beam="1">  1       -5 0.51771775E-02 0.13192285E+03</pdfrwt>
<totfact> 0.23257726E+02</totfact>
</mgrwt>
</event>
<event>
 8    1  0.1865596E-007  0.1423481E+03  0.7546771E-02  0.1210207E+00
          5   -1    0    0  501    0  0.00000000000E+00  0.00000000000E+00  0.13786271713E+03  0.13794280979E+03  0.47000000000E+01 0.  1.
         -5   -1    0    0    0  501 -0.00000000000E+00 -0.00000000000E+00 -0.14761015257E+03  0.14768495909E+03  0.47000000000E+01 0.  1.
         25    2    1    2    0    0  0.44559440580E+01  0.67982967039E+02 -0.15394168363E+02  0.14317803198E+03  0.12498571590E+03 0.  0.
         25    2    1    2    0    0 -0.44559440580E+01 -0.67982967039E+02  0.56467329221E+01  0.14244973690E+03  0.12497400812E+03 0.  0.
          5    1    3    3  502    0  0.23288012665E+02  0.46868196965E+02  0.49524529665E+02  0.72206152503E+02  0.47000000000E+01 0.  1.
         -5    1    3    3    0  502 -0.18832068607E+02  0.21114770073E+02 -0.64918698028E+02  0.70971879480E+02  0.47000000000E+01 0.  1.
          5    1    4    4  503    0  0.97530531069E+01 -0.85849006802E+02 -0.36797029869E+02  0.94028109738E+02  0.47000000000E+01 0.  1.
         -5    1    4    4    0  503 -0.14208997165E+02  0.17866039763E+02  0.42443762791E+02  0.48421627163E+02  0.47000000000E+01 0.  1.
<mgrwt>
<rscale>  0 0.14234548E+03</rscale>
<asrwt>0</asrwt>
<pdfrwt beam="1">  1        5 0.21221564E-01 0.14234805E+03</pdfrwt>
<pdfrwt beam="2">  1       -5 0.22721169E-01 0.14234805E+03</pdfrwt>
<totfact> 0.27802327E+02</totfact>
</mgrwt>
</event>
<event>
 8    1  0.1865596E-007  0.1494756E+03  0.7546771E-02  0.1201119E+00
         -5   -1    0    0    0  501 -0.00000000000E+00  0.00000000000E+00  0.12783420835E+03  0.12792058014E+03  0.47000000000E+01 0.  1.
          5   -1    0    0  501    0  0.00000000000E+00 -0.00000000000E+00 -0.21482124036E+03  0.21487264905E+03  0.47000000000E+01 0.  1.
         25    2    1    2    0    0  0.81586043436E+02 -0.78590491044E+01  0.30642420813E+02  0.15258407638E+03  0.12499958110E+03 0.  0.
         25    2    1    2    0    0 -0.81586043436E+02  0.78590491044E+01 -0.11762945283E+03  0.19020915281E+03  0.12499914602E+03 0.  0.
          5    1    3    3  502    0  0.37544590641E+02 -0.50853020945E+02  0.57207054260E+02  0.85383623036E+02  0.47000000000E+01 0.  1.
         -5    1    3    3    0  502  0.44041452796E+02  0.42993971841E+02 -0.26564633447E+02  0.67200453340E+02  0.47000000000E+01 0.  1.
          5    1    4    4  503    0 -0.86274297222E+02 -0.44141350050E+02 -0.74604202390E+02  0.12239113595E+03  0.47000000000E+01 0. -1.
         -5    1    4    4    0  503  0.46882537855E+01  0.52000399155E+02 -0.43025250436E+02  0.67818016861E+02  0.47000000000E+01 0. -1.
<mgrwt>
<rscale>  0 0.14947547E+03</rscale>
<asrwt>0</asrwt>
<pdfrwt beam="2">  1        5 0.33060020E-01 0.14947556E+03</pdfrwt>
<pdfrwt beam="1">  1       -5 0.19677400E-01 0.14947556E+03</pdfrwt>
<totfact> 0.15715590E+02</totfact>
</mgrwt>
</event>
<event>
 8    1  0.1865596E-007  0.1506144E+03  0.7546771E-02  0.1199722E+00
         -5   -1    0    0    0  501 -0.00000000000E+00  0.00000000000E+00  0.27579438293E+03  0.27583442797E+03  0.47000000000E+01 0. -1.
          5   -1    0    0  501    0  0.00000000000E+00 -0.00000000000E+00 -0.84417856282E+02  0.84548592296E+02  0.47000000000E+01 0. -1.
         25    2    1    2    0    0  0.61902534573E+02 -0.56802154452E+02  0.12528756507E+03  0.19590674909E+03  0.12499628732E+03 0.  0.
         25    2    1    2    0    0 -0.61902534573E+02  0.56802154452E+02  0.66088961578E+02  0.16447627117E+03  0.12500513749E+03 0.  0.
          5    1    3    3  502    0 -0.35306443652E+02 -0.34805613058E+02  0.31213049535E+02  0.58773464463E+02  0.47000000000E+01 0. -1.
         -5    1    3    3    0  502  0.97208978225E+02 -0.21996541394E+02  0.94074515534E+02  0.13713328463E+03  0.47000000000E+01 0. -1.
          5    1    4    4  503    0  0.13636763808E+02  0.50503347280E+02 -0.13741643983E+02  0.54290627119E+02  0.47000000000E+01 0. -1.
         -5    1    4    4    0  503 -0.75539298381E+02  0.62988071727E+01  0.79830605560E+02  0.11018564406E+03  0.47000000000E+01 0. -1.
<mgrwt>
<rscale>  0 0.15061255E+03</rscale>
<asrwt>0</asrwt>
<pdfrwt beam="2">  1        5 0.13000499E-01 0.15061438E+03</pdfrwt>
<pdfrwt beam="1">  1       -5 0.42443042E-01 0.15061438E+03</pdfrwt>
<totfact> 0.20226130E+02</totfact>
</mgrwt>
</event>
<event>
 8    1  0.1865596E-007  0.1251100E+03  0.7546771E-02  0.1234902E+00
         -5   -1    0    0    0  501 -0.00000000000E+00  0.00000000000E+00  0.51847992628E+03  0.51850122850E+03  0.47000000000E+01 0. -1.
          5   -1    0    0  501    0  0.00000000000E+00 -0.00000000000E+00 -0.31116582790E+02  0.31469536452E+02  0.47000000000E+01 0. -1.
         25    2    1    2    0    0 -0.26434730133E+01  0.42946405282E+01  0.29589252028E+03  0.32125517517E+03  0.12500828824E+03 0.  0.
         25    2    1    2    0    0  0.26434730133E+01 -0.42946405282E+01  0.19147082321E+03  0.22871558978E+03  0.12499725190E+03 0.  0.
          5    1    4    4  502    0  0.27109100066E+02 -0.44978472364E+02  0.30692280031E+02  0.61008789007E+02  0.47000000000E+01 0.  1.
         -5    1    4    4    0  502 -0.24465627053E+02  0.40683831836E+02  0.16077854318E+03  0.16770680077E+03  0.47000000000E+01 0.  1.
          5    1    3    3  503    0 -0.39646877241E+02 -0.14179631233E+02  0.29490633291E+02  0.51620967337E+02  0.47000000000E+01 0.  1.
         -5    1    3    3    0  503  0.37003404228E+02  0.18474271762E+02  0.26640188699E+03  0.26963420784E+03  0.47000000000E+01 0.  1.
<mgrwt>
<rscale>  0 0.12510721E+03</rscale>
<asrwt>0</asrwt>
<pdfrwt beam="2">  1        5 0.48159559E-02 0.12510997E+03</pdfrwt>
<pdfrwt beam="1">  1       -5 0.79794924E-01 0.12510997E+03</pdfrwt>
<totfact> 0.26346341E+02</totfact>
</mgrwt>
</event>
<event>
 8    1  0.1865596E-007  0.2066232E+03  0.7546771E-02  0.1144271E+00
         -5   -1    0    0    0  501 -0.00000000000E+00  0.00000000000E+00  0.82510354435E+02  0.82644108011E+02  0.47000000000E+01 0.  1.
          5   -1    0    0  501    0  0.00000000000E+00 -0.00000000000E+00 -0.51703793265E+03  0.51705929428E+03  0.47000000000E+01 0.  1.
         25    2    1    2    0    0 -0.14936511878E+03  0.68989532492E+02 -0.21118273928E+03  0.29544027063E+03  0.12496923557E+03 0.  0.
         25    2    1    2    0    0  0.14936511878E+03 -0.68989532492E+02 -0.22334483894E+03  0.30426313166E+03  0.12499456751E+03 0.  0.
          5    1    3    3  502    0 -0.14386619556E+03  0.57048136889E+02 -0.10210127727E+03  0.18546895419E+03  0.47000000000E+01 0. -1.
         -5    1    3    3    0  502 -0.54989232149E+01  0.11941395603E+02 -0.10908146200E+03  0.10997131643E+03  0.47000000000E+01 0. -1.
          5    1    4    4  503    0  0.13877324022E+03 -0.74155229583E+02 -0.11442717650E+03  0.19460904141E+03  0.47000000000E+01 0.  1.
         -5    1    4    4    0  503  0.10591878557E+02  0.51656970904E+01 -0.10891766244E+03  0.10965409025E+03  0.47000000000E+01 0.  1.
<mgrwt>
<rscale>  0 0.20661934E+03</rscale>
<asrwt>0</asrwt>
<pdfrwt beam="2">  1        5 0.79556227E-01 0.20662317E+03</pdfrwt>
<pdfrwt beam="1">  1       -5 0.12705833E-01 0.20662317E+03</pdfrwt>
<totfact> 0.58374449E+01</totfact>
</mgrwt>
</event>
<event>
 8    1  0.1865596E-007  0.1453654E+03  0.7546771E-02  0.1206288E+00
         -5   -1    0    0    0  501 -0.00000000000E+00  0.00000000000E+00  0.60775931367E+02  0.60957393592E+02  0.47000000000E+01 0.  1.
          5   -1    0    0  501    0  0.00000000000E+00 -0.00000000000E+00 -0.34906827057E+03  0.34909991051E+03  0.47000000000E+01 0.  1.
         25    2    1    2    0    0  0.26865565089E+02  0.69173627307E+02 -0.16008082062E+03  0.21622930604E+03  0.12498997703E+03 0.  0.
         25    2    1    2    0    0 -0.26865565089E+02 -0.69173627307E+02 -0.12821151858E+03  0.19382799806E+03  0.12499740011E+03 0.  0.
          5    1    4    4  502    0  0.71124883296E+00  0.11017018598E+02 -0.10513667363E+03  0.10581914154E+03  0.47000000000E+01 0. -1.
         -5    1    4    4    0  502 -0.27576813922E+02 -0.80190645905E+02 -0.23074844947E+02  0.88008856521E+02  0.47000000000E+01 0. -1.
          5    1    3    3  503    0  0.52007332221E+02 -0.12060713958E+02 -0.32007630535E+02  0.62424368946E+02  0.47000000000E+01 0. -1.
         -5    1    3    3    0  503 -0.25141767131E+02  0.81234341265E+02 -0.12807319009E+03  0.15380493709E+03  0.47000000000E+01 0. -1.
<mgrwt>
<rscale>  0 0.14536380E+03</rscale>
<asrwt>0</asrwt>
<pdfrwt beam="2">  1        5 0.53719202E-01 0.14536540E+03</pdfrwt>
<pdfrwt beam="1">  1       -5 0.93665360E-02 0.14536540E+03</pdfrwt>
<totfact> 0.21684377E+02</totfact>
</mgrwt>
</event>
<event>
 8    1  0.1865596E-007  0.1466807E+03  0.7546771E-02  0.1204614E+00
         -5   -1    0    0    0  501 -0.00000000000E+00  0.00000000000E+00  0.78515997613E+02  0.78656543791E+02  0.47000000000E+01 0.  1.
          5   -1    0    0  501    0  0.00000000000E+00 -0.00000000000E+00 -0.29597845880E+03  0.29601577335E+03  0.47000000000E+01 0.  1.
         25    2    1    2    0    0 -0.44273512649E+02 -0.62678852762E+02 -0.57236415338E+02  0.15744521099E+03  0.12499681883E+03 0.  0.
         25    2    1    2    0    0  0.44273512649E+02  0.62678852762E+02 -0.16022604585E+03  0.21722710615E+03  0.12500578936E+03 0.  0.
          5    1    3    3  502    0 -0.78818923564E+02 -0.74958621948E+02 -0.49888833837E+02  0.11975893895E+03  0.47000000000E+01 0.  1.
         -5    1    3    3    0  502  0.34545410915E+02  0.12279769186E+02 -0.73475815017E+01  0.37686272043E+02  0.47000000000E+01 0.  1.
          5    1    4    4  503    0  0.86959978868E+02  0.31666589143E+02 -0.89187762148E+02  0.12861320970E+03  0.47000000000E+01 0.  1.
         -5    1    4    4    0  503 -0.42686466219E+02  0.31012263618E+02 -0.71038283697E+02  0.88613896448E+02  0.47000000000E+01 0.  1.
<mgrwt>
<rscale>  0 0.14667880E+03</rscale>
<asrwt>0</asrwt>
<pdfrwt beam="2">  1        5 0.45548828E-01 0.14668071E+03</pdfrwt>
<pdfrwt beam="1">  1       -5 0.12093066E-01 0.14668071E+03</pdfrwt>
<totfact> 0.19695223E+02</totfact>
</mgrwt>
</event>
<event>
 8    1  0.1865596E-007  0.1337558E+03  0.7546771E-02  0.1221995E+00
          5   -1    0    0  501    0  0.00000000000E+00  0.00000000000E+00  0.28658481823E+03  0.28662335571E+03  0.47000000000E+01 0.  1.
         -5   -1    0    0    0  501 -0.00000000000E+00 -0.00000000000E+00 -0.63864656587E+02  0.64037366912E+02  0.47000000000E+01 0.  1.
         25    2    1    2    0    0 -0.30709769513E+02  0.36342447676E+02  0.83842222244E+02  0.15786112706E+03  0.12500701484E+03 0.  0.
         25    2    1    2    0    0  0.30709769513E+02 -0.36342447676E+02  0.13887793940E+03  0.19279959556E+03  0.12498295304E+03 0.  0.
          5    1    3    3  502    0  0.68601923820E+01 -0.43413399274E+02  0.18005763775E+02  0.47729267805E+02  0.47000000000E+01 0. -1.
         -5    1    3    3    0  502 -0.37569961895E+02  0.79755846950E+02  0.65836458469E+02  0.11013185926E+03  0.47000000000E+01 0. -1.
          5    1    4    4  503    0  0.67009573332E+02  0.16450207992E+02  0.78788814636E+02  0.10483634662E+03  0.47000000000E+01 0. -1.
         -5    1    4    4    0  503 -0.36299803819E+02 -0.52792655667E+02  0.60089124762E+02  0.87963248942E+02  0.47000000000E+01 0. -1.
<mgrwt>
<rscale>  0 0.13375019E+03</rscale>
<asrwt>0</asrwt>
<pdfrwt beam="1">  1        5 0.44106222E-01 0.13375581E+03</pdfrwt>
<pdfrwt beam="2">  1       -5 0.98415816E-02 0.13375581E+03</pdfrwt>
<totfact> 0.29330575E+02</totfact>
</mgrwt>
</event>
<event>
 8    1  0.1865596E-007  0.1509123E+03  0.7546771E-02  0.1199365E+00
          5   -1    0    0  501    0  0.00000000000E+00  0.00000000000E+00  0.18974596709E+03  0.18980416757E+03  0.47000000000E+01 0. -1.
         -5   -1    0    0    0  501 -0.00000000000E+00 -0.00000000000E+00 -0.12913048686E+03  0.12921599219E+03  0.47000000000E+01 0. -1.
         25    2    1    2    0    0  0.28886970605E+02  0.79421832150E+02 -0.12360907783E+02  0.15138934626E+03  0.12499463039E+03 0.  0.
         25    2    1    2    0    0 -0.28886970605E+02 -0.79421832150E+02  0.72976388009E+02  0.16763081350E+03  0.12502900437E+03 0.  0.
          5    1    4    4  502    0  0.25650168248E+01 -0.42083325847E+02  0.10211904130E+03  0.11058017102E+03  0.47000000000E+01 0.  1.
         -5    1    4    4    0  502 -0.31451987430E+02 -0.37338506303E+02 -0.29142653296E+02  0.57050642479E+02  0.47000000000E+01 0.  1.
          5    1    3    3  503    0 -0.48225785899E+02  0.45422187222E+02 -0.32867999930E+01  0.66496575640E+02  0.47000000000E+01 0.  1.
         -5    1    3    3    0  503  0.77112756504E+02  0.33999644928E+02 -0.90741077901E+01  0.84892770617E+02  0.47000000000E+01 0.  1.
<mgrwt>
<rscale>  0 0.15090523E+03</rscale>
<asrwt>0</asrwt>
<pdfrwt beam="1">  1        5 0.29202741E-01 0.15091235E+03</pdfrwt>
<pdfrwt beam="2">  1       -5 0.19877283E-01 0.15091235E+03</pdfrwt>
<totfact> 0.19765438E+02</totfact>
</mgrwt>
</event>
<event>
 8    1  0.1865596E-007  0.1547753E+03  0.7546771E-02  0.1194728E+00
          5   -1    0    0  501    0  0.00000000000E+00  0.00000000000E+00  0.16999715569E+03  0.17006211495E+03  0.47000000000E+01 0. -1.
         -5   -1    0    0    0  501 -0.00000000000E+00 -0.00000000000E+00 -0.21654862485E+03  0.21659962355E+03  0.47000000000E+01 0. -1.
         25    2    1    2    0    0 -0.61297894341E+02  0.67600158987E+02 -0.13760447802E+03  0.20709994002E+03  0.12501271711E+03 0.  0.
         25    2    1    2    0    0  0.61297894341E+02 -0.67600158987E+02  0.91053008868E+02  0.17956179848E+03  0.12499830280E+03 0.  0.
          5    1    4    4  502    0 -0.20985433356E+02 -0.67109702052E+02  0.28168332851E+02  0.75892328323E+02  0.47000000000E+01 0.  1.
         -5    1    4    4    0  502  0.82283327698E+02 -0.49045693561E+00  0.62884676017E+02  0.10366947016E+03  0.47000000000E+01 0.  1.
          5    1    3    3  503    0  0.36793424177E+02  0.17203749710E+02 -0.58196311509E+02  0.71124016619E+02  0.47000000000E+01 0. -1.
         -5    1    3    3    0  503 -0.98091318518E+02  0.50396409278E+02 -0.79408166515E+02  0.13597592341E+03  0.47000000000E+01 0. -1.
<mgrwt>
<rscale>  0 0.15477239E+03</rscale>
<asrwt>0</asrwt>
<pdfrwt beam="1">  1        5 0.26162328E-01 0.15477530E+03</pdfrwt>
<pdfrwt beam="2">  1       -5 0.33324093E-01 0.15477530E+03</pdfrwt>
<totfact> 0.91103026E+01</totfact>
</mgrwt>
</event>
<event>
 8    1  0.1865596E-007  0.1586706E+03  0.7546771E-02  0.1190225E+00
         -5   -1    0    0    0  501 -0.00000000000E+00  0.00000000000E+00  0.96441007841E+03  0.96442153094E+03  0.47000000000E+01 0. -1.
          5   -1    0    0  501    0  0.00000000000E+00 -0.00000000000E+00 -0.25880964528E+02  0.26304264386E+02  0.47000000000E+01 0. -1.
         25    2    1    2    0    0 -0.40762576278E+01 -0.97569083153E+02  0.47895548367E+03  0.50455398001E+03  0.12506007173E+03 0.  0.
         25    2    1    2    0    0  0.40762576278E+01  0.97569083153E+02  0.45957363021E+03  0.48617181532E+03  0.12497507975E+03 0.  0.
          5    1    4    4  502    0  0.24300519327E+01 -0.27523650793E+02  0.44157229906E+02  0.52301122917E+02  0.47000000000E+01 0.  1.
         -5    1    4    4    0  502  0.16462056951E+01  0.12509273395E+03  0.41541640031E+03  0.43387069240E+03  0.47000000000E+01 0.  1.
          5    1    3    3  503    0 -0.51520643969E+02 -0.64950331271E+02  0.15850282366E+03  0.17893618246E+03  0.47000000000E+01 0. -1.
         -5    1    3    3    0  503  0.47444386341E+02 -0.32618751882E+02  0.32045266001E+03  0.32561779754E+03  0.47000000000E+01 0. -1.
<mgrwt>
<rscale>  0 0.15865387E+03</rscale>
<asrwt>0</asrwt>
<pdfrwt beam="2">  1        5 0.40151298E-02 0.15867061E+03</pdfrwt>
<pdfrwt beam="1">  1       -5 0.14840421E+00 0.15867061E+03</pdfrwt>
<totfact> 0.81711142E+01</totfact>
</mgrwt>
</event>
<event>
 8    1  0.1865596E-007  0.1564798E+03  0.7546771E-02  0.1192731E+00
         -5   -1    0    0    0  501 -0.00000000000E+00  0.00000000000E+00  0.73632411145E+02  0.73782260544E+02  0.47000000000E+01 0. -1.
          5   -1    0    0  501    0  0.00000000000E+00 -0.00000000000E+00 -0.34294667411E+03  0.34297887877E+03  0.47000000000E+01 0. -1.
         25    2    1    2    0    0 -0.93736333161E+02 -0.85605773672E+01 -0.97486638083E+02  0.18436259888E+03  0.12500455841E+03 0.  0.
         25    2    1    2    0    0  0.93736333161E+02  0.85605773672E+01 -0.17182762488E+03  0.23239854043E+03  0.12499826112E+03 0.  0.
          5    1    4    4  502    0  0.19731924912E+02  0.57532990005E+02 -0.10413367956E+03  0.12068681377E+03  0.47000000000E+01 0. -1.
         -5    1    4    4    0  502  0.74004408249E+02 -0.48972412638E+02 -0.67693945319E+02  0.11171172666E+03  0.47000000000E+01 0. -1.
          5    1    3    3  503    0 -0.12161787197E+03 -0.13591177245E+02 -0.95995823836E+02  0.15560499695E+03  0.47000000000E+01 0. -1.
         -5    1    3    3    0  503  0.27881538814E+02  0.50305998781E+01 -0.14908142471E+01  0.28757601932E+02  0.47000000000E+01 0. -1.
<mgrwt>
<rscale>  0 0.15647853E+03</rscale>
<asrwt>0</asrwt>
<pdfrwt beam="2">  1        5 0.52775030E-01 0.15647979E+03</pdfrwt>
<pdfrwt beam="1">  1       -5 0.11342068E-01 0.15647979E+03</pdfrwt>
<totfact> 0.16500314E+02</totfact>
</mgrwt>
</event>
<event>
 8    1  0.1865596E-007  0.1507471E+03  0.7546771E-02  0.1199559E+00
         -5   -1    0    0    0  501 -0.00000000000E+00  0.00000000000E+00  0.62610254988E+02  0.62786415965E+02  0.47000000000E+01 0.  1.
          5   -1    0    0  501    0  0.00000000000E+00 -0.00000000000E+00 -0.36231963012E+03  0.36235011297E+03  0.47000000000E+01 0.  1.
         25    2    1    2    0    0 -0.25456971161E+02  0.80318096352E+02 -0.15284178228E+03  0.21467329164E+03  0.12499983100E+03 0.  0.
         25    2    1    2    0    0  0.25456971161E+02 -0.80318096352E+02 -0.14686759285E+03  0.21046323729E+03  0.12500252174E+03 0.  0.
          5    1    3    3  502    0  0.32630480965E+02  0.34894011643E+02 -0.12802337833E+03  0.13672752370E+03  0.47000000000E+01 0. -1.
         -5    1    3    3    0  502 -0.58087452126E+02  0.45424084710E+02 -0.24818403952E+02  0.77945767947E+02  0.47000000000E+01 0. -1.
          5    1    4    4  503    0 -0.28051185095E+01 -0.38064408955E+02  0.14587243857E+02  0.41129619525E+02  0.47000000000E+01 0.  1.
         -5    1    4    4    0  503  0.28262089670E+02 -0.42253687397E+02 -0.16145483671E+03  0.16933361777E+03  0.47000000000E+01 0.  1.
<mgrwt>
<rscale>  0 0.15074653E+03</rscale>
<asrwt>0</asrwt>
<pdfrwt beam="2">  1        5 0.55757376E-01 0.15074709E+03</pdfrwt>
<pdfrwt beam="1">  1       -5 0.96482428E-02 0.15074709E+03</pdfrwt>
<totfact> 0.19235107E+02</totfact>
</mgrwt>
</event>
<event>
 8    1  0.1865596E-007  0.1272375E+03  0.7546771E-02  0.1231616E+00
         -5   -1    0    0    0  501 -0.00000000000E+00  0.00000000000E+00  0.13295544441E+04  0.13295627514E+04  0.47000000000E+01 0. -1.
          5   -1    0    0  501    0  0.00000000000E+00 -0.00000000000E+00 -0.13642825342E+02  0.14429715288E+02  0.47000000000E+01 0. -1.
         25    2    1    2    0    0  0.23618569023E+02  0.22089998769E+01  0.90306334766E+03  0.91198197498E+03  0.12499998524E+03 0.  0.
         25    2    1    2    0    0 -0.23618569023E+02 -0.22089998769E+01  0.41284827109E+03  0.43201049168E+03  0.12500661379E+03 0.  0.
          5    1    3    3  502    0 -0.37075565385E+02 -0.32980663251E+02  0.53087740029E+03  0.53321217713E+03  0.47000000000E+01 0. -1.
         -5    1    3    3    0  502  0.60694134408E+02  0.35189663128E+02  0.37218594737E+03  0.37876979785E+03  0.47000000000E+01 0. -1.
          5    1    4    4  503    0 -0.70943061022E+02 -0.13874104574E+01  0.31860443952E+03  0.32644405600E+03  0.47000000000E+01 0.  1.
         -5    1    4    4    0  503  0.47324492000E+02 -0.82158941947E+00  0.94243831575E+02  0.10556643568E+03  0.47000000000E+01 0.  1.
<mgrwt>
<rscale>  0 0.12723583E+03</rscale>
<asrwt>0</asrwt>
<pdfrwt beam="2">  1        5 0.21600639E-02 0.12723746E+03</pdfrwt>
<pdfrwt beam="1">  1       -5 0.20460813E+00 0.12723746E+03</pdfrwt>
<totfact> 0.81639960E+01</totfact>
</mgrwt>
</event>
<event>
 8    1  0.1865596E-007  0.1348640E+03  0.7546771E-02  0.1220413E+00
         -5   -1    0    0    0  501 -0.00000000000E+00  0.00000000000E+00  0.85463942579E+02  0.85593080802E+02  0.47000000000E+01 0.  1.
          5   -1    0    0  501    0  0.00000000000E+00 -0.00000000000E+00 -0.22391362014E+03  0.22396294176E+03  0.47000000000E+01 0.  1.
         25    2    1    2    0    0  0.47559252857E+02 -0.17346486969E+02 -0.34292868916E+02  0.13915567107E+03  0.12500206714E+03 0.  0.
         25    2    1    2    0    0 -0.47559252857E+02  0.17346486969E+02 -0.10415680864E+03  0.17040035150E+03  0.12499942344E+03 0.  0.
          5    1    3    3  502    0 -0.53888617782E+01  0.33092759631E+02 -0.53581113476E+02  0.63381356033E+02  0.47000000000E+01 0.  1.
         -5    1    3    3    0  502  0.52948114635E+02 -0.50439246600E+02  0.19288244560E+02  0.75774315036E+02  0.47000000000E+01 0.  1.
          5    1    4    4  503    0 -0.31132695161E+02  0.71294106723E+02 -0.66235847155E+02  0.10228084772E+03  0.47000000000E+01 0.  1.
         -5    1    4    4    0  503 -0.16426557696E+02 -0.53947619754E+02 -0.37920961488E+02  0.68119503778E+02  0.47000000000E+01 0.  1.
<mgrwt>
<rscale>  0 0.13486339E+03</rscale>
<asrwt>0</asrwt>
<pdfrwt beam="2">  1        5 0.34461977E-01 0.13486401E+03</pdfrwt>
<pdfrwt beam="1">  1       -5 0.13162027E-01 0.13486401E+03</pdfrwt>
<totfact> 0.29113915E+02</totfact>
</mgrwt>
</event>
<event>
 8    1  0.1865596E-007  0.1712574E+03  0.7546771E-02  0.1176544E+00
          5   -1    0    0  501    0  0.00000000000E+00  0.00000000000E+00  0.25847583177E+03  0.25851855951E+03  0.47000000000E+01 0.  1.
         -5   -1    0    0    0  501 -0.00000000000E+00 -0.00000000000E+00 -0.12900657475E+03  0.12909216215E+03  0.47000000000E+01 0.  1.
         25    2    1    2    0    0  0.11216296935E+02  0.11652696330E+03 -0.27104177285E+01  0.17127635494E+03  0.12499561953E+03 0.  0.
         25    2    1    2    0    0 -0.11216296935E+02 -0.11652696330E+03  0.13217967475E+03  0.21633436672E+03  0.12499901325E+03 0.  0.
          5    1    3    3  502    0  0.32666399635E+02  0.84655979515E+02  0.51672705838E+02  0.10452696811E+03  0.47000000000E+01 0.  1.
         -5    1    3    3    0  502 -0.21450102700E+02  0.31870983788E+02 -0.54383123566E+02  0.66749386831E+02  0.47000000000E+01 0.  1.
          5    1    4    4  503    0  0.30046660576E+02 -0.11806436783E+03  0.67228014532E+02  0.13922533067E+03  0.47000000000E+01 0.  1.
         -5    1    4    4    0  503 -0.41262957511E+02  0.15374045234E+01  0.64951660221E+02  0.77109036051E+02  0.47000000000E+01 0.  1.
<mgrwt>
<rscale>  0 0.17125677E+03</rscale>
<asrwt>0</asrwt>
<pdfrwt beam="1">  1        5 0.39775383E-01 0.17125738E+03</pdfrwt>
<pdfrwt beam="2">  1       -5 0.19857036E-01 0.17125738E+03</pdfrwt>
<totfact> 0.11091072E+02</totfact>
</mgrwt>
</event>
<event>
 8    1  0.1865596E-007  0.1253457E+03  0.7546771E-02  0.1234532E+00
          5   -1    0    0  501    0  0.00000000000E+00  0.00000000000E+00  0.19020745944E+03  0.19026551876E+03  0.47000000000E+01 0. -1.
         -5   -1    0    0    0  501 -0.00000000000E+00 -0.00000000000E+00 -0.96760969053E+02  0.96875049068E+02  0.47000000000E+01 0. -1.
         25    2    1    2    0    0 -0.46219777599E+01 -0.80974887313E+01 -0.84175522860E+01  0.12562328804E+03  0.12499369308E+03 0.  0.
         25    2    1    2    0    0  0.46219777599E+01  0.80974887313E+01  0.10186404268E+03  0.16151727978E+03  0.12499846589E+03 0.  0.
          5    1    3    3  502    0  0.41600508583E+02  0.19505475814E+02  0.33644854309E+02  0.57141334624E+02  0.47000000000E+01 0. -1.
         -5    1    3    3    0  502 -0.46222486343E+02 -0.27602964546E+02 -0.42062406595E+02  0.68481953418E+02  0.47000000000E+01 0. -1.
          5    1    4    4  503    0 -0.39368091223E+01  0.54089675761E+02  0.60275661887E+01  0.54768723230E+02  0.47000000000E+01 0. -1.
         -5    1    4    4    0  503  0.85587868822E+01 -0.45992187030E+02  0.95836476487E+02  0.10674855655E+03  0.47000000000E+01 0. -1.
<mgrwt>
<rscale>  0 0.12534453E+03</rscale>
<asrwt>0</asrwt>
<pdfrwt beam="1">  1        5 0.29275927E-01 0.12534572E+03</pdfrwt>
<pdfrwt beam="2">  1       -5 0.14899545E-01 0.12534572E+03</pdfrwt>
<totfact> 0.31321922E+02</totfact>
</mgrwt>
</event>
<event>
 8    1  0.1865596E-007  0.1347270E+03  0.7546771E-02  0.1220609E+00
          5   -1    0    0  501    0  0.00000000000E+00  0.00000000000E+00  0.20735731593E+03  0.20741057463E+03  0.47000000000E+01 0. -1.
         -5   -1    0    0    0  501 -0.00000000000E+00 -0.00000000000E+00 -0.87405295733E+02  0.87531569860E+02  0.47000000000E+01 0. -1.
         25    2    1    2    0    0 -0.49925287519E+02  0.56034454766E+01  0.59294605837E+02  0.14719784543E+03  0.12500968955E+03 0.  0.
         25    2    1    2    0    0  0.49925287519E+02 -0.56034454766E+01  0.60657414362E+02  0.14774429907E+03  0.12500049222E+03 0.  0.
          5    1    3    3  502    0 -0.56832539398E+02  0.26750659850E+02  0.89467427820E+02  0.10941684504E+03  0.47000000000E+01 0.  1.
         -5    1    3    3    0  502  0.69072518796E+01 -0.21147214373E+02 -0.30172821983E+02  0.37781000393E+02  0.47000000000E+01 0.  1.
          5    1    4    4  503    0 -0.36037330199E+02 -0.25563279601E+02  0.32297705042E+02  0.54930885509E+02  0.47000000000E+01 0. -1.
         -5    1    4    4    0  503  0.85962617718E+02  0.19959834124E+02  0.28359709320E+02  0.92813413556E+02  0.47000000000E+01 0. -1.
<mgrwt>
<rscale>  0 0.13472483E+03</rscale>
<asrwt>0</asrwt>
<pdfrwt beam="1">  1        5 0.31914935E-01 0.13472697E+03</pdfrwt>
<pdfrwt beam="2">  1       -5 0.13460779E-01 0.13472697E+03</pdfrwt>
<totfact> 0.32570697E+02</totfact>
</mgrwt>
</event>
<event>
 8    1  0.1865596E-007  0.1668636E+03  0.7546771E-02  0.1181159E+00
         -5   -1    0    0    0  501 -0.00000000000E+00  0.00000000000E+00  0.78444506073E+02  0.78585180110E+02  0.47000000000E+01 0. -1.
          5   -1    0    0  501    0  0.00000000000E+00 -0.00000000000E+00 -0.35536227500E+03  0.35539335460E+03  0.47000000000E+01 0. -1.
         25    2    1    2    0    0 -0.49580969389E+02 -0.98792665585E+02 -0.12759006421E+03  0.21005393596E+03  0.12500067291E+03 0.  0.
         25    2    1    2    0    0  0.49580969389E+02  0.98792665585E+02 -0.14932770472E+03  0.22392459875E+03  0.12500079692E+03 0.  0.
          5    1    3    3  502    0 -0.32160298621E+02 -0.13311060346E+02  0.18603429238E+02  0.39744769647E+02  0.47000000000E+01 0. -1.
         -5    1    3    3    0  502 -0.17420670769E+02 -0.85481605238E+02 -0.14619349345E+03  0.17030916631E+03  0.47000000000E+01 0. -1.
          5    1    4    4  503    0 -0.34678579379E+02  0.55080583772E+02 -0.92462523416E+02  0.11317191707E+03  0.47000000000E+01 0. -1.
         -5    1    4    4    0  503  0.84259548768E+02  0.43712081813E+02 -0.56865181302E+02  0.11075268168E+03  0.47000000000E+01 0. -1.
<mgrwt>
<rscale>  0 0.16686358E+03</rscale>
<asrwt>0</asrwt>
<pdfrwt beam="2">  1        5 0.54684330E-01 0.16686360E+03</pdfrwt>
<pdfrwt beam="1">  1       -5 0.12081598E-01 0.16686360E+03</pdfrwt>
<totfact> 0.13939049E+02</totfact>
</mgrwt>
</event>
<event>
 8    1  0.1865596E-007  0.1373491E+03  0.7546771E-02  0.1216944E+00
          5   -1    0    0  501    0  0.00000000000E+00  0.00000000000E+00  0.83121996821E+02  0.83254767765E+02  0.47000000000E+01 0.  1.
         -5   -1    0    0    0  501 -0.00000000000E+00 -0.00000000000E+00 -0.23990269199E+03  0.23994872707E+03  0.47000000000E+01 0.  1.
         25    2    1    2    0    0 -0.55714758578E+02 -0.11630737693E+02 -0.11642665296E+03  0.18004898663E+03  0.12499225449E+03 0.  0.
         25    2    1    2    0    0  0.55714758578E+02  0.11630737693E+02 -0.40354042209E+02  0.14315450821E+03  0.12500142446E+03 0.  0.
          5    1    4    4  502    0  0.64788119511E+02  0.45111083771E+02 -0.63300162269E+02  0.10129911575E+03  0.47000000000E+01 0.  1.
         -5    1    4    4    0  502 -0.90733609332E+01 -0.33480346078E+02  0.22946120060E+02  0.41855392460E+02  0.47000000000E+01 0.  1.
          5    1    3    3  503    0 -0.57044737507E+02 -0.33874839640E+02 -0.13510886956E+03  0.15059250802E+03  0.47000000000E+01 0.  1.
         -5    1    3    3    0  503  0.13299789289E+01  0.22244101947E+02  0.18682216594E+02  0.29456478612E+02  0.47000000000E+01 0.  1.
<mgrwt>
<rscale>  0 0.13734697E+03</rscale>
<asrwt>0</asrwt>
<pdfrwt beam="1">  1        5 0.12801754E-01 0.13734906E+03</pdfrwt>
<pdfrwt beam="2">  1       -5 0.36921860E-01 0.13734906E+03</pdfrwt>
<totfact> 0.26800618E+02</totfact>
</mgrwt>
</event>
<event>
 8    1  0.1865596E-007  0.1422181E+03  0.7546771E-02  0.1210376E+00
         -5   -1    0    0    0  501 -0.00000000000E+00  0.00000000000E+00  0.65572253810E+03  0.65573938190E+03  0.47000000000E+01 0. -1.
          5   -1    0    0  501    0  0.00000000000E+00 -0.00000000000E+00 -0.32419256856E+02  0.32758177836E+02  0.47000000000E+01 0. -1.
         25    2    1    2    0    0 -0.55756357450E+02 -0.38618720010E+02  0.39166129437E+03  0.41668278776E+03  0.12500319668E+03 0.  0.
         25    2    1    2    0    0  0.55756357450E+02  0.38618720010E+02  0.23164198687E+03  0.27181477197E+03  0.12500033298E+03 0.  0.
          5    1    4    4  502    0  0.47346795418E+02  0.70365600592E+02  0.80336910803E+02  0.11691512315E+03  0.47000000000E+01 0.  1.
         -5    1    4    4    0  502  0.84095620320E+01 -0.31746880582E+02  0.15130507607E+03  0.15489964882E+03  0.47000000000E+01 0.  1.
          5    1    3    3  503    0  0.37345930038E+02 -0.29939068907E+01  0.16081923574E+03  0.16519261046E+03  0.47000000000E+01 0.  1.
         -5    1    3    3    0  503 -0.93102287488E+02 -0.35624813120E+02  0.23084205863E+03  0.25149017730E+03  0.47000000000E+01 0.  1.
<mgrwt>
<rscale>  0 0.14221743E+03</rscale>
<asrwt>0</asrwt>
<pdfrwt beam="2">  1        5 0.50149448E-02 0.14221806E+03</pdfrwt>
<pdfrwt beam="1">  1       -5 0.10090775E+00 0.14221806E+03</pdfrwt>
<totfact> 0.14752124E+02</totfact>
</mgrwt>
</event>
<event>
 8    1  0.1865596E-007  0.1855864E+03  0.7546771E-02  0.1162506E+00
          5   -1    0    0  501    0  0.00000000000E+00  0.00000000000E+00  0.18469623526E+03  0.18475602648E+03  0.47000000000E+01 0.  1.
         -5   -1    0    0    0  501 -0.00000000000E+00 -0.00000000000E+00 -0.24974939496E+03  0.24979361538E+03  0.47000000000E+01 0.  1.
         25    2    1    2    0    0  0.11260903342E+03  0.78331524121E+02 -0.14197231393E+03  0.23365448099E+03  0.12498662522E+03 0.  0.
         25    2    1    2    0    0 -0.11260903342E+03 -0.78331524121E+02  0.76919154232E+02  0.20089516087E+03  0.12500274915E+03 0.  0.
          5    1    3    3  502    0  0.30910217229E+02  0.86779157349E+02 -0.34888814561E+02  0.98617356792E+02  0.47000000000E+01 0. -1.
         -5    1    3    3    0  502  0.81698816187E+02 -0.84476332276E+01 -0.10708349937E+03  0.13503712419E+03  0.47000000000E+01 0. -1.
          5    1    4    4  503    0 -0.11259895196E+03 -0.56967269066E+02  0.10574733883E+03  0.16470696220E+03  0.47000000000E+01 0. -1.
         -5    1    4    4    0  503 -0.10081454811E-01 -0.21364255055E+02 -0.28828184600E+02  0.36188198671E+02  0.47000000000E+01 0. -1.
<mgrwt>
<rscale>  0 0.18558368E+03</rscale>
<asrwt>0</asrwt>
<pdfrwt beam="1">  1        5 0.28422806E-01 0.18558639E+03</pdfrwt>
<pdfrwt beam="2">  1       -5 0.38430985E-01 0.18558639E+03</pdfrwt>
<totfact> 0.61307904E+01</totfact>
</mgrwt>
</event>
<event>
 8    1  0.1865596E-007  0.1265051E+03  0.7546771E-02  0.1232737E+00
         -5   -1    0    0    0  501 -0.00000000000E+00  0.00000000000E+00  0.17620447971E+03  0.17626715142E+03  0.47000000000E+01 0. -1.
          5   -1    0    0  501    0  0.00000000000E+00 -0.00000000000E+00 -0.10031041261E+03  0.10042046045E+03  0.47000000000E+01 0. -1.
         25    2    1    2    0    0  0.10254170411E+01 -0.19422803406E+02  0.80773821991E+02  0.15009309777E+03  0.12500092362E+03 0.  0.
         25    2    1    2    0    0 -0.10254170411E+01  0.19422803406E+02 -0.48797548922E+01  0.12659451410E+03  0.12499624883E+03 0.  0.
          5    1    4    4  502    0  0.45690115010E+02 -0.32293897979E+02  0.34262995472E+01  0.56252217600E+02  0.47000000000E+01 0. -1.
         -5    1    4    4    0  502 -0.46715532051E+02  0.51716701386E+02 -0.83060544394E+01  0.70342296504E+02  0.47000000000E+01 0. -1.
          5    1    3    3  503    0  0.59920195791E+02  0.68590754808E+01  0.28154405825E+02  0.66725087841E+02  0.47000000000E+01 0. -1.
         -5    1    3    3    0  503 -0.58894778750E+02 -0.26281878887E+02  0.52619416166E+02  0.83368009928E+02  0.47000000000E+01 0. -1.
<mgrwt>
<rscale>  0 0.12650390E+03</rscale>
<asrwt>0</asrwt>
<pdfrwt beam="2">  1        5 0.15445657E-01 0.12650505E+03</pdfrwt>
<pdfrwt beam="1">  1       -5 0.27121667E-01 0.12650505E+03</pdfrwt>
<totfact> 0.34160683E+02</totfact>
</mgrwt>
</event>
<event>
 8    1  0.1865596E-007  0.1599092E+03  0.7546771E-02  0.1188800E+00
          5   -1    0    0  501    0  0.00000000000E+00  0.00000000000E+00  0.47954579583E+02  0.48184351225E+02  0.47000000000E+01 0. -1.
         -5   -1    0    0    0  501 -0.00000000000E+00 -0.00000000000E+00 -0.53346228992E+03  0.53348299388E+03  0.47000000000E+01 0. -1.
         25    2    1    2    0    0  0.69914239846E+02 -0.71117648973E+02 -0.22607949222E+03  0.27691677688E+03  0.12500097434E+03 0.  0.
         25    2    1    2    0    0 -0.69914239846E+02  0.71117648973E+02 -0.25942821812E+03  0.30475056823E+03  0.12499675017E+03 0.  0.
          5    1    3    3  502    0  0.90342059406E+02 -0.40014225946E+02 -0.83385485624E+02  0.12937563599E+03  0.47000000000E+01 0.  1.
         -5    1    3    3    0  502 -0.20427819560E+02 -0.31103423028E+02 -0.14269400659E+03  0.14754114089E+03  0.47000000000E+01 0.  1.
          5    1    4    4  503    0 -0.71927597518E+02  0.10228073728E+03 -0.17948967913E+03  0.21880028203E+03  0.47000000000E+01 0. -1.
         -5    1    4    4    0  503  0.20133576718E+01 -0.31163088311E+02 -0.79938538986E+02  0.85950286197E+02  0.47000000000E+01 0. -1.
<mgrwt>
<rscale>  0 0.15990841E+03</rscale>
<asrwt>0</asrwt>
<pdfrwt beam="1">  1        5 0.73968953E-02 0.15990924E+03</pdfrwt>
<pdfrwt beam="2">  1       -5 0.82090385E-01 0.15990924E+03</pdfrwt>
<totfact> 0.13010957E+02</totfact>
</mgrwt>
</event>
<event>
 8    1  0.1865596E-007  0.2665498E+03  0.7546771E-02  0.1103272E+00
         -5   -1    0    0    0  501 -0.00000000000E+00  0.00000000000E+00  0.71222840636E+03  0.71224391386E+03  0.47000000000E+01 0. -1.
          5   -1    0    0  501    0  0.00000000000E+00 -0.00000000000E+00 -0.10122793615E+03  0.10133698761E+03  0.47000000000E+01 0. -1.
         25    2    1    2    0    0  0.19692791919E+03  0.12898753922E+03  0.25522413871E+03  0.36902987696E+03  0.12500119390E+03 0.  0.
         25    2    1    2    0    0 -0.19692791919E+03 -0.12898753922E+03  0.35577633150E+03  0.44455102451E+03  0.12502169695E+03 0.  0.
          5    1    3    3  502    0  0.16316656309E+03  0.10406228610E+03  0.26251991095E+03  0.32617645584E+03  0.47000000000E+01 0. -1.
         -5    1    3    3    0  502  0.33761356101E+02  0.24925253126E+02 -0.72957722395E+01  0.42853421121E+02  0.47000000000E+01 0. -1.
          5    1    4    4  503    0 -0.88132308390E+02  0.16096699792E+01  0.72820539714E+02  0.11443258200E+03  0.47000000000E+01 0. -1.
         -5    1    4    4    0  503 -0.10879561080E+03 -0.13059720920E+03  0.28295579178E+03  0.33011844251E+03  0.47000000000E+01 0. -1.
<mgrwt>
<rscale>  0 0.26654743E+03</rscale>
<asrwt>0</asrwt>
<pdfrwt beam="2">  1        5 0.15583111E-01 0.26654984E+03</pdfrwt>
<pdfrwt beam="1">  1       -5 0.10958318E+00 0.26654984E+03</pdfrwt>
<totfact> 0.19681550E+01</totfact>
</mgrwt>
</event>
<event>
 8    1  0.1865596E-007  0.1655121E+03  0.7546771E-02  0.1182611E+00
         -5   -1    0    0    0  501 -0.00000000000E+00  0.00000000000E+00  0.29896403968E+02  0.30263591495E+02  0.47000000000E+01 0.  1.
          5   -1    0    0  501    0  0.00000000000E+00 -0.00000000000E+00 -0.14909228735E+04  0.14909302816E+04  0.47000000000E+01 0.  1.
         25    2    1    2    0    0 -0.10582045805E+03 -0.23892305377E+02 -0.25593782100E+03  0.30479242783E+03  0.12500177698E+03 0.  0.
         25    2    1    2    0    0  0.10582045805E+03  0.23892305377E+02 -0.12050886485E+04  0.12164014453E+04  0.12500005488E+03 0.  0.
          5    1    3    3  502    0 -0.55032034990E+02 -0.41723741888E+02 -0.35429726800E+02  0.77760858107E+02  0.47000000000E+01 0.  1.
         -5    1    3    3    0  502 -0.50788423064E+02  0.17831436511E+02 -0.22050809420E+03  0.22703156972E+03  0.47000000000E+01 0.  1.
          5    1    4    4  503    0  0.88548073884E+02 -0.40372895527E+02 -0.79013594435E+03  0.79612036316E+03  0.47000000000E+01 0. -1.
         -5    1    4    4    0  503  0.17272384171E+02  0.64265200904E+02 -0.41495270414E+03  0.42028108210E+03  0.47000000000E+01 0. -1.
<mgrwt>
<rscale>  0 0.16551178E+03</rscale>
<asrwt>0</asrwt>
<pdfrwt beam="2">  1        5 0.22940151E+00 0.16551210E+03</pdfrwt>
<pdfrwt beam="1">  1       -5 0.46282630E-02 0.16551210E+03</pdfrwt>
<totfact> 0.17510888E+01</totfact>
</mgrwt>
</event>
<event>
 8    1  0.1865596E-007  0.1537794E+03  0.7546771E-02  0.1195913E+00
         -5   -1    0    0    0  501 -0.00000000000E+00  0.00000000000E+00  0.81280430567E+02  0.81416204733E+02  0.47000000000E+01 0.  1.
          5   -1    0    0  501    0  0.00000000000E+00 -0.00000000000E+00 -0.29052605753E+03  0.29056407229E+03  0.47000000000E+01 0.  1.
         25    2    1    2    0    0 -0.70605529873E+02 -0.55126535644E+02 -0.10255170690E+03  0.18483760982E+03  0.12499605448E+03 0.  0.
         25    2    1    2    0    0  0.70605529873E+02  0.55126535644E+02 -0.10669392006E+03  0.18714266720E+03  0.12495883133E+03 0.  0.
          5    1    3    3  502    0 -0.51058847874E+01 -0.78727550975E+02 -0.31006475077E+02  0.84897519626E+02  0.47000000000E+01 0.  1.
         -5    1    3    3    0  502 -0.65499645086E+02  0.23601015331E+02 -0.71545231825E+02  0.99940090194E+02  0.47000000000E+01 0.  1.
          5    1    4    4  503    0 -0.23168062750E+02 -0.53567845688E+01  0.94456890168E+01  0.26014713405E+02  0.47000000000E+01 0. -1.
         -5    1    4    4    0  503  0.93773592624E+02  0.60483320213E+02 -0.11613960908E+03  0.16112795379E+03  0.47000000000E+01 0. -1.
<mgrwt>
<rscale>  0 0.15377179E+03</rscale>
<asrwt>0</asrwt>
<pdfrwt beam="2">  1        5 0.44709684E-01 0.15377935E+03</pdfrwt>
<pdfrwt beam="1">  1       -5 0.12518050E-01 0.15377935E+03</pdfrwt>
<totfact> 0.19555977E+02</totfact>
</mgrwt>
</event>
<event>
 8    1  0.1865596E-007  0.2007250E+03  0.7546771E-02  0.1149130E+00
         -5   -1    0    0    0  501 -0.00000000000E+00  0.00000000000E+00  0.25251387116E+02  0.25685064751E+02  0.47000000000E+01 0. -1.
          5   -1    0    0  501    0  0.00000000000E+00 -0.00000000000E+00 -0.22791988899E+04  0.22792037359E+04  0.47000000000E+01 0. -1.
         25    2    1    2    0    0 -0.49263137370E+02  0.14912080987E+03 -0.48940631399E+03  0.52896759106E+03  0.12499719826E+03 0.  0.
         25    2    1    2    0    0  0.49263137370E+02 -0.14912080987E+03 -0.17645411888E+04  0.17759212096E+04  0.12500665215E+03 0.  0.
          5    1    3    3  502    0  0.32402030147E+02  0.10018335675E+03 -0.25707905969E+03  0.27784587356E+03  0.47000000000E+01 0. -1.
         -5    1    3    3    0  502 -0.81665167518E+02  0.48937453126E+02 -0.23232725430E+03  0.25112171749E+03  0.47000000000E+01 0. -1.
          5    1    4    4  503    0  0.11977437624E+02  0.18348596970E+02 -0.40014025556E+03  0.40076731920E+03  0.47000000000E+01 0. -1.
         -5    1    4    4    0  503  0.37285699746E+02 -0.16746940684E+03 -0.13644009333E+04  0.13751538904E+04  0.47000000000E+01 0. -1.
<mgrwt>
<rscale>  0 0.20072355E+03</rscale>
<asrwt>0</asrwt>
<pdfrwt beam="2">  1        5 0.35067955E+00 0.20072503E+03</pdfrwt>
<pdfrwt beam="1">  1       -5 0.39185632E-02 0.20072503E+03</pdfrwt>
<totfact> 0.39662436E+00</totfact>
</mgrwt>
</event>
<event>
 8    1  0.1865596E-007  0.1688709E+03  0.7546771E-02  0.1179031E+00
         -5   -1    0    0    0  501 -0.00000000000E+00  0.00000000000E+00  0.12938113481E+03  0.12946647460E+03  0.47000000000E+01 0. -1.
          5   -1    0    0  501    0  0.00000000000E+00 -0.00000000000E+00 -0.22045913596E+03  0.22050923026E+03  0.47000000000E+01 0. -1.
         25    2    1    2    0    0 -0.25716425083E+02 -0.11059628317E+03 -0.51199294783E+02  0.17646000950E+03  0.12499557911E+03 0.  0.
         25    2    1    2    0    0  0.25716425083E+02  0.11059628317E+03 -0.39878706371E+02  0.17351569536E+03  0.12499805176E+03 0.  0.
          5    1    4    4  502    0  0.74275183517E+02  0.48708553355E+02 -0.31087998329E+02  0.94222501010E+02  0.47000000000E+01 0.  1.
         -5    1    4    4    0  502 -0.48558758434E+02  0.61887729815E+02 -0.87907080415E+01  0.79293194350E+02  0.47000000000E+01 0.  1.
          5    1    3    3  503    0 -0.12174049200E+02  0.23423510549E+02 -0.29629417816E+02  0.39960739739E+02  0.47000000000E+01 0.  1.
         -5    1    3    3    0  503 -0.13542375883E+02 -0.13401979372E+03 -0.21569876968E+02  0.13649926976E+03  0.47000000000E+01 0.  1.
<mgrwt>
<rscale>  0 0.16887046E+03</rscale>
<asrwt>0</asrwt>
<pdfrwt beam="2">  1        5 0.33927208E-01 0.16887091E+03</pdfrwt>
<pdfrwt beam="1">  1       -5 0.19915208E-01 0.16887091E+03</pdfrwt>
<totfact> 0.15162501E+02</totfact>
</mgrwt>
</event>
<event>
 8    1  0.1865596E-007  0.1366708E+03  0.7546771E-02  0.1217883E+00
          5   -1    0    0  501    0  0.00000000000E+00  0.00000000000E+00  0.75555518030E+02  0.75701560782E+02  0.47000000000E+01 0.  1.
         -5   -1    0    0    0  501 -0.00000000000E+00 -0.00000000000E+00 -0.26145724216E+03  0.26149948275E+03  0.47000000000E+01 0.  1.
         25    2    1    2    0    0  0.46125154235E+02  0.30461478946E+02 -0.13285184780E+03  0.19059546419E+03  0.12498634307E+03 0.  0.
         25    2    1    2    0    0 -0.46125154235E+02 -0.30461478946E+02 -0.53049876327E+02  0.14660557934E+03  0.12499389970E+03 0.  0.
          5    1    3    3  502    0 -0.34152653812E+02  0.37343392432E+01 -0.88283588812E+02  0.94849518214E+02  0.47000000000E+01 0. -1.
         -5    1    3    3    0  502  0.80277808048E+02  0.26727139703E+02 -0.44568258990E+02  0.95745945977E+02  0.47000000000E+01 0. -1.
          5    1    4    4  503    0 -0.81854408242E+02 -0.35596599854E+02 -0.62415985002E+02  0.10901883899E+03  0.47000000000E+01 0. -1.
         -5    1    4    4    0  503  0.35729254007E+02  0.51351209075E+01  0.93661086751E+01  0.37586740353E+02  0.47000000000E+01 0. -1.
<mgrwt>
<rscale>  0 0.13666907E+03</rscale>
<asrwt>0</asrwt>
<pdfrwt beam="1">  1        5 0.11638409E-01 0.13667080E+03</pdfrwt>
<pdfrwt beam="2">  1       -5 0.40238674E-01 0.13667080E+03</pdfrwt>
<totfact> 0.26600474E+02</totfact>
</mgrwt>
</event>
<event>
 8    1  0.1865596E-007  0.1330062E+03  0.7546771E-02  0.1223063E+00
         -5   -1    0    0    0  501 -0.00000000000E+00  0.00000000000E+00  0.18201545596E+03  0.18207612751E+03  0.47000000000E+01 0. -1.
          5   -1    0    0  501    0  0.00000000000E+00 -0.00000000000E+00 -0.12213735439E+03  0.12222775191E+03  0.47000000000E+01 0. -1.
         25    2    1    2    0    0 -0.27192995190E+02  0.36420740061E+02  0.98840088546E+02  0.16571060659E+03  0.12499885094E+03 0.  0.
         25    2    1    2    0    0  0.27192995190E+02 -0.36420740061E+02 -0.38961986972E+02  0.13859327283E+03  0.12499651816E+03 0.  0.
          5    1    3    3  502    0  0.93004470282E+01 -0.22391243227E+02  0.92850310715E+02  0.96078802491E+02  0.47000000000E+01 0. -1.
         -5    1    3    3    0  502 -0.36493442218E+02  0.58811983287E+02  0.59897778312E+01  0.69631804095E+02  0.47000000000E+01 0. -1.
          5    1    4    4  503    0  0.11404269358E+02 -0.35756533437E+02  0.41679489819E+02  0.56283718024E+02  0.47000000000E+01 0. -1.
         -5    1    4    4    0  503  0.15788725832E+02 -0.66420662393E+00 -0.80641476791E+02  0.82309554809E+02  0.47000000000E+01 0. -1.
<mgrwt>
<rscale>  0 0.13300562E+03</rscale>
<asrwt>0</asrwt>
<pdfrwt beam="2">  1        5 0.18801983E-01 0.13300617E+03</pdfrwt>
<pdfrwt beam="1">  1       -5 0.28013999E-01 0.13300617E+03</pdfrwt>
<totfact> 0.22788443E+02</totfact>
</mgrwt>
</event>
<event>
 8    1  0.1865596E-007  0.1303483E+03  0.7546771E-02  0.1226948E+00
          5   -1    0    0  501    0  0.00000000000E+00  0.00000000000E+00  0.22436213697E+03  0.22441136002E+03  0.47000000000E+01 0.  1.
         -5   -1    0    0    0  501 -0.00000000000E+00 -0.00000000000E+00 -0.80132114118E+02  0.80269830653E+02  0.47000000000E+01 0.  1.
         25    2    1    2    0    0  0.30575097214E+02 -0.20613024602E+02  0.35868144758E+02  0.13517315122E+03  0.12500209459E+03 0.  0.
         25    2    1    2    0    0 -0.30575097214E+02  0.20613024602E+02  0.10836187810E+03  0.16950803945E+03  0.12502377958E+03 0.  0.
          5    1    3    3  502    0  0.34090476163E+02 -0.71309136303E+02  0.24565677448E+02  0.82901845539E+02  0.47000000000E+01 0.  1.
         -5    1    3    3    0  502 -0.35153789491E+01  0.50696111701E+02  0.11302467310E+02  0.52271305686E+02  0.47000000000E+01 0.  1.
          5    1    4    4  503    0 -0.11485395579E+02  0.54279432445E+02  0.11700252874E+03  0.12957566450E+03  0.47000000000E+01 0. -1.
         -5    1    4    4    0  503 -0.19089701635E+02 -0.33666407843E+02 -0.86406506475E+01  0.39932374950E+02  0.47000000000E+01 0. -1.
<mgrwt>
<rscale>  0 0.13034310E+03</rscale>
<asrwt>0</asrwt>
<pdfrwt beam="1">  1        5 0.34531631E-01 0.13034830E+03</pdfrwt>
<pdfrwt beam="2">  1       -5 0.12342398E-01 0.13034830E+03</pdfrwt>
<totfact> 0.32124907E+02</totfact>
</mgrwt>
</event>
<event>
 8    1  0.1865596E-007  0.2328288E+03  0.7546771E-02  0.1124665E+00
         -5   -1    0    0    0  501 -0.00000000000E+00  0.00000000000E+00  0.57174720299E+03  0.57176652064E+03  0.47000000000E+01 0.  1.
          5   -1    0    0  501    0  0.00000000000E+00 -0.00000000000E+00 -0.12063969625E+03  0.12073121515E+03  0.47000000000E+01 0.  1.
         25    2    1    2    0    0 -0.14040766219E+03  0.13736218792E+03  0.38592445298E+03  0.45071822219E+03  0.12500620037E+03 0.  0.
         25    2    1    2    0    0  0.14040766219E+03 -0.13736218792E+03  0.65183053750E+02  0.24177951360E+03  0.12500328168E+03 0.  0.
          5    1    3    3  502    0 -0.31814901662E+02  0.68973501713E+02  0.25981709282E+03  0.27073334414E+03  0.47000000000E+01 0.  1.
         -5    1    3    3    0  502 -0.10859276053E+03  0.68388686203E+02  0.12610736017E+03  0.17998487805E+03  0.47000000000E+01 0.  1.
          5    1    4    4  503    0  0.12918478368E+03 -0.42931985140E+02  0.51342809486E+02  0.14556798332E+03  0.47000000000E+01 0. -1.
         -5    1    4    4    0  503  0.11222878515E+02 -0.94430202776E+02  0.13840244264E+02  0.96211530285E+02  0.47000000000E+01 0. -1.
<mgrwt>
<rscale>  0 0.23282837E+03</rscale>
<asrwt>0</asrwt>
<pdfrwt beam="2">  1        5 0.18568479E-01 0.23282876E+03</pdfrwt>
<pdfrwt beam="1">  1       -5 0.87969633E-01 0.23282876E+03</pdfrwt>
<totfact> 0.23690954E+01</totfact>
</mgrwt>
</event>
<event>
 8    1  0.1865596E-007  0.1279671E+03  0.7546771E-02  0.1230506E+00
          5   -1    0    0  501    0  0.00000000000E+00  0.00000000000E+00  0.58113420120E+03  0.58115320683E+03  0.47000000000E+01 0.  1.
         -5   -1    0    0    0  501 -0.00000000000E+00 -0.00000000000E+00 -0.35342314033E+02  0.35653459316E+02  0.47000000000E+01 0.  1.
         25    2    1    2    0    0  0.94564876911E+01 -0.25677129089E+02  0.13270056315E+03  0.18435028273E+03  0.12500738844E+03 0.  0.
         25    2    1    2    0    0 -0.94564876911E+01  0.25677129089E+02  0.41309132402E+03  0.43245638342E+03  0.12500136584E+03 0.  0.
          5    1    4    4  502    0  0.23662747572E+02  0.50996315740E+02  0.36189837063E+03  0.36626912305E+03  0.47000000000E+01 0.  1.
         -5    1    4    4    0  502 -0.33119235264E+02 -0.25319186651E+02  0.51192953392E+02  0.66187260361E+02  0.47000000000E+01 0.  1.
          5    1    3    3  503    0 -0.33425350699E+02 -0.24259350027E+02 -0.32676546521E+01  0.41695775565E+02  0.47000000000E+01 0. -1.
         -5    1    3    3    0  503  0.42881838390E+02 -0.14177790613E+01  0.13596821780E+03  0.14265450716E+03  0.47000000000E+01 0. -1.
<mgrwt>
<rscale>  0 0.12796566E+03</rscale>
<asrwt>0</asrwt>
<pdfrwt beam="1">  1        5 0.89430660E-01 0.12796713E+03</pdfrwt>
<pdfrwt beam="2">  1       -5 0.54626752E-02 0.12796713E+03</pdfrwt>
<totfact> 0.16506805E+02</totfact>
</mgrwt>
</event>
<event>
 8    1  0.1865596E-007  0.1787528E+03  0.7546771E-02  0.1169016E+00
         -5   -1    0    0    0  501 -0.00000000000E+00  0.00000000000E+00  0.55058195284E+02  0.55258437075E+02  0.47000000000E+01 0. -1.
          5   -1    0    0  501    0  0.00000000000E+00 -0.00000000000E+00 -0.58191817085E+03  0.58193715087E+03  0.47000000000E+01 0. -1.
         25    2    1    2    0    0  0.21821690393E+02 -0.12589990991E+03 -0.24114776256E+03  0.30017464445E+03  0.12500240116E+03 0.  0.
         25    2    1    2    0    0 -0.21821690393E+02  0.12589990991E+03 -0.28571221300E+03  0.33702094349E+03  0.12499869682E+03 0.  0.
          5    1    4    4  502    0  0.76745100315E+01 -0.10946719608E+02  0.44225004783E+01  0.14845109797E+02  0.47000000000E+01 0. -1.
         -5    1    4    4    0  502 -0.29496200425E+02  0.13684662952E+03 -0.29013471348E+03  0.32217583369E+03  0.47000000000E+01 0. -1.
          5    1    3    3  503    0  0.60757621035E+02 -0.73008552094E+02 -0.73915235307E+02  0.12044620875E+03  0.47000000000E+01 0. -1.
         -5    1    3    3    0  503 -0.38935930642E+02 -0.52891357819E+02 -0.16723252725E+03  0.17972843570E+03  0.47000000000E+01 0. -1.
<mgrwt>
<rscale>  0 0.17875218E+03</rscale>
<asrwt>0</asrwt>
<pdfrwt beam="2">  1        5 0.89542731E-01 0.17875283E+03</pdfrwt>
<pdfrwt beam="1">  1       -5 0.84873552E-02 0.17875283E+03</pdfrwt>
<totfact> 0.86446351E+01</totfact>
</mgrwt>
</event>
<event>
 8    1  0.1865596E-007  0.1350091E+03  0.7546771E-02  0.1220210E+00
         -5   -1    0    0    0  501 -0.00000000000E+00  0.00000000000E+00  0.49047947667E+03  0.49050199494E+03  0.47000000000E+01 0.  1.
          5   -1    0    0  501    0  0.00000000000E+00 -0.00000000000E+00 -0.37223199228E+02  0.37518749457E+02  0.47000000000E+01 0.  1.
         25    2    1    2    0    0 -0.21349033089E+02  0.46326597674E+02  0.24750220259E+03  0.28192688563E+03  0.12499397461E+03 0.  0.
         25    2    1    2    0    0  0.21349033089E+02 -0.46326597674E+02  0.20575407485E+03  0.24609385876E+03  0.12500205253E+03 0.  0.
          5    1    4    4  502    0  0.58125495441E+01 -0.88886105440E+02  0.12885993253E+03  0.15672108245E+03  0.47000000000E+01 0.  1.
         -5    1    4    4    0  502  0.15536483545E+02  0.42559507766E+02  0.76894142322E+02  0.89372776312E+02  0.47000000000E+01 0.  1.
          5    1    3    3  503    0  0.33822214944E+02  0.51617218435E+02  0.19806479861E+03  0.20750911766E+03  0.47000000000E+01 0.  1.
         -5    1    3    3    0  503 -0.55171248033E+02 -0.52906207616E+01  0.49437403978E+02  0.74417767970E+02  0.47000000000E+01 0.  1.
<mgrwt>
<rscale>  0 0.13500720E+03</rscale>
<asrwt>0</asrwt>
<pdfrwt beam="2">  1        5 0.57511131E-02 0.13500907E+03</pdfrwt>
<pdfrwt beam="1">  1       -5 0.75482844E-01 0.13500907E+03</pdfrwt>
<totfact> 0.22882263E+02</totfact>
</mgrwt>
</event>
<event>
 8    1  0.1865596E-007  0.1564569E+03  0.7546771E-02  0.1192769E+00
         -5   -1    0    0    0  501 -0.00000000000E+00  0.00000000000E+00  0.10124668206E+04  0.10124777295E+04  0.47000000000E+01 0. -1.
          5   -1    0    0  501    0  0.00000000000E+00 -0.00000000000E+00 -0.26579953899E+02  0.26992294257E+02  0.47000000000E+01 0. -1.
         25    2    1    2    0    0  0.84311776831E+02 -0.41619131695E+02  0.65572729161E+03  0.67413429366E+03  0.12505253733E+03 0.  0.
         25    2    1    2    0    0 -0.84311776831E+02  0.41619131695E+02  0.33015957505E+03  0.36533573009E+03  0.12499689137E+03 0.  0.
          5    1    4    4  502    0 -0.36075383600E+02 -0.25171322285E+02  0.28576344821E+02  0.52666177484E+02  0.47000000000E+01 0.  1.
         -5    1    4    4    0  502 -0.48236393231E+02  0.66790453980E+02  0.30158323022E+03  0.31266955261E+03  0.47000000000E+01 0.  1.
          5    1    3    3  503    0  0.63368315663E+02 -0.38537137925E+02  0.64618295639E+03  0.65044227842E+03  0.47000000000E+01 0. -1.
         -5    1    3    3    0  503  0.20943461167E+02 -0.30819937695E+01  0.95443352193E+01  0.23692015238E+02  0.47000000000E+01 0. -1.
<mgrwt>
<rscale>  0 0.15644579E+03</rscale>
<asrwt>0</asrwt>
<pdfrwt beam="2">  1        5 0.41217817E-02 0.15645691E+03</pdfrwt>
<pdfrwt beam="1">  1       -5 0.15579667E+00 0.15645691E+03</pdfrwt>
<totfact> 0.68185465E+01</totfact>
</mgrwt>
</event>
<event>
 8    1  0.1865596E-007  0.1681946E+03  0.7546771E-02  0.1179744E+00
         -5   -1    0    0    0  501 -0.00000000000E+00  0.00000000000E+00  0.59542410684E+02  0.59727620663E+02  0.47000000000E+01 0. -1.
          5   -1    0    0  501    0  0.00000000000E+00 -0.00000000000E+00 -0.47464543286E+03  0.47466870229E+03  0.47000000000E+01 0. -1.
         25    2    1    2    0    0  0.10635201976E+03  0.36761801126E+02 -0.19911808507E+03  0.26064657147E+03  0.12500576502E+03 0.  0.
         25    2    1    2    0    0 -0.10635201976E+03 -0.36761801126E+02 -0.21598493710E+03  0.27374975148E+03  0.12500900468E+03 0.  0.
          5    1    3    3  502    0  0.22198212921E+02 -0.43802696010E+02 -0.79818157884E+02  0.93832111575E+02  0.47000000000E+01 0.  1.
         -5    1    3    3    0  502  0.84153806840E+02  0.80564497136E+02 -0.11929992719E+03  0.16681445990E+03  0.47000000000E+01 0.  1.
          5    1    4    4  503    0  0.19112867119E+02  0.15942046759E+02 -0.68429618234E+02  0.72966795160E+02  0.47000000000E+01 0. -1.
         -5    1    4    4    0  503 -0.12546488688E+03 -0.52703847885E+02 -0.14755531887E+03  0.20078295632E+03  0.47000000000E+01 0. -1.
<mgrwt>
<rscale>  0 0.16819403E+03</rscale>
<asrwt>0</asrwt>
<pdfrwt beam="2">  1        5 0.73038409E-01 0.16819463E+03</pdfrwt>
<pdfrwt beam="1">  1       -5 0.91764081E-02 0.16819463E+03</pdfrwt>
<totfact> 0.11925631E+02</totfact>
</mgrwt>
</event>
<event>
 8    1  0.1865596E-007  0.1407276E+03  0.7546771E-02  0.1212381E+00
         -5   -1    0    0    0  501 -0.00000000000E+00  0.00000000000E+00  0.12800936710E+03  0.12809562079E+03  0.47000000000E+01 0.  1.
          5   -1    0    0  501    0  0.00000000000E+00 -0.00000000000E+00 -0.15483417659E+03  0.15490549455E+03  0.47000000000E+01 0.  1.
         25    2    1    2    0    0 -0.49295534914E+02 -0.41825987463E+02 -0.63082587797E+01  0.14078579943E+03  0.12490550109E+03 0.  0.
         25    2    1    2    0    0  0.49295534914E+02  0.41825987463E+02 -0.20516550713E+02  0.14221531591E+03  0.12499921694E+03 0.  0.
          5    1    4    4  502    0 -0.35512042719E+02  0.59152483714E+01  0.20044062959E+02  0.41472277503E+02  0.47000000000E+01 0.  1.
         -5    1    4    4    0  502  0.84807577633E+02  0.35910739092E+02 -0.40560613672E+02  0.10074303841E+03  0.47000000000E+01 0.  1.
          5    1    3    3  503    0  0.15141177783E+02 -0.67985937807E+02 -0.12066952262E+02  0.70845213960E+02  0.47000000000E+01 0.  1.
         -5    1    3    3    0  503 -0.64436712697E+02  0.26159950344E+02  0.57586934820E+01  0.69940585469E+02  0.47000000000E+01 0.  1.
<mgrwt>
<rscale>  0 0.14070682E+03</rscale>
<asrwt>0</asrwt>
<pdfrwt beam="2">  1        5 0.23832763E-01 0.14072763E+03</pdfrwt>
<pdfrwt beam="1">  1       -5 0.19705870E-01 0.14072763E+03</pdfrwt>
<totfact> 0.29054784E+02</totfact>
</mgrwt>
</event>
<event>
 8    1  0.1865596E-007  0.1326617E+03  0.7546771E-02  0.1223559E+00
         -5   -1    0    0    0  501 -0.00000000000E+00  0.00000000000E+00  0.20533354692E+03  0.20538733040E+03  0.47000000000E+01 0.  1.
          5   -1    0    0  501    0  0.00000000000E+00 -0.00000000000E+00 -0.93485142267E+02  0.93603214821E+02  0.47000000000E+01 0.  1.
         25    2    1    2    0    0  0.14583555216E+02  0.41972030888E+02  0.99354413374E+02  0.16574185027E+03  0.12499892005E+03 0.  0.
         25    2    1    2    0    0 -0.14583555216E+02 -0.41972030888E+02  0.12493991277E+02  0.13324869495E+03  0.12499913372E+03 0.  0.
          5    1    4    4  502    0 -0.50151717095E+02 -0.34139539055E+02  0.51469272339E+02  0.79698675332E+02  0.47000000000E+01 0. -1.
         -5    1    4    4    0  502  0.35568161879E+02 -0.78324918323E+01 -0.38975281062E+02  0.53550019623E+02  0.47000000000E+01 0. -1.
          5    1    3    3  503    0 -0.48344667693E+02  0.48311685255E+02  0.42881138047E+02  0.80821456475E+02  0.47000000000E+01 0.  1.
         -5    1    3    3    0  503  0.62928222909E+02 -0.63396543675E+01  0.56473275327E+02  0.84920393794E+02  0.47000000000E+01 0.  1.
<mgrwt>
<rscale>  0 0.13266161E+03</rscale>
<asrwt>0</asrwt>
<pdfrwt beam="2">  1        5 0.14395549E-01 0.13266166E+03</pdfrwt>
<pdfrwt beam="1">  1       -5 0.31602996E-01 0.13266166E+03</pdfrwt>
<totfact> 0.29279673E+02</totfact>
</mgrwt>
</event>
<event>
 8    1  0.1865596E-007  0.1269628E+03  0.7546771E-02  0.1232041E+00
          5   -1    0    0  501    0  0.00000000000E+00  0.00000000000E+00  0.63047682237E+03  0.63049434061E+03  0.47000000000E+01 0. -1.
         -5   -1    0    0    0  501 -0.00000000000E+00 -0.00000000000E+00 -0.25444248533E+02  0.25874693881E+02  0.47000000000E+01 0. -1.
         25    2    1    2    0    0  0.21989997551E+02 -0.27587659489E+01  0.32441338467E+03  0.34837279801E+03  0.12501356509E+03 0.  0.
         25    2    1    2    0    0 -0.21989997551E+02  0.27587659489E+01  0.28061918916E+03  0.30799623648E+03  0.12499352615E+03 0.  0.
          5    1    4    4  502    0  0.42180649987E+02  0.43020929332E+01  0.38482499109E+02  0.57451788263E+02  0.47000000000E+01 0.  1.
         -5    1    4    4    0  502 -0.64170647538E+02 -0.15433269844E+01  0.24213669005E+03  0.25054444822E+03  0.47000000000E+01 0.  1.
          5    1    3    3  503    0 -0.13339789616E+01 -0.18504990153E+00  0.32440434719E+03  0.32444118761E+03  0.47000000000E+01 0. -1.
         -5    1    3    3    0  503  0.23323976513E+02 -0.25737160473E+01  0.90374845554E-02  0.23931610400E+02  0.47000000000E+01 0. -1.
<mgrwt>
<rscale>  0 0.12695790E+03</rscale>
<asrwt>0</asrwt>
<pdfrwt beam="1">  1        5 0.97030896E-01 0.12696284E+03</pdfrwt>
<pdfrwt beam="2">  1       -5 0.39489584E-02 0.12696284E+03</pdfrwt>
<totfact> 0.23157756E+02</totfact>
</mgrwt>
</event>
<event>
 8    1  0.1865596E-007  0.1500339E+03  0.7546771E-02  0.1200441E+00
         -5   -1    0    0    0  501 -0.00000000000E+00  0.00000000000E+00  0.20934799915E+03  0.20940075155E+03  0.47000000000E+01 0. -1.
          5   -1    0    0  501    0  0.00000000000E+00 -0.00000000000E+00 -0.11593875886E+03  0.11603398557E+03  0.47000000000E+01 0. -1.
         25    2    1    2    0    0 -0.77287153992E+02 -0.30032926015E+02  0.90869031699E+02  0.17537933475E+03  0.12500179727E+03 0.  0.
         25    2    1    2    0    0  0.77287153992E+02  0.30032926015E+02  0.25402085882E+01  0.15005540236E+03  0.12503955495E+03 0.  0.
          5    1    4    4  502    0 -0.10892946025E+02 -0.37182914041E+02  0.19262740955E+01  0.39077178783E+02  0.47000000000E+01 0.  1.
         -5    1    4    4    0  502  0.88180100018E+02  0.67215840057E+02  0.61393449266E+00  0.11097822358E+03  0.47000000000E+01 0.  1.
          5    1    3    3  503    0  0.25880822075E+02 -0.13804434399E+02  0.59051287262E+02  0.66102374296E+02  0.47000000000E+01 0.  1.
         -5    1    3    3    0  503 -0.10316797607E+03 -0.16228491616E+02  0.31817744437E+02  0.10927696046E+03  0.47000000000E+01 0.  1.
<mgrwt>
<rscale>  0 0.15002603E+03</rscale>
<asrwt>0</asrwt>
<pdfrwt beam="2">  1        5 0.17848115E-01 0.15003390E+03</pdfrwt>
<pdfrwt beam="1">  1       -5 0.32218767E-01 0.15003390E+03</pdfrwt>
<totfact> 0.19849388E+02</totfact>
</mgrwt>
</event>
<event>
 8    1  0.1865596E-007  0.1456439E+03  0.7546771E-02  0.1205933E+00
         -5   -1    0    0    0  501 -0.00000000000E+00  0.00000000000E+00  0.15075392887E+02  0.15791056668E+02  0.47000000000E+01 0.  1.
          5   -1    0    0  501    0  0.00000000000E+00 -0.00000000000E+00 -0.13756842366E+04  0.13756922653E+04  0.47000000000E+01 0.  1.
         25    2    1    2    0    0  0.74424650107E+02 -0.69013007307E+01 -0.70709049656E+03  0.72193244128E+03  0.12499129153E+03 0.  0.
         25    2    1    2    0    0 -0.74424650107E+02  0.69013007307E+01 -0.65351834712E+03  0.66955088066E+03  0.12500198108E+03 0.  0.
          5    1    4    4  502    0 -0.29172420990E+02  0.15552660802E+02 -0.58999114981E+03  0.59093532832E+03  0.47000000000E+01 0.  1.
         -5    1    4    4    0  502 -0.45252229117E+02 -0.86513600711E+01 -0.63527197309E+02  0.78615552336E+02  0.47000000000E+01 0.  1.
          5    1    3    3  503    0  0.65152733791E+02  0.38819687997E+02 -0.60300185356E+03  0.60777065764E+03  0.47000000000E+01 0.  1.
         -5    1    3    3    0  503  0.92719163162E+01 -0.45720988728E+02 -0.10408864300E+03  0.11416178364E+03  0.47000000000E+01 0.  1.
<mgrwt>
<rscale>  0 0.14564163E+03</rscale>
<asrwt>0</asrwt>
<pdfrwt beam="2">  1        5 0.21169930E+00 0.14564392E+03</pdfrwt>
<pdfrwt beam="1">  1       -5 0.23749609E-02 0.14564392E+03</pdfrwt>
<totfact> 0.65511194E+01</totfact>
</mgrwt>
</event>
<event>
 8    1  0.1865596E-007  0.1568221E+03  0.7546771E-02  0.1192334E+00
          5   -1    0    0  501    0  0.00000000000E+00  0.00000000000E+00  0.48225628181E+02  0.48454114516E+02  0.47000000000E+01 0. -1.
         -5   -1    0    0    0  501 -0.00000000000E+00 -0.00000000000E+00 -0.53374993539E+03  0.53377062820E+03  0.47000000000E+01 0. -1.
         25    2    1    2    0    0 -0.74056771260E+02 -0.59003918681E+02 -0.30607522474E+03  0.34391165590E+03  0.12500926396E+03 0.  0.
         25    2    1    2    0    0  0.74056771260E+02  0.59003918681E+02 -0.17944908247E+03  0.23831308681E+03  0.12500114543E+03 0.  0.
          5    1    4    4  502    0  0.10290056688E+03  0.70922216863E+02 -0.14789322671E+03  0.19368268899E+03  0.47000000000E+01 0. -1.
         -5    1    4    4    0  502 -0.28843795616E+02 -0.11918298182E+02 -0.31555855764E+02  0.44630397826E+02  0.47000000000E+01 0. -1.
          5    1    3    3  503    0 -0.95762126520E+02 -0.72194659780E+02 -0.18799790190E+03  0.22304204737E+03  0.47000000000E+01 0. -1.
         -5    1    3    3    0  503  0.21705355260E+02  0.13190741099E+02 -0.11807732283E+03  0.12086960853E+03  0.47000000000E+01 0. -1.
<mgrwt>
<rscale>  0 0.15682052E+03</rscale>
<asrwt>0</asrwt>
<pdfrwt beam="1">  1        5 0.74384954E-02 0.15682214E+03</pdfrwt>
<pdfrwt beam="2">  1       -5 0.82134538E-01 0.15682214E+03</pdfrwt>
<totfact> 0.12791848E+02</totfact>
</mgrwt>
</event>
<event>
 8    1  0.1865596E-007  0.1272864E+03  0.7546771E-02  0.1231539E+00
          5   -1    0    0  501    0  0.00000000000E+00  0.00000000000E+00  0.23985895676E+03  0.23990500024E+03  0.47000000000E+01 0. -1.
         -5   -1    0    0    0  501 -0.00000000000E+00 -0.00000000000E+00 -0.74257418322E+02  0.74406009004E+02  0.47000000000E+01 0. -1.
         25    2    1    2    0    0  0.61168224814E+01  0.23230810771E+02  0.35153387602E+02  0.13205147773E+03  0.12499898409E+03 0.  0.
         25    2    1    2    0    0 -0.61168224814E+01 -0.23230810771E+02  0.13044815084E+03  0.18225953151E+03  0.12499892273E+03 0.  0.
          5    1    4    4  502    0  0.99925566345E+00 -0.67340189503E+02  0.11748415239E+03  0.13550024242E+03  0.47000000000E+01 0. -1.
         -5    1    4    4    0  502 -0.71160781449E+01  0.44109378732E+02  0.12963998446E+02  0.46759289088E+02  0.47000000000E+01 0. -1.
          5    1    3    3  503    0  0.32905078476E+02 -0.38605296630E+01 -0.37267192816E+02  0.50085741875E+02  0.47000000000E+01 0. -1.
         -5    1    3    3    0  503 -0.26788255995E+02  0.27091340434E+02  0.72420580418E+02  0.81965735853E+02  0.47000000000E+01 0. -1.
<mgrwt>
<rscale>  0 0.12728640E+03</rscale>
<asrwt>0</asrwt>
<pdfrwt beam="1">  1        5 0.36916350E-01 0.12728642E+03</pdfrwt>
<pdfrwt beam="2">  1       -5 0.11439190E-01 0.12728642E+03</pdfrwt>
<totfact> 0.31857058E+02</totfact>
</mgrwt>
</event>
<event>
 8    1  0.1865596E-007  0.1438830E+03  0.7546771E-02  0.1208198E+00
          5   -1    0    0  501    0  0.00000000000E+00  0.00000000000E+00  0.36500126692E+02  0.36801484325E+02  0.47000000000E+01 0. -1.
         -5   -1    0    0    0  501 -0.00000000000E+00 -0.00000000000E+00 -0.58091592044E+03  0.58093493321E+03  0.47000000000E+01 0. -1.
         25    2    1    2    0    0 -0.65340074855E+01 -0.70954043873E+02 -0.22035040509E+03  0.26316529342E+03  0.12499800415E+03 0.  0.
         25    2    1    2    0    0  0.65340074855E+01  0.70954043873E+02 -0.32406538866E+03  0.35457112411E+03  0.12500054532E+03 0.  0.
          5    1    4    4  502    0 -0.20565719762E+02  0.22179469923E+02 -0.28417836919E+03  0.28582217064E+03  0.47000000000E+01 0. -1.
         -5    1    4    4    0  502  0.27099727247E+02  0.48774573950E+02 -0.39887019470E+02  0.68748953469E+02  0.47000000000E+01 0. -1.
          5    1    3    3  503    0 -0.71244658609E+01 -0.64144017778E+02 -0.23640118003E+03  0.24509757434E+03  0.47000000000E+01 0.  1.
         -5    1    3    3    0  503  0.59045837537E+00 -0.68100260953E+01  0.16050774939E+02  0.18067719077E+02  0.47000000000E+01 0.  1.
<mgrwt>
<rscale>  0 0.14388241E+03</rscale>
<asrwt>0</asrwt>
<pdfrwt beam="1">  1        5 0.56400484E-02 0.14388296E+03</pdfrwt>
<pdfrwt beam="2">  1       -5 0.89396317E-01 0.14388296E+03</pdfrwt>
<totfact> 0.16286557E+02</totfact>
</mgrwt>
</event>
<event>
 8    1  0.1865596E-007  0.1488456E+03  0.7546771E-02  0.1201899E+00
          5   -1    0    0  501    0  0.00000000000E+00  0.00000000000E+00  0.42501377716E+03  0.42503976376E+03  0.47000000000E+01 0.  1.
         -5   -1    0    0    0  501 -0.00000000000E+00 -0.00000000000E+00 -0.64559047189E+02  0.64729904788E+02  0.47000000000E+01 0.  1.
         25    2    1    2    0    0 -0.22137084254E+02  0.77713701114E+02  0.72370752232E+02  0.16550530346E+03  0.12500003942E+03 0.  0.
         25    2    1    2    0    0  0.22137084254E+02 -0.77713701114E+02  0.28808397774E+03  0.32426436508E+03  0.12500212155E+03 0.  0.
          5    1    4    4  502    0 -0.25576077210E+02  0.15537672097E+02  0.19726330879E+02  0.36149316862E+02  0.47000000000E+01 0.  1.
         -5    1    4    4    0  502  0.47713161464E+02 -0.93251373211E+02  0.26835764686E+03  0.28811504822E+03  0.47000000000E+01 0.  1.
          5    1    3    3  503    0 -0.49170040606E+02  0.15440492168E+02  0.81809322487E+02  0.96803703118E+02  0.47000000000E+01 0.  1.
         -5    1    3    3    0  503  0.27032956353E+02  0.62273208946E+02 -0.94385702553E+01  0.68701600346E+02  0.47000000000E+01 0.  1.
<mgrwt>
<rscale>  0 0.14884512E+03</rscale>
<asrwt>0</asrwt>
<pdfrwt beam="1">  1        5 0.65401877E-01 0.14884556E+03</pdfrwt>
<pdfrwt beam="2">  1       -5 0.99473030E-02 0.14884556E+03</pdfrwt>
<totfact> 0.12796740E+02</totfact>
</mgrwt>
</event>
<event>
 8    1  0.1865596E-007  0.1255761E+03  0.7546771E-02  0.1234190E+00
         -5   -1    0    0    0  501 -0.00000000000E+00  0.00000000000E+00  0.58570697280E+02  0.58758970207E+02  0.47000000000E+01 0.  1.
          5   -1    0    0  501    0  0.00000000000E+00 -0.00000000000E+00 -0.29704972090E+03  0.29708690090E+03  0.47000000000E+01 0.  1.
         25    2    1    2    0    0  0.61602147745E+01  0.10289265373E+02 -0.64117570744E+02  0.14099796775E+03  0.12500218720E+03 0.  0.
         25    2    1    2    0    0 -0.61602147745E+01 -0.10289265373E+02 -0.17436145288E+03  0.21484790336E+03  0.12495554449E+03 0.  0.
          5    1    4    4  502    0 -0.61727835474E+02  0.10160573832E+01 -0.55842105951E+02  0.83377388073E+02  0.47000000000E+01 0. -1.
         -5    1    4    4    0  502  0.55567620699E+02 -0.11305322756E+02 -0.11851934693E+03  0.13147051528E+03  0.47000000000E+01 0. -1.
          5    1    3    3  503    0  0.51835302300E+02 -0.16254957171E+02  0.39931366599E+01  0.54673186642E+02  0.47000000000E+01 0.  1.
         -5    1    3    3    0  503 -0.45675087526E+02  0.26544222544E+02 -0.68110707404E+02  0.86324781112E+02  0.47000000000E+01 0.  1.
<mgrwt>
<rscale>  0 0.12556452E+03</rscale>
<asrwt>0</asrwt>
<pdfrwt beam="2">  1        5 0.45717299E-01 0.12557613E+03</pdfrwt>
<pdfrwt beam="1">  1       -5 0.90282192E-02 0.12557613E+03</pdfrwt>
<totfact> 0.30903547E+02</totfact>
</mgrwt>
</event>
<event>
 8    1  0.1865596E-007  0.1399419E+03  0.7546771E-02  0.1213409E+00
          5   -1    0    0  501    0  0.00000000000E+00  0.00000000000E+00  0.19972514377E+03  0.19978043711E+03  0.47000000000E+01 0. -1.
         -5   -1    0    0    0  501 -0.00000000000E+00 -0.00000000000E+00 -0.10687818638E+03  0.10698147841E+03  0.47000000000E+01 0. -1.
         25    2    1    2    0    0  0.55917974936E+02  0.28835762236E+02  0.20633470052E+01  0.13995243985E+03  0.12499642761E+03 0.  0.
         25    2    1    2    0    0 -0.55917974936E+02 -0.28835762236E+02  0.90783610385E+02  0.16680947567E+03  0.12500166461E+03 0.  0.
          5    1    4    4  502    0 -0.56203225817E+01 -0.61454493694E+02  0.86720186295E+02  0.10653977441E+03  0.47000000000E+01 0. -1.
         -5    1    4    4    0  502 -0.50297652355E+02  0.32618731457E+02  0.40634240898E+01  0.60269701257E+02  0.47000000000E+01 0. -1.
          5    1    3    3  503    0  0.25947422226E+02  0.42236856285E+02 -0.54850698325E+02  0.74080428291E+02  0.47000000000E+01 0. -1.
         -5    1    3    3    0  503  0.29970552710E+02 -0.13401094048E+02  0.56914045330E+02  0.65872011562E+02  0.47000000000E+01 0. -1.
<mgrwt>
<rscale>  0 0.13994074E+03</rscale>
<asrwt>0</asrwt>
<pdfrwt beam="1">  1        5 0.30739144E-01 0.13994191E+03</pdfrwt>
<pdfrwt beam="2">  1       -5 0.16454997E-01 0.13994191E+03</pdfrwt>
<totfact> 0.24708304E+02</totfact>
</mgrwt>
</event>
<event>
 8    1  0.1865596E-007  0.1388228E+03  0.7546771E-02  0.1214923E+00
         -5   -1    0    0    0  501 -0.00000000000E+00  0.00000000000E+00  0.30477904553E+02  0.30838168978E+02  0.47000000000E+01 0. -1.
          5   -1    0    0  501    0  0.00000000000E+00 -0.00000000000E+00 -0.68685509817E+03  0.68687117852E+03  0.47000000000E+01 0. -1.
         25    2    1    2    0    0 -0.60226398106E+02  0.43253592228E+01 -0.22336185148E+03  0.26298519024E+03  0.12499906330E+03 0.  0.
         25    2    1    2    0    0  0.60226398106E+02 -0.43253592228E+01 -0.43301534213E+03  0.45472415726E+03  0.12500337959E+03 0.  0.
          5    1    4    4  502    0 -0.42561307458E+01 -0.91210787255E+01  0.48242229973E+01  0.12110815562E+02  0.47000000000E+01 0. -1.
         -5    1    4    4    0  502  0.64482528852E+02  0.47957195027E+01 -0.43783956513E+03  0.44261334169E+03  0.47000000000E+01 0. -1.
          5    1    3    3  503    0 -0.13056821948E+02  0.44513545003E+02 -0.20710956937E+02  0.51019310318E+02  0.47000000000E+01 0.  1.
         -5    1    3    3    0  503 -0.47169576158E+02 -0.40188185780E+02 -0.20265089454E+03  0.21196587992E+03  0.47000000000E+01 0.  1.
<mgrwt>
<rscale>  0 0.13882184E+03</rscale>
<asrwt>0</asrwt>
<pdfrwt beam="2">  1        5 0.10569895E+00 0.13882281E+03</pdfrwt>
<pdfrwt beam="1">  1       -5 0.47178585E-02 0.13882281E+03</pdfrwt>
<totfact> 0.14452124E+02</totfact>
</mgrwt>
</event>
<event>
 8    1  0.1865596E-007  0.1256419E+03  0.7546771E-02  0.1234071E+00
         -5   -1    0    0    0  501 -0.00000000000E+00  0.00000000000E+00  0.26078496430E+03  0.26082731376E+03  0.47000000000E+01 0. -1.
          5   -1    0    0  501    0  0.00000000000E+00 -0.00000000000E+00 -0.71204489975E+02  0.71359438006E+02  0.47000000000E+01 0. -1.
         25    2    1    2    0    0  0.26276160889E+00 -0.12734293515E+02  0.15941674288E+03  0.20297479850E+03  0.12499135827E+03 0.  0.
         25    2    1    2    0    0 -0.26276160889E+00  0.12734293515E+02  0.30163731445E+02  0.12921195327E+03  0.12499458747E+03 0.  0.
          5    1    4    4  502    0 -0.59378579033E+00 -0.55872386958E+02  0.20812657727E+02  0.59810809455E+02  0.47000000000E+01 0. -1.
         -5    1    4    4    0  502  0.33102418144E+00  0.68606680473E+02  0.93510737176E+01  0.69401143811E+02  0.47000000000E+01 0. -1.
          5    1    3    3  503    0  0.28660773669E+02  0.33760991235E+01  0.16665780800E+03  0.16920328886E+03  0.47000000000E+01 0. -1.
         -5    1    3    3    0  503 -0.28398012060E+02 -0.16110392639E+02 -0.72410651178E+01  0.33771509649E+02  0.47000000000E+01 0. -1.
<mgrwt>
<rscale>  0 0.12564106E+03</rscale>
<asrwt>0</asrwt>
<pdfrwt beam="2">  1        5 0.10969714E-01 0.12564186E+03</pdfrwt>
<pdfrwt beam="1">  1       -5 0.40135940E-01 0.12564186E+03</pdfrwt>
<totfact> 0.28803477E+02</totfact>
</mgrwt>
</event>
<event>
 8    1  0.1865596E-007  0.1974422E+03  0.7546771E-02  0.1151916E+00
          5   -1    0    0  501    0  0.00000000000E+00  0.00000000000E+00  0.11257685124E+03  0.11267491928E+03  0.47000000000E+01 0. -1.
         -5   -1    0    0    0  501 -0.00000000000E+00 -0.00000000000E+00 -0.43262135205E+03  0.43264688170E+03  0.47000000000E+01 0. -1.
         25    2    1    2    0    0  0.61420644969E+02 -0.13994678488E+03 -0.28200536546E+03  0.34425343931E+03  0.12500322436E+03 0.  0.
         25    2    1    2    0    0 -0.61420644969E+02  0.13994678488E+03 -0.38039135348E+02  0.20106836168E+03  0.12499564802E+03 0.  0.
          5    1    3    3  502    0 -0.19049541445E+02  0.10310208844E+02 -0.12814461481E+02  0.25602458060E+02  0.47000000000E+01 0. -1.
         -5    1    3    3    0  502  0.80470186414E+02 -0.15025699372E+03 -0.26919090398E+03  0.31865098125E+03  0.47000000000E+01 0. -1.
          5    1    4    4  503    0 -0.86157407852E+02  0.58935767923E+02  0.75430293707E+01  0.10476407285E+03  0.47000000000E+01 0. -1.
         -5    1    4    4    0  503  0.24736762883E+02  0.81011016955E+02 -0.45582164719E+02  0.96304288827E+02  0.47000000000E+01 0. -1.
<mgrwt>
<rscale>  0 0.19744096E+03</rscale>
<asrwt>0</asrwt>
<pdfrwt beam="1">  1        5 0.17329023E-01 0.19744215E+03</pdfrwt>
<pdfrwt beam="2">  1       -5 0.66566638E-01 0.19744215E+03</pdfrwt>
<totfact> 0.49300734E+01</totfact>
</mgrwt>
</event>
<event>
 8    1  0.1865596E-007  0.1394174E+03  0.7546771E-02  0.1214117E+00
         -5   -1    0    0    0  501 -0.00000000000E+00  0.00000000000E+00  0.25574982288E+03  0.25579300597E+03  0.47000000000E+01 0.  1.
          5   -1    0    0  501    0  0.00000000000E+00 -0.00000000000E+00 -0.84757267902E+02  0.84887481187E+02  0.47000000000E+01 0.  1.
         25    2    1    2    0    0 -0.15280305165E+02  0.59812945796E+02  0.14058021980E+03  0.19798990338E+03  0.12500450964E+03 0.  0.
         25    2    1    2    0    0  0.15280305165E+02 -0.59812945796E+02  0.30412335178E+02  0.14269058378E+03  0.12499846542E+03 0.  0.
          5    1    3    3  502    0 -0.52461396937E+02 -0.12918991963E+02  0.77908269092E+02  0.94925691542E+02  0.47000000000E+01 0. -1.
         -5    1    3    3    0  502  0.37181091772E+02  0.72731937759E+02  0.62671950712E+02  0.10306421184E+03  0.47000000000E+01 0. -1.
          5    1    4    4  503    0 -0.41024198450E+02 -0.40685335331E+02  0.53350195088E+02  0.78782070837E+02  0.47000000000E+01 0. -1.
         -5    1    4    4    0  503  0.56304503615E+02 -0.19127610465E+02 -0.22937859911E+02  0.63908512944E+02  0.47000000000E+01 0. -1.
<mgrwt>
<rscale>  0 0.13941602E+03</rscale>
<asrwt>0</asrwt>
<pdfrwt beam="2">  1        5 0.13052918E-01 0.13941737E+03</pdfrwt>
<pdfrwt beam="1">  1       -5 0.39359464E-01 0.13941737E+03</pdfrwt>
<totfact> 0.22851418E+02</totfact>
</mgrwt>
</event>
<event>
 8    1  0.1865596E-007  0.1748328E+03  0.7546771E-02  0.1172900E+00
          5   -1    0    0  501    0  0.00000000000E+00  0.00000000000E+00  0.59444635056E+02  0.59630148725E+02  0.47000000000E+01 0.  1.
         -5   -1    0    0    0  501 -0.00000000000E+00 -0.00000000000E+00 -0.66211530728E+03  0.66213198845E+03  0.47000000000E+01 0.  1.
         25    2    1    2    0    0 -0.91800619203E+02 -0.80706852016E+02 -0.47245454348E+03  0.50376503084E+03  0.12499984397E+03 0.  0.
         25    2    1    2    0    0  0.91800619203E+02  0.80706852016E+02 -0.13021612874E+03  0.21799710633E+03  0.12500219413E+03 0.  0.
          5    1    3    3  502    0 -0.12114827095E+03 -0.62191104390E+02 -0.32904746274E+03  0.35614457704E+03  0.47000000000E+01 0.  1.
         -5    1    3    3    0  502  0.29347651749E+02 -0.18515747626E+02 -0.14340708074E+03  0.14762045380E+03  0.47000000000E+01 0.  1.
          5    1    4    4  503    0  0.22672619638E+02  0.94326927409E+02 -0.44207112547E+02  0.10671445879E+03  0.47000000000E+01 0.  1.
         -5    1    4    4    0  503  0.69127999565E+02 -0.13620075394E+02 -0.86009016191E+02  0.11128264754E+03  0.47000000000E+01 0.  1.
<mgrwt>
<rscale>  0 0.17483235E+03</rscale>
<asrwt>0</asrwt>
<pdfrwt beam="1">  1        5 0.91608824E-02 0.17483277E+03</pdfrwt>
<pdfrwt beam="2">  1       -5 0.10187944E+00 0.17483277E+03</pdfrwt>
<totfact> 0.55064121E+01</totfact>
</mgrwt>
</event>
<event>
 8    1  0.1865596E-007  0.1301553E+03  0.7546771E-02  0.1227227E+00
         -5   -1    0    0    0  501 -0.00000000000E+00  0.00000000000E+00  0.52701038861E+02  0.52910202202E+02  0.47000000000E+01 0.  1.
          5   -1    0    0  501    0  0.00000000000E+00 -0.00000000000E+00 -0.32057288529E+03  0.32060733738E+03  0.47000000000E+01 0.  1.
         25    2    1    2    0    0  0.32671393618E+02 -0.15709271412E+02 -0.13403228782E+03  0.18682898328E+03  0.12500485449E+03 0.  0.
         25    2    1    2    0    0 -0.32671393618E+02  0.15709271412E+02 -0.13383955861E+03  0.18668855630E+03  0.12500155374E+03 0.  0.
          5    1    4    4  502    0  0.26458176125E+02  0.11943973145E+02 -0.12275506822E+03  0.12622832627E+03  0.47000000000E+01 0.  1.
         -5    1    4    4    0  502 -0.59129569743E+02  0.37652982668E+01 -0.11084490392E+02  0.60460230038E+02  0.47000000000E+01 0.  1.
          5    1    3    3  503    0  0.52249427961E+02 -0.36801251200E+02 -0.17111069750E+02  0.66326567228E+02  0.47000000000E+01 0. -1.
         -5    1    3    3    0  503 -0.19578034344E+02  0.21091979789E+02 -0.11692121807E+03  0.12050241606E+03  0.47000000000E+01 0. -1.
<mgrwt>
<rscale>  0 0.13015456E+03</rscale>
<asrwt>0</asrwt>
<pdfrwt beam="2">  1        5 0.49337644E-01 0.13015535E+03</pdfrwt>
<pdfrwt beam="1">  1       -5 0.81265920E-02 0.13015535E+03</pdfrwt>
<totfact> 0.31980114E+02</totfact>
</mgrwt>
</event>
<event>
 8    1  0.1865596E-007  0.1311463E+03  0.7546771E-02  0.1225765E+00
          5   -1    0    0  501    0  0.00000000000E+00  0.00000000000E+00  0.14355292647E+03  0.14362984612E+03  0.47000000000E+01 0.  1.
         -5   -1    0    0    0  501 -0.00000000000E+00 -0.00000000000E+00 -0.11981963815E+03  0.11991178294E+03  0.47000000000E+01 0.  1.
         25    2    1    2    0    0 -0.31593590823E+02 -0.24000869469E+02  0.16739428860E+02  0.13221030749E+03  0.12500064084E+03 0.  0.
         25    2    1    2    0    0  0.31593590823E+02  0.24000869469E+02  0.69938594539E+01  0.13133132157E+03  0.12499922095E+03 0.  0.
          5    1    3    3  502    0 -0.38432866996E+00 -0.55473544826E+02  0.51380830322E+02  0.75759762465E+02  0.47000000000E+01 0. -1.
         -5    1    3    3    0  502 -0.31209262153E+02  0.31472675357E+02 -0.34641401462E+02  0.56450545024E+02  0.47000000000E+01 0. -1.
          5    1    4    4  503    0 -0.93295859665E+01 -0.44262873650E+02  0.21480836578E+02  0.50296714586E+02  0.47000000000E+01 0.  1.
         -5    1    4    4    0  503  0.40923176790E+02  0.68263743119E+02 -0.14486977124E+02  0.81034606986E+02  0.47000000000E+01 0.  1.
<mgrwt>
<rscale>  0 0.13114598E+03</rscale>
<asrwt>0</asrwt>
<pdfrwt beam="1">  1        5 0.22098071E-01 0.13114632E+03</pdfrwt>
<pdfrwt beam="2">  1       -5 0.18446795E-01 0.13114632E+03</pdfrwt>
<totfact> 0.36983214E+02</totfact>
</mgrwt>
</event>
<event>
 8    1  0.1865596E-007  0.1574482E+03  0.7546771E-02  0.1191609E+00
         -5   -1    0    0    0  501 -0.00000000000E+00  0.00000000000E+00  0.27481894775E+03  0.27485913491E+03  0.47000000000E+01 0. -1.
          5   -1    0    0  501    0  0.00000000000E+00 -0.00000000000E+00 -0.31147985897E+03  0.31151531671E+03  0.47000000000E+01 0. -1.
         25    2    1    2    0    0  0.77818100558E+02  0.55756773140E+02  0.22879748114E+03  0.27773533064E+03  0.12499660789E+03 0.  0.
         25    2    1    2    0    0 -0.77818100558E+02 -0.55756773140E+02 -0.26545839236E+03  0.30863912099E+03  0.12500189760E+03 0.  0.
          5    1    3    3  502    0  0.82390602387E+02 -0.16498921138E+02  0.13614634456E+03  0.16005731129E+03  0.47000000000E+01 0. -1.
         -5    1    3    3    0  502 -0.45725018289E+01  0.72255694278E+02  0.92651136579E+02  0.11767801935E+03  0.47000000000E+01 0. -1.
          5    1    4    4  503    0 -0.17290131442E+02 -0.41264632246E+02 -0.10559116778E+02  0.46209343934E+02  0.47000000000E+01 0. -1.
         -5    1    4    4    0  503 -0.60527969116E+02 -0.14492140894E+02 -0.25489927558E+03  0.26242977705E+03  0.47000000000E+01 0. -1.
<mgrwt>
<rscale>  0 0.15744719E+03</rscale>
<asrwt>0</asrwt>
<pdfrwt beam="2">  1        5 0.47925797E-01 0.15744824E+03</pdfrwt>
<pdfrwt beam="1">  1       -5 0.42285657E-01 0.15744824E+03</pdfrwt>
<totfact> 0.16665958E+01</totfact>
</mgrwt>
</event>
<event>
 8    1  0.1865596E-007  0.2025311E+03  0.7546771E-02  0.1147622E+00
          5   -1    0    0  501    0  0.00000000000E+00  0.00000000000E+00  0.37261386985E+03  0.37264351061E+03  0.47000000000E+01 0.  1.
         -5   -1    0    0    0  501 -0.00000000000E+00 -0.00000000000E+00 -0.15758306317E+03  0.15765313761E+03  0.47000000000E+01 0.  1.
         25    2    1    2    0    0 -0.15769206827E+03  0.22974689180E+02 -0.38135174452E+02  0.20609007390E+03  0.12499680912E+03 0.  0.
         25    2    1    2    0    0  0.15769206827E+03 -0.22974689180E+02  0.25316598113E+03  0.32420657432E+03  0.12498905590E+03 0.  0.
          5    1    4    4  502    0  0.42403831858E+02 -0.66315133389E+02  0.10903853959E+03  0.13456327503E+03  0.47000000000E+01 0.  1.
         -5    1    4    4    0  502  0.11528823642E+03  0.43340444209E+02  0.14412744154E+03  0.18964329929E+03  0.47000000000E+01 0.  1.
          5    1    3    3  503    0  0.56059597548E+01 -0.28942614328E+02 -0.14034515448E+02  0.32987260158E+02  0.47000000000E+01 0.  1.
         -5    1    3    3    0  503 -0.16329802803E+03  0.51917303508E+02 -0.24100659004E+02  0.17310281374E+03  0.47000000000E+01 0.  1.
<mgrwt>
<rscale>  0 0.20252986E+03</rscale>
<asrwt>0</asrwt>
<pdfrwt beam="1">  1        5 0.57332881E-01 0.20253105E+03</pdfrwt>
<pdfrwt beam="2">  1       -5 0.24251219E-01 0.20253105E+03</pdfrwt>
<totfact> 0.36674530E+01</totfact>
</mgrwt>
</event>
<event>
 8    1  0.1865596E-007  0.1395183E+03  0.7546771E-02  0.1213983E+00
         -5   -1    0    0    0  501 -0.00000000000E+00  0.00000000000E+00  0.18804452611E+02  0.19382916138E+02  0.47000000000E+01 0. -1.
          5   -1    0    0  501    0  0.00000000000E+00 -0.00000000000E+00 -0.11712647599E+04  0.11712741898E+04  0.47000000000E+01 0.  1.
         25    2    1    2    0    0 -0.57324414480E+02 -0.23501553002E+02 -0.36151026546E+03  0.38749841709E+03  0.12500775865E+03 0.  0.
         25    2    1    2    0    0  0.57324414480E+02  0.23501553002E+02 -0.79095004178E+03  0.80315868884E+03  0.12499399738E+03 0.  0.
          5    1    3    3  502    0 -0.12334150338E+02 -0.71114387628E+02 -0.21771930781E+03  0.22941921102E+03  0.47000000000E+01 0. -1.
         -5    1    3    3    0  502 -0.44990264142E+02  0.47612834625E+02 -0.14379095765E+03  0.15807920607E+03  0.47000000000E+01 0. -1.
          5    1    4    4  503    0 -0.74612723165E+01  0.54644440180E+02 -0.51482193239E+03  0.51778895072E+03  0.47000000000E+01 0. -1.
         -5    1    4    4    0  503  0.64785686796E+02 -0.31142887178E+02 -0.27612810940E+03  0.28536973812E+03  0.47000000000E+01 0. -1.
<mgrwt>
<rscale>  0 0.13951520E+03</rscale>
<asrwt>0</asrwt>
<pdfrwt beam="2">  1        5 0.18023975E+00 0.13951828E+03</pdfrwt>
<pdfrwt beam="1">  1       -5 0.29382162E-02 0.13951828E+03</pdfrwt>
<totfact> 0.75433045E+01</totfact>
</mgrwt>
</event>
<event>
 8    1  0.1865596E-007  0.1269947E+03  0.7546771E-02  0.1231988E+00
         -5   -1    0    0    0  501 -0.00000000000E+00  0.00000000000E+00  0.18594669053E+02  0.19179460815E+02  0.47000000000E+01 0. -1.
          5   -1    0    0  501    0  0.00000000000E+00 -0.00000000000E+00 -0.86936704110E+03  0.86937974566E+03  0.47000000000E+01 0. -1.
         25    2    1    2    0    0  0.10456186123E+02  0.19776772346E+02 -0.48584480889E+03  0.50216589602E+03  0.12499982500E+03 0.  0.
         25    2    1    2    0    0 -0.10456186123E+02 -0.19776772346E+02 -0.36492756316E+03  0.38639331045E+03  0.12500884550E+03 0.  0.
          5    1    3    3  502    0  0.21043201856E+02 -0.25935657689E+02 -0.34085237301E+02  0.47951726622E+02  0.47000000000E+01 0. -1.
         -5    1    3    3    0  502 -0.10587015733E+02  0.45712430035E+02 -0.45175957159E+03  0.45421416940E+03  0.47000000000E+01 0. -1.
          5    1    4    4  503    0 -0.54509177946E+02 -0.27298161194E+02 -0.96568378619E+02  0.11429777703E+03  0.47000000000E+01 0.  1.
         -5    1    4    4    0  503  0.44052991824E+02  0.75213888474E+01 -0.26835918455E+03  0.27209553342E+03  0.47000000000E+01 0.  1.
<mgrwt>
<rscale>  0 0.12699252E+03</rscale>
<asrwt>0</asrwt>
<pdfrwt beam="2">  1        5 0.13379471E+00 0.12699474E+03</pdfrwt>
<pdfrwt beam="1">  1       -5 0.29066802E-02 0.12699474E+03</pdfrwt>
<totfact> 0.17005039E+02</totfact>
</mgrwt>
</event>
<event>
 8    1  0.1865596E-007  0.1494773E+03  0.7546771E-02  0.1201118E+00
          5   -1    0    0  501    0  0.00000000000E+00  0.00000000000E+00  0.44124393571E+03  0.44126896651E+03  0.47000000000E+01 0. -1.
         -5   -1    0    0    0  501 -0.00000000000E+00 -0.00000000000E+00 -0.51964197159E+02  0.52176314419E+02  0.47000000000E+01 0. -1.
         25    2    1    2    0    0 -0.43155144152E+02  0.69680472888E+02  0.15332529379E+03  0.21413103010E+03  0.12500287023E+03 0.  0.
         25    2    1    2    0    0  0.43155144152E+02 -0.69680472888E+02  0.23595444476E+03  0.27931425083E+03  0.12499686374E+03 0.  0.
          5    1    4    4  502    0  0.62811397594E+02 -0.19886965109E+02  0.20901057215E+03  0.21919916131E+03  0.47000000000E+01 0.  1.
         -5    1    4    4    0  502 -0.19656253441E+02 -0.49793507778E+02  0.26943872611E+02  0.60115089516E+02  0.47000000000E+01 0.  1.
          5    1    3    3  503    0 -0.37976698854E+02 -0.15564064431E+02  0.11152923108E+03  0.11893413783E+03  0.47000000000E+01 0.  1.
         -5    1    3    3    0  503 -0.51784452985E+01  0.85244537319E+02  0.41796062711E+02  0.95196892263E+02  0.47000000000E+01 0.  1.
<mgrwt>
<rscale>  0 0.14947601E+03</rscale>
<asrwt>0</asrwt>
<pdfrwt beam="1">  1        5 0.67901924E-01 0.14947726E+03</pdfrwt>
<pdfrwt beam="2">  1       -5 0.80127341E-02 0.14947726E+03</pdfrwt>
<totfact> 0.17137031E+02</totfact>
</mgrwt>
</event>
<event>
 8    1  0.1865596E-007  0.1406663E+03  0.7546771E-02  0.1212437E+00
         -5   -1    0    0    0  501 -0.00000000000E+00  0.00000000000E+00  0.43145143960E+03  0.43147703848E+03  0.47000000000E+01 0.  1.
          5   -1    0    0  501    0  0.00000000000E+00 -0.00000000000E+00 -0.54280703637E+02  0.54483802981E+02  0.47000000000E+01 0.  1.
         25    2    1    2    0    0  0.64234694689E+02 -0.59612182380E+01  0.28490445988E+03  0.31773818396E+03  0.12500148065E+03 0.  0.
         25    2    1    2    0    0 -0.64234694689E+02  0.59612182380E+01  0.92266276087E+02  0.16822265750E+03  0.12499665863E+03 0.  0.
          5    1    3    3  502    0  0.59850752296E+02 -0.49875976026E+01  0.29751395853E+03  0.30355169939E+03  0.47000000000E+01 0.  1.
         -5    1    3    3    0  502  0.43839423927E+01 -0.97362063534E+00 -0.12609498658E+02  0.14186484570E+02  0.47000000000E+01 0.  1.
          5    1    4    4  503    0 -0.51866152351E+02 -0.54263441975E+02  0.31154455757E+02  0.81408285870E+02  0.47000000000E+01 0.  1.
         -5    1    4    4    0  503 -0.12368542337E+02  0.60224660213E+02  0.61111820330E+02  0.86814371629E+02  0.47000000000E+01 0.  1.
<mgrwt>
<rscale>  0 0.14066521E+03</rscale>
<asrwt>0</asrwt>
<pdfrwt beam="2">  1        5 0.83684699E-02 0.14066628E+03</pdfrwt>
<pdfrwt beam="1">  1       -5 0.66394735E-01 0.14066628E+03</pdfrwt>
<totfact> 0.16394493E+02</totfact>
</mgrwt>
</event>
<event>
 8    1  0.1865596E-007  0.1615324E+03  0.7546771E-02  0.1186979E+00
         -5   -1    0    0    0  501 -0.00000000000E+00  0.00000000000E+00  0.50277938762E+03  0.50280135503E+03  0.47000000000E+01 0.  1.
          5   -1    0    0  501    0  0.00000000000E+00 -0.00000000000E+00 -0.79106227781E+02  0.79245727164E+02  0.47000000000E+01 0.  1.
         25    2    1    2    0    0  0.50840466822E+02 -0.88783866915E+02  0.38271372215E+03  0.41540643372E+03  0.12500153583E+03 0.  0.
         25    2    1    2    0    0 -0.50840466822E+02  0.88783866915E+02  0.40959437689E+02  0.16664064847E+03  0.12499640833E+03 0.  0.
          5    1    3    3  502    0  0.45758391663E+02 -0.10058202572E+02  0.34591790671E+02  0.58426704754E+02  0.47000000000E+01 0.  1.
         -5    1    3    3    0  502  0.50820751593E+01 -0.78725664343E+02  0.34812193148E+03  0.35697972896E+03  0.47000000000E+01 0.  1.
          5    1    4    4  503    0  0.11753864525E+02  0.90540254059E+02  0.48338125783E+02  0.10341351624E+03  0.47000000000E+01 0. -1.
         -5    1    4    4    0  503 -0.62594331347E+02 -0.17563871445E+01 -0.73786880941E+01  0.63227132234E+02  0.47000000000E+01 0. -1.
<mgrwt>
<rscale>  0 0.16153140E+03</rscale>
<asrwt>0</asrwt>
<pdfrwt beam="2">  1        5 0.12182610E-01 0.16153239E+03</pdfrwt>
<pdfrwt beam="1">  1       -5 0.77363095E-01 0.16153239E+03</pdfrwt>
<totfact> 0.62750683E+01</totfact>
</mgrwt>
</event>
<event>
 8    1  0.1865596E-007  0.1540123E+03  0.7546771E-02  0.1195629E+00
         -5   -1    0    0    0  501 -0.00000000000E+00  0.00000000000E+00  0.10149636394E+02  0.11185039961E+02  0.47000000000E+01 0.  1.
          5   -1    0    0  501    0  0.00000000000E+00 -0.00000000000E+00 -0.25266184523E+04  0.25266228237E+04  0.47000000000E+01 0.  1.
         25    2    1    2    0    0  0.72785508743E+02 -0.52884142454E+02 -0.81805583559E+03  0.83242624946E+03  0.12499459121E+03 0.  0.
         25    2    1    2    0    0 -0.72785508743E+02  0.52884142454E+02 -0.16984129803E+04  0.17053816142E+04  0.12500134294E+03 0.  0.
          5    1    3    3  502    0  0.58199355466E+02 -0.91756316692E+02 -0.66195244133E+03  0.67082748245E+03  0.47000000000E+01 0.  1.
         -5    1    3    3    0  502  0.14586153277E+02  0.38872174238E+02 -0.15610339426E+03  0.16159876701E+03  0.47000000000E+01 0.  1.
          5    1    4    4  503    0  0.35914493420E+01 -0.25763931659E+02 -0.10801406600E+03  0.11120165078E+03  0.47000000000E+01 0. -1.
         -5    1    4    4    0  503 -0.76376958085E+02  0.78648074113E+02 -0.15903989143E+04  0.15941799635E+04  0.47000000000E+01 0. -1.
<mgrwt>
<rscale>  0 0.15401096E+03</rscale>
<asrwt>0</asrwt>
<pdfrwt beam="2">  1        5 0.38879004E+00 0.15401233E+03</pdfrwt>
<pdfrwt beam="1">  1       -5 0.16414672E-02 0.15401233E+03</pdfrwt>
<totfact> 0.84776638E+00</totfact>
</mgrwt>
</event>
<event>
 8    1  0.1865596E-007  0.1530432E+03  0.7546771E-02  0.1196783E+00
         -5   -1    0    0    0  501 -0.00000000000E+00  0.00000000000E+00  0.10838087863E+04  0.10838189772E+04  0.47000000000E+01 0.  1.
          5   -1    0    0  501    0  0.00000000000E+00 -0.00000000000E+00 -0.21523779859E+02  0.22030957750E+02  0.47000000000E+01 0.  1.
         25    2    1    2    0    0 -0.88295852811E+02 -0.12470199843E+01  0.58093714605E+03  0.60075789490E+03  0.12499747174E+03 0.  0.
         25    2    1    2    0    0  0.88295852811E+02  0.12470199843E+01  0.48134786039E+03  0.50509204002E+03  0.12499797398E+03 0.  0.
          5    1    4    4  502    0  0.95772031005E+02  0.44637040454E+02  0.38101134118E+03  0.39541937157E+03  0.47000000000E+01 0. -1.
         -5    1    4    4    0  502 -0.74761781936E+01 -0.43390020470E+02  0.10033651921E+03  0.10967266845E+03  0.47000000000E+01 0. -1.
          5    1    3    3  503    0 -0.49004945745E+02 -0.17925867360E+02  0.53617293939E+03  0.53872658405E+03  0.47000000000E+01 0.  1.
         -5    1    3    3    0  503 -0.39290907066E+02  0.16678847375E+02  0.44764206657E+02  0.62031310847E+02  0.47000000000E+01 0.  1.
<mgrwt>
<rscale>  0 0.15304305E+03</rscale>
<asrwt>0</asrwt>
<pdfrwt beam="2">  1        5 0.33511483E-02 0.15304315E+03</pdfrwt>
<pdfrwt beam="1">  1       -5 0.16677961E+00 0.15304315E+03</pdfrwt>
<totfact> 0.78444923E+01</totfact>
</mgrwt>
</event>
<event>
 8    1  0.1865596E-007  0.1973657E+03  0.7546771E-02  0.1151988E+00
          5   -1    0    0  501    0  0.00000000000E+00  0.00000000000E+00  0.13661876595E+03  0.13669958745E+03  0.47000000000E+01 0. -1.
         -5   -1    0    0    0  501 -0.00000000000E+00 -0.00000000000E+00 -0.36708362085E+03  0.36711370813E+03  0.47000000000E+01 0. -1.
         25    2    1    2    0    0 -0.15176117744E+03  0.17230522875E+02 -0.23442083613E+03  0.30644144395E+03  0.12499953703E+03 0.  0.
         25    2    1    2    0    0  0.15176117744E+03 -0.17230522875E+02  0.39559812317E+01  0.19737185164E+03  0.12494659713E+03 0.  0.
          5    1    3    3  502    0 -0.12556909251E+03  0.61776130100E+02 -0.13609155967E+03  0.19526108127E+03  0.47000000000E+01 0. -1.
         -5    1    3    3    0  502 -0.26192084935E+02 -0.44545607225E+02 -0.98329276461E+02  0.11118036268E+03  0.47000000000E+01 0. -1.
          5    1    4    4  503    0  0.84543916366E+02  0.52066096822E+02 -0.91952773739E+01  0.99825825110E+02  0.47000000000E+01 0. -1.
         -5    1    4    4    0  503  0.67217261076E+02 -0.69296619697E+02  0.13151258606E+02  0.97546026526E+02  0.47000000000E+01 0. -1.
<mgrwt>
<rscale>  0 0.19735735E+03</rscale>
<asrwt>0</asrwt>
<pdfrwt beam="1">  1        5 0.21026803E-01 0.19736573E+03</pdfrwt>
<pdfrwt beam="2">  1       -5 0.56482934E-01 0.19736573E+03</pdfrwt>
<totfact> 0.49398924E+01</totfact>
</mgrwt>
</event>
<event>
 8    1  0.1865596E-007  0.1652285E+03  0.7546771E-02  0.1182918E+00
          5   -1    0    0  501    0  0.00000000000E+00  0.00000000000E+00  0.20773668934E+03  0.20778985080E+03  0.47000000000E+01 0. -1.
         -5   -1    0    0    0  501 -0.00000000000E+00 -0.00000000000E+00 -0.18652889907E+03  0.18658810301E+03  0.47000000000E+01 0. -1.
         25    2    1    2    0    0  0.10741728490E+03 -0.11697965473E+02 -0.96654510965E+02  0.19141991833E+03  0.12499670057E+03 0.  0.
         25    2    1    2    0    0 -0.10741728490E+03  0.11697965473E+02  0.11786230124E+03  0.20295803549E+03  0.12500050650E+03 0.  0.
          5    1    3    3  502    0  0.20127024735E+02 -0.26718123367E+02 -0.97008559567E+02  0.10272149663E+03  0.47000000000E+01 0.  1.
         -5    1    3    3    0  502  0.87290260160E+02  0.15020157894E+02  0.35404860224E+00  0.88698421702E+02  0.47000000000E+01 0.  1.
          5    1    4    4  503    0 -0.45938938387E+02 -0.53309214327E+02  0.27483360191E+02  0.75694672730E+02  0.47000000000E+01 0. -1.
         -5    1    4    4    0  503 -0.61478346508E+02  0.65007179801E+02  0.90378941047E+02  0.12726336276E+03  0.47000000000E+01 0. -1.
<mgrwt>
<rscale>  0 0.16522773E+03</rscale>
<asrwt>0</asrwt>
<pdfrwt beam="1">  1        5 0.31968134E-01 0.16522845E+03</pdfrwt>
<pdfrwt beam="2">  1       -5 0.28705397E-01 0.16522845E+03</pdfrwt>
<totfact> 0.84279007E+01</totfact>
</mgrwt>
</event>
<event>
 8    1  0.1865596E-007  0.1909784E+03  0.7546771E-02  0.1157583E+00
         -5   -1    0    0    0  501 -0.00000000000E+00  0.00000000000E+00  0.79227010848E+02  0.79366297935E+02  0.47000000000E+01 0. -1.
          5   -1    0    0  501    0  0.00000000000E+00 -0.00000000000E+00 -0.47250605876E+03  0.47252943354E+03  0.47000000000E+01 0. -1.
         25    2    1    2    0    0 -0.55482668726E+02  0.13329847227E+03 -0.15138056541E+03  0.24369509612E+03  0.12499766018E+03 0.  0.
         25    2    1    2    0    0  0.55482668726E+02 -0.13329847227E+03 -0.24189848250E+03  0.30820063536E+03  0.12500378620E+03 0.  0.
          5    1    4    4  502    0 -0.33094184992E+02 -0.64607373628E+02 -0.59116699064E+02  0.93734795650E+02  0.47000000000E+01 0. -1.
         -5    1    4    4    0  502  0.88576853718E+02 -0.68691098638E+02 -0.18278178343E+03  0.21446583971E+03  0.47000000000E+01 0. -1.
          5    1    3    3  503    0 -0.11500045526E+01  0.68728783904E+02 -0.14303673480E+03  0.15876575749E+03  0.47000000000E+01 0. -1.
         -5    1    3    3    0  503 -0.54332664173E+02  0.64569688361E+02 -0.83438306125E+01  0.84929338633E+02  0.47000000000E+01 0. -1.
<mgrwt>
<rscale>  0 0.19097741E+03</rscale>
<asrwt>0</asrwt>
<pdfrwt beam="2">  1        5 0.72705750E-01 0.19097842E+03</pdfrwt>
<pdfrwt beam="1">  1       -5 0.12201284E-01 0.19097842E+03</pdfrwt>
<totfact> 0.75669586E+01</totfact>
</mgrwt>
</event>
<event>
 8    1  0.1865596E-007  0.1566771E+03  0.7546771E-02  0.1192505E+00
         -5   -1    0    0    0  501 -0.00000000000E+00  0.00000000000E+00  0.21781442046E+03  0.21786512286E+03  0.47000000000E+01 0. -1.
          5   -1    0    0  501    0  0.00000000000E+00 -0.00000000000E+00 -0.20053814630E+03  0.20059321554E+03  0.47000000000E+01 0. -1.
         25    2    1    2    0    0  0.84964337859E+02  0.41215946132E+02  0.14716434396E+03  0.21494266084E+03  0.12500124157E+03 0.  0.
         25    2    1    2    0    0 -0.84964337859E+02 -0.41215946132E+02 -0.12988806980E+03  0.20351567756E+03  0.12502010804E+03 0.  0.
          5    1    3    3  502    0  0.61120196426E+02 -0.21314499390E+02  0.13060576385E+03  0.14584218130E+03  0.47000000000E+01 0. -1.
         -5    1    3    3    0  502  0.23844141433E+02  0.62530445522E+02  0.16558580109E+02  0.69100479544E+02  0.47000000000E+01 0. -1.
          5    1    4    4  503    0 -0.32528310631E+02 -0.82176750716E+02 -0.87657325462E+02  0.12456727523E+03  0.47000000000E+01 0.  1.
         -5    1    4    4    0  503 -0.52436027229E+02  0.40960804584E+02 -0.42230744336E+02  0.78948402333E+02  0.47000000000E+01 0.  1.
<mgrwt>
<rscale>  0 0.15667336E+03</rscale>
<asrwt>0</asrwt>
<pdfrwt beam="2">  1        5 0.30860159E-01 0.15667712E+03</pdfrwt>
<pdfrwt beam="1">  1       -5 0.33518047E-01 0.15667712E+03</pdfrwt>
<totfact> 0.65478635E+01</totfact>
</mgrwt>
</event>
<event>
 8    1  0.1865596E-007  0.1856331E+03  0.7546771E-02  0.1162460E+00
          5   -1    0    0  501    0  0.00000000000E+00  0.00000000000E+00  0.10125293212E+04  0.10125402294E+04  0.47000000000E+01 0.  1.
         -5   -1    0    0    0  501 -0.00000000000E+00 -0.00000000000E+00 -0.39428084312E+02  0.39707226452E+02  0.47000000000E+01 0.  1.
         25    2    1    2    0    0 -0.13488888373E+03  0.25281888527E+02  0.28960853687E+03  0.34399525864E+03  0.12500179398E+03 0.  0.
         25    2    1    2    0    0  0.13488888373E+03 -0.25281888527E+02  0.68349269998E+03  0.70825219724E+03  0.12499887652E+03 0.  0.
          5    1    4    4  502    0  0.61646062361E+02 -0.24660040766E+02  0.99783312880E+02  0.11994646366E+03  0.47000000000E+01 0. -1.
         -5    1    4    4    0  502  0.73242821364E+02 -0.62184776124E+00  0.58370938710E+03  0.58830573358E+03  0.47000000000E+01 0. -1.
          5    1    3    3  503    0 -0.53011981853E+02  0.83054214936E+01  0.24145150746E+03  0.24738668254E+03  0.47000000000E+01 0.  1.
         -5    1    3    3    0  503 -0.81876901872E+02  0.16976467033E+02  0.48157029406E+02  0.96608576091E+02  0.47000000000E+01 0.  1.
<mgrwt>
<rscale>  0 0.18563257E+03</rscale>
<asrwt>0</asrwt>
<pdfrwt beam="1">  1        5 0.15579604E+00 0.18563306E+03</pdfrwt>
<pdfrwt beam="2">  1       -5 0.60881713E-02 0.18563306E+03</pdfrwt>
<totfact> 0.37249218E+01</totfact>
</mgrwt>
</event>
<event>
 8    1  0.1865596E-007  0.1577536E+03  0.7546771E-02  0.1191257E+00
          5   -1    0    0  501    0  0.00000000000E+00  0.00000000000E+00  0.13100011210E+03  0.13108439789E+03  0.47000000000E+01 0.  1.
         -5   -1    0    0    0  501 -0.00000000000E+00 -0.00000000000E+00 -0.20393086346E+03  0.20398501678E+03  0.47000000000E+01 0.  1.
         25    2    1    2    0    0  0.89080499253E+02  0.36416964700E+02 -0.80559556634E+02  0.17713283523E+03  0.12499867394E+03 0.  0.
         25    2    1    2    0    0 -0.89080499253E+02 -0.36416964700E+02  0.76288052718E+01  0.15793657944E+03  0.12499693513E+03 0.  0.
          5    1    3    3  502    0  0.86952862934E+02 -0.26563932460E+02 -0.65545741786E+02  0.11218189313E+03  0.47000000000E+01 0. -1.
         -5    1    3    3    0  502  0.21276363187E+01  0.62980897160E+02 -0.15013814847E+02  0.64950942100E+02  0.47000000000E+01 0. -1.
          5    1    4    4  503    0 -0.81734044639E+02  0.25064025004E+02 -0.23059704331E+02  0.88670735682E+02  0.47000000000E+01 0.  1.
         -5    1    4    4    0  503 -0.73464546139E+01 -0.61480989705E+02  0.30688509603E+02  0.69265843763E+02  0.47000000000E+01 0.  1.
<mgrwt>
<rscale>  0 0.15775326E+03</rscale>
<asrwt>0</asrwt>
<pdfrwt beam="1">  1        5 0.20164513E-01 0.15775360E+03</pdfrwt>
<pdfrwt beam="2">  1       -5 0.31384628E-01 0.15775360E+03</pdfrwt>
<totfact> 0.16940337E+02</totfact>
</mgrwt>
</event>
<event>
 8    1  0.1865596E-007  0.1334761E+03  0.7546771E-02  0.1222397E+00
         -5   -1    0    0    0  501 -0.00000000000E+00  0.00000000000E+00  0.20457964006E+03  0.20463362169E+03  0.47000000000E+01 0.  1.
          5   -1    0    0  501    0  0.00000000000E+00 -0.00000000000E+00 -0.86947832397E+02  0.87074769931E+02  0.47000000000E+01 0.  1.
         25    2    1    2    0    0 -0.44651240677E+02  0.13974623850E+02  0.60353196037E+02  0.14648681896E+03  0.12500742558E+03 0.  0.
         25    2    1    2    0    0  0.44651240677E+02 -0.13974623850E+02  0.57278611623E+02  0.14522157267E+03  0.12497776767E+03 0.  0.
          5    1    3    3  502    0  0.11704929549E+02  0.57170638596E+02  0.10200090035E+02  0.59427427421E+02  0.47000000000E+01 0.  1.
         -5    1    3    3    0  502 -0.56356170227E+02 -0.43196014746E+02  0.50153106002E+02  0.87059391534E+02  0.47000000000E+01 0.  1.
          5    1    4    4  503    0 -0.39498493783E+02 -0.26375847949E+02  0.26851961572E+02  0.54762525566E+02  0.47000000000E+01 0. -1.
         -5    1    4    4    0  503  0.84149734460E+02  0.12401224100E+02  0.30426650051E+02  0.90459047099E+02  0.47000000000E+01 0. -1.
<mgrwt>
<rscale>  0 0.13346920E+03</rscale>
<asrwt>0</asrwt>
<pdfrwt beam="2">  1        5 0.13390506E-01 0.13347614E+03</pdfrwt>
<pdfrwt beam="1">  1       -5 0.31487708E-01 0.13347614E+03</pdfrwt>
<totfact> 0.33655931E+02</totfact>
</mgrwt>
</event>
<event>
 8    1  0.1865596E-007  0.1834053E+03  0.7546771E-02  0.1164548E+00
         -5   -1    0    0    0  501 -0.00000000000E+00  0.00000000000E+00  0.74844053540E+02  0.74991481851E+02  0.47000000000E+01 0. -1.
          5   -1    0    0  501    0  0.00000000000E+00 -0.00000000000E+00 -0.75354869137E+03  0.75356334855E+03  0.47000000000E+01 0. -1.
         25    2    1    2    0    0  0.65998275160E+02 -0.11686221663E+03 -0.75939900606E+02  0.19850495277E+03  0.12499919107E+03 0.  0.
         25    2    1    2    0    0 -0.65998275160E+02  0.11686221663E+03 -0.60276473723E+03  0.63004987763E+03  0.12499987942E+03 0.  0.
          5    1    3    3  502    0  0.46283994714E+02 -0.98203305985E+02  0.91661615806E+01  0.10905139151E+03  0.47000000000E+01 0. -1.
         -5    1    3    3    0  502  0.19714280446E+02 -0.18658910646E+02 -0.85106062186E+02  0.89453561253E+02  0.47000000000E+01 0. -1.
          5    1    4    4  503    0 -0.43099971277E+02  0.13975964634E+03 -0.53720343305E+03  0.55677642258E+03  0.47000000000E+01 0. -1.
         -5    1    4    4    0  503 -0.22898303883E+02 -0.22897429711E+02 -0.65561304184E+02  0.73273455047E+02  0.47000000000E+01 0. -1.
<mgrwt>
<rscale>  0 0.18340523E+03</rscale>
<asrwt>0</asrwt>
<pdfrwt beam="2">  1        5 0.11594303E+00 0.18340534E+03</pdfrwt>
<pdfrwt beam="1">  1       -5 0.11526938E-01 0.18340534E+03</pdfrwt>
<totfact> 0.26968397E+01</totfact>
</mgrwt>
</event>
<event>
 8    1  0.1865596E-007  0.1612705E+03  0.7546771E-02  0.1187270E+00
          5   -1    0    0  501    0  0.00000000000E+00  0.00000000000E+00  0.75310641700E+02  0.75457158396E+02  0.47000000000E+01 0.  1.
         -5   -1    0    0    0  501 -0.00000000000E+00 -0.00000000000E+00 -0.42551590472E+03  0.42554186065E+03  0.47000000000E+01 0.  1.
         25    2    1    2    0    0  0.10177068084E+03 -0.49978467668E+01 -0.28414924037E+03  0.32672462117E+03  0.12500374923E+03 0.  0.
         25    2    1    2    0    0 -0.10177068084E+03  0.49978467668E+01 -0.66056022647E+02  0.17427439788E+03  0.12500367066E+03 0.  0.
          5    1    3    3  502    0 -0.12173823112E+02 -0.15411642089E+02 -0.14551636585E+03  0.14691093700E+03  0.47000000000E+01 0.  1.
         -5    1    3    3    0  502  0.11394450396E+03  0.10413795322E+02 -0.13863287453E+03  0.17981368417E+03  0.47000000000E+01 0.  1.
          5    1    4    4  503    0 -0.42782481818E+02  0.64178378458E+02 -0.26353492741E+02  0.81644360440E+02  0.47000000000E+01 0. -1.
         -5    1    4    4    0  503 -0.58988199026E+02 -0.59180531691E+02 -0.39702529906E+02  0.92630037442E+02  0.47000000000E+01 0. -1.
<mgrwt>
<rscale>  0 0.16127053E+03</rscale>
<asrwt>0</asrwt>
<pdfrwt beam="1">  1        5 0.11599520E-01 0.16127054E+03</pdfrwt>
<pdfrwt beam="2">  1       -5 0.65477251E-01 0.16127054E+03</pdfrwt>
<totfact> 0.99888511E+01</totfact>
</mgrwt>
</event>
<event>
 8    1  0.1865596E-007  0.1262696E+03  0.7546771E-02  0.1233102E+00
         -5   -1    0    0    0  501 -0.00000000000E+00  0.00000000000E+00  0.28303899835E+03  0.28307801855E+03  0.47000000000E+01 0. -1.
          5   -1    0    0  501    0  0.00000000000E+00 -0.00000000000E+00 -0.60323944031E+02  0.60506761799E+02  0.47000000000E+01 0. -1.
         25    2    1    2    0    0 -0.16275554055E+02  0.71524353020E+01  0.15626662510E+03  0.20090609794E+03  0.12501180377E+03 0.  0.
         25    2    1    2    0    0  0.16275554055E+02 -0.71524353020E+01  0.66448429222E+02  0.14267868241E+03  0.12500304667E+03 0.  0.
          5    1    3    3  502    0  0.15735422821E+02 -0.22609207716E+02 -0.94181540068E+01  0.29488496567E+02  0.47000000000E+01 0.  1.
         -5    1    3    3    0  502 -0.32010976875E+02  0.29761643018E+02  0.16568477910E+03  0.17141760138E+03  0.47000000000E+01 0.  1.
          5    1    4    4  503    0  0.55511189464E+02 -0.29293716534E+02  0.83375387233E+00  0.62947590340E+02  0.47000000000E+01 0. -1.
         -5    1    4    4    0  503 -0.39235635409E+02  0.22141281232E+02  0.65614675350E+02  0.79731092065E+02  0.47000000000E+01 0. -1.
<mgrwt>
<rscale>  0 0.12626739E+03</rscale>
<asrwt>0</asrwt>
<pdfrwt beam="2">  1        5 0.92976711E-02 0.12626956E+03</pdfrwt>
<pdfrwt beam="1">  1       -5 0.43561527E-01 0.12626956E+03</pdfrwt>
<totfact> 0.32535458E+02</totfact>
</mgrwt>
</event>
<event>
 8    1  0.1865596E-007  0.1274827E+03  0.7546771E-02  0.1231240E+00
         -5   -1    0    0    0  501 -0.00000000000E+00  0.00000000000E+00  0.73847216299E+02  0.73996630701E+02  0.47000000000E+01 0.  1.
          5   -1    0    0  501    0  0.00000000000E+00 -0.00000000000E+00 -0.21994885579E+03  0.21999906628E+03  0.47000000000E+01 0.  1.
         25    2    1    2    0    0  0.21786875734E+02 -0.12328865150E+02 -0.78241163289E+02  0.14957655004E+03  0.12499918327E+03 0.  0.
         25    2    1    2    0    0 -0.21786875734E+02  0.12328865150E+02 -0.67860476202E+02  0.14441914694E+03  0.12500070761E+03 0.  0.
          5    1    3    3  502    0 -0.12441069963E+02 -0.33036726337E+02  0.21782890619E+02  0.41746734395E+02  0.47000000000E+01 0.  1.
         -5    1    3    3    0  502  0.34227945697E+02  0.20707861187E+02 -0.10002405391E+03  0.10782981564E+03  0.47000000000E+01 0.  1.
          5    1    4    4  503    0 -0.20134405052E+02 -0.52993770909E+02 -0.11578788139E+02  0.58050773954E+02  0.47000000000E+01 0. -1.
         -5    1    4    4    0  503 -0.16524706825E+01  0.65322636059E+02 -0.56281688063E+02  0.86368372986E+02  0.47000000000E+01 0. -1.
<mgrwt>
<rscale>  0 0.12748235E+03</rscale>
<asrwt>0</asrwt>
<pdfrwt beam="2">  1        5 0.33853641E-01 0.12748273E+03</pdfrwt>
<pdfrwt beam="1">  1       -5 0.11376466E-01 0.12748273E+03</pdfrwt>
<totfact> 0.38288105E+02</totfact>
</mgrwt>
</event>
<event>
 8    1  0.1865596E-007  0.1610768E+03  0.7546771E-02  0.1187489E+00
         -5   -1    0    0    0  501 -0.00000000000E+00  0.00000000000E+00  0.67261505868E+03  0.67263147947E+03  0.47000000000E+01 0.  1.
          5   -1    0    0  501    0  0.00000000000E+00 -0.00000000000E+00 -0.38426535023E+02  0.38712899580E+02  0.47000000000E+01 0.  1.
         25    2    1    2    0    0 -0.45962852893E+02 -0.90578484853E+02  0.31013709806E+03  0.34946726385E+03  0.12500121256E+03 0.  0.
         25    2    1    2    0    0  0.45962852893E+02  0.90578484853E+02  0.32405142560E+03  0.36187711520E+03  0.12501469637E+03 0.  0.
          5    1    4    4  502    0  0.81593641888E+01 -0.11501728588E+02 -0.46604509854E+01  0.15578022592E+02  0.47000000000E+01 0.  1.
         -5    1    4    4    0  502  0.37803488704E+02  0.10208021344E+03  0.32871187658E+03  0.34629909261E+03  0.47000000000E+01 0.  1.
          5    1    3    3  503    0 -0.41829048798E+02 -0.60510048271E+02  0.53699084354E+02  0.91196583958E+02  0.47000000000E+01 0.  1.
         -5    1    3    3    0  503 -0.41338040948E+01 -0.30068436582E+02  0.25643801371E+03  0.25827067989E+03  0.47000000000E+01 0.  1.
<mgrwt>
<rscale>  0 0.16107414E+03</rscale>
<asrwt>0</asrwt>
<pdfrwt beam="2">  1        5 0.59350664E-02 0.16107675E+03</pdfrwt>
<pdfrwt beam="1">  1       -5 0.10350252E+00 0.16107675E+03</pdfrwt>
<totfact> 0.10872664E+02</totfact>
</mgrwt>
</event>
<event>
 8    1  0.1865596E-007  0.1564648E+03  0.7546771E-02  0.1192747E+00
          5   -1    0    0  501    0  0.00000000000E+00  0.00000000000E+00  0.66251463622E+03  0.66253130734E+03  0.47000000000E+01 0. -1.
         -5   -1    0    0    0  501 -0.00000000000E+00 -0.00000000000E+00 -0.36971613755E+02  0.37269159149E+02  0.47000000000E+01 0. -1.
         25    2    1    2    0    0 -0.55262377342E+02 -0.76180656355E+02  0.28800351108E+03  0.32776096162E+03  0.12499521117E+03 0.  0.
         25    2    1    2    0    0  0.55262377342E+02  0.76180656355E+02  0.33753951138E+03  0.37203950487E+03  0.12499219450E+03 0.  0.
          5    1    4    4  502    0 -0.22589992115E+01  0.26582306520E+02  0.11106509606E+01  0.27111725192E+02  0.47000000000E+01 0.  1.
         -5    1    4    4    0  502  0.57521376554E+02  0.49598349835E+02  0.33642886042E+03  0.34492777968E+03  0.47000000000E+01 0.  1.
          5    1    3    3  503    0 -0.41052751150E+02 -0.10692740355E+02  0.24342574931E+03  0.24713933014E+03  0.47000000000E+01 0.  1.
         -5    1    3    3    0  503 -0.14209626192E+02 -0.65487915999E+02  0.44577761770E+02  0.80621631483E+02  0.47000000000E+01 0.  1.
<mgrwt>
<rscale>  0 0.15646417E+03</rscale>
<asrwt>0</asrwt>
<pdfrwt beam="1">  1        5 0.10194950E+00 0.15646477E+03</pdfrwt>
<pdfrwt beam="2">  1       -5 0.57121110E-02 0.15646477E+03</pdfrwt>
<totfact> 0.11929017E+02</totfact>
</mgrwt>
</event>
<event>
 8    1  0.1865596E-007  0.1502312E+03  0.7546771E-02  0.1200190E+00
          5   -1    0    0  501    0  0.00000000000E+00  0.00000000000E+00  0.43191909056E+02  0.43446875698E+02  0.47000000000E+01 0.  1.
         -5   -1    0    0    0  501 -0.00000000000E+00 -0.00000000000E+00 -0.57613111751E+03  0.57615028818E+03  0.47000000000E+01 0.  1.
         25    2    1    2    0    0  0.15014486825E+02  0.81967929493E+02 -0.36251691506E+03  0.39241295089E+03  0.12500093617E+03 0.  0.
         25    2    1    2    0    0 -0.15014486825E+02 -0.81967929493E+02 -0.17042229340E+03  0.22718421298E+03  0.12499892904E+03 0.  0.
          5    1    3    3  502    0 -0.11281557644E+02  0.81325690741E+01 -0.27277672816E+03  0.27317145833E+03  0.47000000000E+01 0. -1.
         -5    1    3    3    0  502  0.26296044469E+02  0.73835360419E+02 -0.89740186899E+02  0.11924149256E+03  0.47000000000E+01 0. -1.
          5    1    4    4  503    0  0.21162939858E+02 -0.30633962170E+02 -0.15876175043E+03  0.16313703768E+03  0.47000000000E+01 0. -1.
         -5    1    4    4    0  503 -0.36177426683E+02 -0.51333967323E+02 -0.11660542966E+02  0.64047175307E+02  0.47000000000E+01 0. -1.
<mgrwt>
<rscale>  0 0.15023077E+03</rscale>
<asrwt>0</asrwt>
<pdfrwt beam="1">  1        5 0.66659970E-02 0.15023119E+03</pdfrwt>
<pdfrwt beam="2">  1       -5 0.88656639E-01 0.15023119E+03</pdfrwt>
<totfact> 0.12708678E+02</totfact>
</mgrwt>
</event>
<event>
 8    1  0.1865596E-007  0.1315419E+03  0.7546771E-02  0.1225186E+00
         -5   -1    0    0    0  501 -0.00000000000E+00  0.00000000000E+00  0.43282832765E+02  0.43537266935E+02  0.47000000000E+01 0.  1.
          5   -1    0    0  501    0  0.00000000000E+00 -0.00000000000E+00 -0.41482219012E+03  0.41484881513E+03  0.47000000000E+01 0.  1.
         25    2    1    2    0    0 -0.35280676036E+02  0.20795085565E+02 -0.14007998686E+03  0.19215925950E+03  0.12500246641E+03 0.  0.
         25    2    1    2    0    0  0.35280676036E+02 -0.20795085565E+02 -0.23145937049E+03  0.26622682256E+03  0.12500447663E+03 0.  0.
          5    1    3    3  502    0 -0.35026949565E+02  0.70340636801E+02 -0.65026309835E+02  0.10210388510E+03  0.47000000000E+01 0. -1.
         -5    1    3    3    0  502 -0.25372647131E+00 -0.49545551236E+02 -0.75053677022E+02  0.90055374404E+02  0.47000000000E+01 0. -1.
          5    1    4    4  503    0 -0.45817699349E+02  0.27458522415E+01 -0.67886973277E+02  0.82082473275E+02  0.47000000000E+01 0.  1.
         -5    1    4    4    0  503  0.81098375385E+02 -0.23540937807E+02 -0.16357239722E+03  0.18414434929E+03  0.47000000000E+01 0.  1.
<mgrwt>
<rscale>  0 0.13154146E+03</rscale>
<asrwt>0</asrwt>
<pdfrwt beam="2">  1        5 0.63840415E-01 0.13154194E+03</pdfrwt>
<pdfrwt beam="1">  1       -5 0.66805176E-02 0.13154194E+03</pdfrwt>
<totfact> 0.25683191E+02</totfact>
</mgrwt>
</event>
<event>
 8    1  0.1865596E-007  0.1352718E+03  0.7546771E-02  0.1219838E+00
         -5   -1    0    0    0  501 -0.00000000000E+00  0.00000000000E+00  0.30063882264E+02  0.30429048897E+02  0.47000000000E+01 0. -1.
          5   -1    0    0  501    0  0.00000000000E+00 -0.00000000000E+00 -0.63357550406E+03  0.63359293662E+03  0.47000000000E+01 0. -1.
         25    2    1    2    0    0  0.51397057601E+02  0.55730955159E+01 -0.37274368311E+03  0.39652938843E+03  0.12499994267E+03 0.  0.
         25    2    1    2    0    0 -0.51397057601E+02 -0.55730955159E+01 -0.23076793868E+03  0.26749259709E+03  0.12500292417E+03 0.  0.
          5    1    3    3  502    0  0.40908840374E+01  0.61061423470E+02 -0.19211436092E+03  0.20168106118E+03  0.47000000000E+01 0. -1.
         -5    1    3    3    0  502  0.47306173563E+02 -0.55488327954E+02 -0.18062932220E+03  0.19484832725E+03  0.47000000000E+01 0. -1.
          5    1    4    4  503    0 -0.32632018725E+02 -0.57308005841E+02 -0.64800155034E+02  0.92575408570E+02  0.47000000000E+01 0.  1.
         -5    1    4    4    0  503 -0.18765038876E+02  0.51734910325E+02 -0.16596778365E+03  0.17491718852E+03  0.47000000000E+01 0.  1.
<mgrwt>
<rscale>  0 0.13527107E+03</rscale>
<asrwt>0</asrwt>
<pdfrwt beam="2">  1        5 0.97502575E-01 0.13527176E+03</pdfrwt>
<pdfrwt beam="1">  1       -5 0.46546439E-02 0.13527176E+03</pdfrwt>
<totfact> 0.17851653E+02</totfact>
</mgrwt>
</event>
<event>
 8    1  0.1865596E-007  0.1440893E+03  0.7546771E-02  0.1207933E+00
          5   -1    0    0  501    0  0.00000000000E+00  0.00000000000E+00  0.37135034062E+03  0.37138008224E+03  0.47000000000E+01 0. -1.
         -5   -1    0    0    0  501 -0.00000000000E+00 -0.00000000000E+00 -0.60014276823E+02  0.60198035039E+02  0.47000000000E+01 0. -1.
         25    2    1    2    0    0  0.42657244938E+02 -0.57601201415E+02  0.21292766689E+03  0.25709903430E+03  0.12499673261E+03 0.  0.
         25    2    1    2    0    0 -0.42657244938E+02  0.57601201415E+02  0.98408396911E+02  0.17447908297E+03  0.12498479452E+03 0.  0.
          5    1    3    3  502    0  0.47778588989E+02 -0.26847388977E+02  0.21829261338E+03  0.22511626089E+03  0.47000000000E+01 0.  1.
         -5    1    3    3    0  502 -0.51213440509E+01 -0.30753812438E+02 -0.53649464907E+01  0.31982773414E+02  0.47000000000E+01 0.  1.
          5    1    4    4  503    0  0.32553346577E+02  0.54062758416E+02  0.68689275620E+02  0.93395978533E+02  0.47000000000E+01 0.  1.
         -5    1    4    4    0  503 -0.75210591515E+02  0.35384429994E+01  0.29719121291E+02  0.81083104438E+02  0.47000000000E+01 0.  1.
<mgrwt>
<rscale>  0 0.14408670E+03</rscale>
<asrwt>0</asrwt>
<pdfrwt beam="1">  1        5 0.57147244E-01 0.14408929E+03</pdfrwt>
<pdfrwt beam="2">  1       -5 0.92493888E-02 0.14408929E+03</pdfrwt>
<totfact> 0.19335850E+02</totfact>
</mgrwt>
</event>
<event>
 8    1  0.1865596E-007  0.1548680E+03  0.7546771E-02  0.1194616E+00
          5   -1    0    0  501    0  0.00000000000E+00  0.00000000000E+00  0.13302747552E+03  0.13311047759E+03  0.47000000000E+01 0.  1.
         -5   -1    0    0    0  501 -0.00000000000E+00 -0.00000000000E+00 -0.19012528493E+03  0.19018336933E+03  0.47000000000E+01 0.  1.
         25    2    1    2    0    0  0.77209133772E+02  0.48966207665E+02 -0.65610805999E+02  0.16819297353E+03  0.12500063460E+03 0.  0.
         25    2    1    2    0    0 -0.77209133772E+02 -0.48966207665E+02  0.85129965904E+01  0.15510087338E+03  0.12499947993E+03 0.  0.
          5    1    4    4  502    0 -0.64373503867E+02  0.28737256627E+02 -0.16080540655E+02  0.72460000734E+02  0.47000000000E+01 0.  1.
         -5    1    4    4    0  502 -0.12835629905E+02 -0.77703464292E+02  0.24593537246E+02  0.82640872649E+02  0.47000000000E+01 0.  1.
          5    1    3    3  503    0  0.15981416845E+02 -0.35475069694E+02 -0.48557542709E+02  0.62400410320E+02  0.47000000000E+01 0.  1.
         -5    1    3    3    0  503  0.61227716927E+02  0.84441277359E+02 -0.17053263290E+02  0.10579256321E+03  0.47000000000E+01 0.  1.
<mgrwt>
<rscale>  0 0.15486777E+03</rscale>
<asrwt>0</asrwt>
<pdfrwt beam="1">  1        5 0.20476618E-01 0.15486800E+03</pdfrwt>
<pdfrwt beam="2">  1       -5 0.29260896E-01 0.15486800E+03</pdfrwt>
<totfact> 0.18782329E+02</totfact>
</mgrwt>
</event>
<event>
 8    1  0.1865596E-007  0.1703319E+03  0.7546771E-02  0.1177504E+00
          5   -1    0    0  501    0  0.00000000000E+00  0.00000000000E+00  0.11159026405E+03  0.11168919836E+03  0.47000000000E+01 0.  1.
         -5   -1    0    0    0  501 -0.00000000000E+00 -0.00000000000E+00 -0.29103621407E+03  0.29107416220E+03  0.47000000000E+01 0.  1.
         25    2    1    2    0    0 -0.96479741441E+02 -0.63856264181E+02 -0.15573512829E+03  0.23079509928E+03  0.12500793847E+03 0.  0.
         25    2    1    2    0    0  0.96479741441E+02  0.63856264181E+02 -0.23710821734E+02  0.17196826129E+03  0.12499966735E+03 0.  0.
          5    1    3    3  502    0 -0.10112711440E+03 -0.19102950966E+02 -0.15430170732E+03  0.18553361659E+03  0.47000000000E+01 0. -1.
         -5    1    3    3    0  502  0.46473729616E+01 -0.44753313215E+02 -0.14334209727E+01  0.45261482685E+02  0.47000000000E+01 0. -1.
          5    1    4    4  503    0  0.59707981742E+01 -0.33680015058E+02 -0.17429083586E+02  0.38676307991E+02  0.47000000000E+01 0. -1.
         -5    1    4    4    0  503  0.90508943267E+02  0.97536279239E+02 -0.62817381487E+01  0.13329195330E+03  0.47000000000E+01 0. -1.
<mgrwt>
<rscale>  0 0.17033036E+03</rscale>
<asrwt>0</asrwt>
<pdfrwt beam="1">  1        5 0.17178262E-01 0.17033188E+03</pdfrwt>
<pdfrwt beam="2">  1       -5 0.44785331E-01 0.17033188E+03</pdfrwt>
<totfact> 0.11335884E+02</totfact>
</mgrwt>
</event>
<event>
 8    1  0.1865596E-007  0.1357448E+03  0.7546771E-02  0.1219172E+00
          5   -1    0    0  501    0  0.00000000000E+00  0.00000000000E+00  0.13844900228E+04  0.13844980004E+04  0.47000000000E+01 0. -1.
         -5   -1    0    0    0  501 -0.00000000000E+00 -0.00000000000E+00 -0.22544682300E+02  0.23029387747E+02  0.47000000000E+01 0. -1.
         25    2    1    2    0    0  0.50637275459E+02  0.15415920170E+02  0.22698626651E+03  0.26447938167E+03  0.12499917553E+03 0.  0.
         25    2    1    2    0    0 -0.50637275459E+02 -0.15415920170E+02  0.11349590740E+04  0.11430480065E+04  0.12499944531E+03 0.  0.
          5    1    3    3  502    0  0.37495691926E+02  0.66553361133E+02  0.17118463460E+03  0.18751412191E+03  0.47000000000E+01 0. -1.
         -5    1    3    3    0  502  0.13141583533E+02 -0.51137440963E+02  0.55801631905E+02  0.76965259756E+02  0.47000000000E+01 0. -1.
          5    1    4    4  503    0 -0.18887359795E+02 -0.69115207071E+02  0.52459239644E+03  0.52948363205E+03  0.47000000000E+01 0.  1.
         -5    1    4    4    0  503 -0.31749915663E+02  0.53699286901E+02  0.61036667753E+03  0.61356437445E+03  0.47000000000E+01 0.  1.
<mgrwt>
<rscale>  0 0.13574472E+03</rscale>
<asrwt>0</asrwt>
<pdfrwt beam="1">  1        5 0.21303640E+00 0.13574478E+03</pdfrwt>
<pdfrwt beam="2">  1       -5 0.35063107E-02 0.13574478E+03</pdfrwt>
<totfact> 0.33589624E+01</totfact>
</mgrwt>
</event>
<event>
 8    1  0.1865596E-007  0.1265262E+03  0.7546771E-02  0.1232705E+00
          5   -1    0    0  501    0  0.00000000000E+00  0.00000000000E+00  0.22943109992E+03  0.22947923568E+03  0.47000000000E+01 0.  1.
         -5   -1    0    0    0  501 -0.00000000000E+00 -0.00000000000E+00 -0.79725372798E+02  0.79863790718E+02  0.47000000000E+01 0.  1.
         25    2    1    2    0    0 -0.49429818450E+01  0.18949612315E+02  0.19903189240E+02  0.12807644233E+03  0.12499566897E+03 0.  0.
         25    2    1    2    0    0  0.49429818450E+01 -0.18949612315E+02  0.12980253788E+03  0.18126658407E+03  0.12500141913E+03 0.  0.
          5    1    3    3  502    0  0.31578103943E+02  0.22773148904E+02 -0.41043896838E+02  0.56766930755E+02  0.47000000000E+01 0. -1.
         -5    1    3    3    0  502 -0.36521085788E+02 -0.38235365887E+01  0.60947086078E+02  0.71309511572E+02  0.47000000000E+01 0. -1.
          5    1    4    4  503    0  0.59334197258E+02 -0.16458155199E+02  0.10371764177E+03  0.12070980512E+03  0.47000000000E+01 0. -1.
         -5    1    4    4    0  503 -0.54391215413E+02 -0.24914571163E+01  0.26084896108E+02  0.60556778957E+02  0.47000000000E+01 0. -1.
<mgrwt>
<rscale>  0 0.12652477E+03</rscale>
<asrwt>0</asrwt>
<pdfrwt beam="1">  1        5 0.35311442E-01 0.12652619E+03</pdfrwt>
<pdfrwt beam="2">  1       -5 0.12279792E-01 0.12652619E+03</pdfrwt>
<totfact> 0.30663578E+02</totfact>
</mgrwt>
</event>
<event>
 8    1  0.1865596E-007  0.1414231E+03  0.7546771E-02  0.1211429E+00
         -5   -1    0    0    0  501 -0.00000000000E+00  0.00000000000E+00  0.13515452025E+03  0.13523621683E+03  0.47000000000E+01 0.  1.
          5   -1    0    0  501    0  0.00000000000E+00 -0.00000000000E+00 -0.15065005524E+03  0.15072335301E+03  0.47000000000E+01 0.  1.
         25    2    1    2    0    0  0.19910738900E+02 -0.63074475666E+02  0.11865166338E+02  0.14191992550E+03  0.12500262428E+03 0.  0.
         25    2    1    2    0    0 -0.19910738900E+02  0.63074475666E+02 -0.27360701327E+02  0.14403964434E+03  0.12499593658E+03 0.  0.
          5    1    4    4  502    0 -0.23869936150E+01  0.71524481598E+02  0.34092559007E+02  0.79409330598E+02  0.47000000000E+01 0. -1.
         -5    1    4    4    0  502 -0.17523745285E+02 -0.84500059320E+01 -0.61453260335E+02  0.64630313745E+02  0.47000000000E+01 0. -1.
          5    1    3    3  503    0  0.39402282517E+02 -0.46534221258E+01  0.53983605717E+02  0.67160359523E+02  0.47000000000E+01 0.  1.
         -5    1    3    3    0  503 -0.19491543617E+02 -0.58421053540E+02 -0.42118439379E+02  0.74759565977E+02  0.47000000000E+01 0.  1.
<mgrwt>
<rscale>  0 0.14142159E+03</rscale>
<asrwt>0</asrwt>
<pdfrwt beam="2">  1        5 0.23188854E-01 0.14142306E+03</pdfrwt>
<pdfrwt beam="1">  1       -5 0.20804926E-01 0.14142306E+03</pdfrwt>
<totfact> 0.27701488E+02</totfact>
</mgrwt>
</event>
<event>
 8    1  0.1865596E-007  0.1552842E+03  0.7546771E-02  0.1194133E+00
         -5   -1    0    0    0  501 -0.00000000000E+00  0.00000000000E+00  0.52279819116E+03  0.52281931743E+03  0.47000000000E+01 0. -1.
          5   -1    0    0  501    0  0.00000000000E+00 -0.00000000000E+00 -0.49255193964E+02  0.49478926145E+02  0.47000000000E+01 0. -1.
         25    2    1    2    0    0 -0.36844227006E+02  0.84424120384E+02  0.31045293765E+03  0.34712275588E+03  0.12501300726E+03 0.  0.
         25    2    1    2    0    0  0.36844227006E+02 -0.84424120384E+02  0.16309005954E+03  0.22517548770E+03  0.12498281311E+03 0.  0.
          5    1    4    4  502    0  0.88167668847E+01 -0.49490649386E+01  0.13610852263E+03  0.13656444836E+03  0.47000000000E+01 0. -1.
         -5    1    4    4    0  502  0.28027460121E+02 -0.79475055445E+02  0.26981536909E+02  0.88611039340E+02  0.47000000000E+01 0. -1.
          5    1    3    3  503    0 -0.11242718001E+02 -0.28623579100E+02  0.28311226855E+02  0.42063327907E+02  0.47000000000E+01 0.  1.
         -5    1    3    3    0  503 -0.25601509005E+02  0.11304769948E+03  0.28214171080E+03  0.30505942797E+03  0.47000000000E+01 0.  1.
<mgrwt>
<rscale>  0 0.15527812E+03</rscale>
<asrwt>0</asrwt>
<pdfrwt beam="2">  1        5 0.75965579E-02 0.15528419E+03</pdfrwt>
<pdfrwt beam="1">  1       -5 0.80449321E-01 0.15528419E+03</pdfrwt>
<totfact> 0.12909657E+02</totfact>
</mgrwt>
</event>
<event>
 8    1  0.1865596E-007  0.1547244E+03  0.7546771E-02  0.1194786E+00
          5   -1    0    0  501    0  0.00000000000E+00  0.00000000000E+00  0.15716144780E+03  0.15723171015E+03  0.47000000000E+01 0.  1.
         -5   -1    0    0    0  501 -0.00000000000E+00 -0.00000000000E+00 -0.18570960204E+03  0.18576906709E+03  0.47000000000E+01 0.  1.
         25    2    1    2    0    0 -0.41660581013E+02  0.81111248102E+02 -0.87116659289E+02  0.17756221125E+03  0.12499755181E+03 0.  0.
         25    2    1    2    0    0  0.41660581013E+02 -0.81111248102E+02  0.58568505058E+02  0.16543856599E+03  0.12500004301E+03 0.  0.
          5    1    4    4  502    0  0.17145066744E+02 -0.28089379717E+02  0.92102934461E+02  0.97918369589E+02  0.47000000000E+01 0.  1.
         -5    1    4    4    0  502  0.24515514269E+02 -0.53021868385E+02 -0.33534429403E+02  0.67520196403E+02  0.47000000000E+01 0.  1.
          5    1    3    3  503    0 -0.60545712599E+02  0.10290822471E+03 -0.87887577638E+02  0.14833139361E+03  0.47000000000E+01 0. -1.
         -5    1    3    3    0  503  0.18885131586E+02 -0.21796976613E+02  0.77091834883E+00  0.29230817634E+02  0.47000000000E+01 0. -1.
<mgrwt>
<rscale>  0 0.15472393E+03</rscale>
<asrwt>0</asrwt>
<pdfrwt beam="1">  1        5 0.24188663E-01 0.15472443E+03</pdfrwt>
<pdfrwt beam="2">  1       -5 0.28580687E-01 0.15472443E+03</pdfrwt>
<totfact> 0.14341751E+02</totfact>
</mgrwt>
</event>
<event>
 8    1  0.1865596E-007  0.1580140E+03  0.7546771E-02  0.1190961E+00
         -5   -1    0    0    0  501 -0.00000000000E+00  0.00000000000E+00  0.29423478674E+04  0.29423516212E+04  0.47000000000E+01 0. -1.
          5   -1    0    0  501    0  0.00000000000E+00 -0.00000000000E+00 -0.78314839662E+01  0.91335721989E+01  0.47000000000E+01 0. -1.
         25    2    1    2    0    0 -0.92262130590E+02 -0.28768175694E+02  0.14510165255E+04  0.14595949414E+04  0.12501410674E+03 0.  0.
         25    2    1    2    0    0  0.92262130590E+02  0.28768175694E+02  0.14834998580E+04  0.14918902521E+04  0.12499914794E+03 0.  0.
          5    1    3    3  502    0 -0.25281633764E+02 -0.73011873303E+02  0.74795529040E+03  0.75195019854E+03  0.47000000000E+01 0. -1.
         -5    1    3    3    0  502 -0.66980496825E+02  0.44243697610E+02  0.70306123511E+03  0.70764474283E+03  0.47000000000E+01 0. -1.
          5    1    4    4  503    0 -0.87237056494E+01 -0.33755117659E+02  0.21802046573E+03  0.22084049558E+03  0.47000000000E+01 0. -1.
         -5    1    4    4    0  503  0.10098583624E+03  0.62523293353E+02  0.12654793922E+04  0.12710497565E+04  0.47000000000E+01 0. -1.
<mgrwt>
<rscale>  0 0.15801108E+03</rscale>
<asrwt>0</asrwt>
<pdfrwt beam="2">  1        5 0.13052936E-02 0.15801404E+03</pdfrwt>
<pdfrwt beam="1">  1       -5 0.45276918E+00 0.15801404E+03</pdfrwt>
<totfact> 0.42046715E+00</totfact>
</mgrwt>
</event>
<event>
 8    1  0.1865596E-007  0.1282518E+03  0.7546771E-02  0.1230075E+00
          5   -1    0    0  501    0  0.00000000000E+00  0.00000000000E+00  0.68632485587E+03  0.68634094864E+03  0.47000000000E+01 0. -1.
         -5   -1    0    0    0  501 -0.00000000000E+00 -0.00000000000E+00 -0.24666591287E+02  0.25110370880E+02  0.47000000000E+01 0. -1.
         25    2    1    2    0    0  0.28020936268E+02 -0.61722288136E+01  0.26173191246E+03  0.29146368455E+03  0.12499686449E+03 0.  0.
         25    2    1    2    0    0 -0.28020936268E+02  0.61722288136E+01  0.39992635213E+03  0.41998763498E+03  0.12500102852E+03 0.  0.
          5    1    3    3  502    0  0.34051663650E+02  0.35432177353E+00  0.27369062689E+03  0.27584106037E+03  0.47000000000E+01 0.  1.
         -5    1    3    3    0  502 -0.60307273823E+01 -0.65265505871E+01 -0.11958714429E+02  0.15622624175E+02  0.47000000000E+01 0.  1.
          5    1    4    4  503    0 -0.26381569232E+02  0.56007275312E+02  0.31769573050E+03  0.32370583754E+03  0.47000000000E+01 0. -1.
         -5    1    4    4    0  503 -0.16393670364E+01 -0.49835046499E+02  0.82230621629E+02  0.96281797435E+02  0.47000000000E+01 0. -1.
<mgrwt>
<rscale>  0 0.12825079E+03</rscale>
<asrwt>0</asrwt>
<pdfrwt beam="1">  1        5 0.10562380E+00 0.12825181E+03</pdfrwt>
<pdfrwt beam="2">  1       -5 0.38302356E-02 0.12825181E+03</pdfrwt>
<totfact> 0.19862576E+02</totfact>
</mgrwt>
</event>
<event>
 8    1  0.1865596E-007  0.1900022E+03  0.7546771E-02  0.1158460E+00
         -5   -1    0    0    0  501 -0.00000000000E+00  0.00000000000E+00  0.82096545624E+02  0.82230972288E+02  0.47000000000E+01 0.  1.
          5   -1    0    0  501    0  0.00000000000E+00 -0.00000000000E+00 -0.44197214495E+03  0.44199713450E+03  0.47000000000E+01 0.  1.
         25    2    1    2    0    0  0.13243280710E+03 -0.54193723681E+02 -0.20061342645E+03  0.27630885897E+03  0.12500172236E+03 0.  0.
         25    2    1    2    0    0 -0.13243280710E+03  0.54193723681E+02 -0.15926217287E+03  0.24791924782E+03  0.12499642255E+03 0.  0.
          5    1    4    4  502    0 -0.52752995808E+02 -0.44255711305E+01  0.77948781277E+01  0.53715122374E+02  0.47000000000E+01 0. -1.
         -5    1    4    4    0  502 -0.79679811287E+02  0.58619294812E+02 -0.16705705100E+03  0.19420412545E+03  0.47000000000E+01 0. -1.
          5    1    3    3  503    0  0.14664604503E+03 -0.43991415565E+02 -0.20663637485E+03  0.25721778433E+03  0.47000000000E+01 0. -1.
         -5    1    3    3    0  503 -0.14213237933E+02 -0.10202308116E+02  0.60229483996E+01  0.19091074639E+02  0.47000000000E+01 0. -1.
<mgrwt>
<rscale>  0 0.19000134E+03</rscale>
<asrwt>0</asrwt>
<pdfrwt beam="2">  1        5 0.68007976E-01 0.19000221E+03</pdfrwt>
<pdfrwt beam="1">  1       -5 0.12642501E-01 0.19000221E+03</pdfrwt>
<totfact> 0.82517146E+01</totfact>
</mgrwt>
</event>
<event>
 8    1  0.1865596E-007  0.1538420E+03  0.7546771E-02  0.1195830E+00
          5   -1    0    0  501    0  0.00000000000E+00  0.00000000000E+00  0.51779434737E+02  0.51992305793E+02  0.47000000000E+01 0. -1.
         -5   -1    0    0    0  501 -0.00000000000E+00 -0.00000000000E+00 -0.48069564264E+03  0.48071861921E+03  0.47000000000E+01 0. -1.
         25    2    1    2    0    0 -0.14095063769E+02  0.88565473012E+02 -0.27492082811E+03  0.31503701964E+03  0.12499739270E+03 0.  0.
         25    2    1    2    0    0  0.14095063769E+02 -0.88565473012E+02 -0.15399537979E+03  0.21767390537E+03  0.12499935298E+03 0.  0.
          5    1    3    3  502    0  0.88787796954E+01 -0.30480218682E+02 -0.48529658758E+02  0.58181562706E+02  0.47000000000E+01 0.  1.
         -5    1    3    3    0  502 -0.22973843464E+02  0.11904569169E+03 -0.22639116935E+03  0.25685545693E+03  0.47000000000E+01 0.  1.
          5    1    4    4  503    0 -0.55341260642E+02 -0.47066728560E+02 -0.71517703592E+02  0.10205294701E+03  0.47000000000E+01 0.  1.
         -5    1    4    4    0  503  0.69436324411E+02 -0.41498744453E+02 -0.82477676203E+02  0.11562095835E+03  0.47000000000E+01 0.  1.
<mgrwt>
<rscale>  0 0.15384157E+03</rscale>
<asrwt>0</asrwt>
<pdfrwt beam="1">  1        5 0.79842094E-02 0.15384197E+03</pdfrwt>
<pdfrwt beam="2">  1       -5 0.73971315E-01 0.15384197E+03</pdfrwt>
<totfact> 0.14338205E+02</totfact>
</mgrwt>
</event>
<event>
 8    1  0.1865596E-007  0.1340984E+03  0.7546771E-02  0.1221498E+00
          5   -1    0    0  501    0  0.00000000000E+00  0.00000000000E+00  0.11356824240E+03  0.11366545509E+03  0.47000000000E+01 0.  1.
         -5   -1    0    0    0  501 -0.00000000000E+00 -0.00000000000E+00 -0.25213297369E+03  0.25217677614E+03  0.47000000000E+01 0.  1.
         25    2    1    2    0    0 -0.35102629312E+02  0.33558883722E+02 -0.18093427354E+03  0.22521009692E+03  0.12499593253E+03 0.  0.
         25    2    1    2    0    0  0.35102629312E+02 -0.33558883722E+02  0.42369542248E+02  0.14063213432E+03  0.12499530323E+03 0.  0.
          5    1    4    4  502    0  0.69807565944E+02 -0.57643813763E+02  0.20979275011E+02  0.93049048937E+02  0.47000000000E+01 0. -1.
         -5    1    4    4    0  502 -0.34704936632E+02  0.24084930041E+02  0.21390267237E+02  0.47583085379E+02  0.47000000000E+01 0. -1.
          5    1    3    3  503    0  0.21672823084E+02 -0.37046191033E+02 -0.64172439644E+02  0.77345481706E+02  0.47000000000E+01 0.  1.
         -5    1    3    3    0  503 -0.56775452396E+02  0.70605074756E+02 -0.11676183390E+03  0.14786461521E+03  0.47000000000E+01 0.  1.
<mgrwt>
<rscale>  0 0.13409824E+03</rscale>
<asrwt>0</asrwt>
<pdfrwt beam="1">  1        5 0.17482885E-01 0.13409838E+03</pdfrwt>
<pdfrwt beam="2">  1       -5 0.38800535E-01 0.13409838E+03</pdfrwt>
<totfact> 0.13678363E+02</totfact>
</mgrwt>
</event>
<event>
 8    1  0.1865596E-007  0.1299177E+03  0.7546771E-02  0.1227578E+00
          5   -1    0    0  501    0  0.00000000000E+00  0.00000000000E+00  0.11007486341E+03  0.11017515852E+03  0.47000000000E+01 0.  1.
         -5   -1    0    0    0  501 -0.00000000000E+00 -0.00000000000E+00 -0.22314269554E+03  0.22319218752E+03  0.47000000000E+01 0.  1.
         25    2    1    2    0    0 -0.20348460970E+02 -0.28978898306E+02 -0.14986580275E+03  0.19833904156E+03  0.12499912064E+03 0.  0.
         25    2    1    2    0    0  0.20348460970E+02  0.28978898306E+02  0.36797970618E+02  0.13502830449E+03  0.12499886384E+03 0.  0.
          5    1    3    3  502    0  0.14434279800E+02  0.11129437250E+01  0.18375640842E+02  0.23860872856E+02  0.47000000000E+01 0.  1.
         -5    1    3    3    0  502 -0.34782740770E+02 -0.30091842031E+02 -0.16824144359E+03  0.17447816870E+03  0.47000000000E+01 0.  1.
          5    1    4    4  503    0  0.43338258342E+02 -0.25755046458E+02  0.53013823879E+02  0.73308134449E+02  0.47000000000E+01 0.  1.
         -5    1    4    4    0  503 -0.22989797373E+02  0.54733944764E+02 -0.16215853261E+02  0.61720170039E+02  0.47000000000E+01 0.  1.
<mgrwt>
<rscale>  0 0.12991767E+03</rscale>
<asrwt>0</asrwt>
<pdfrwt beam="1">  1        5 0.16946117E-01 0.12991773E+03</pdfrwt>
<pdfrwt beam="2">  1       -5 0.34341167E-01 0.12991773E+03</pdfrwt>
<totfact> 0.18323015E+02</totfact>
</mgrwt>
</event>
<event>
 8    1  0.1865596E-007  0.1592180E+03  0.7546771E-02  0.1189583E+00
         -5   -1    0    0    0  501 -0.00000000000E+00  0.00000000000E+00  0.75245058251E+02  0.75391702403E+02  0.47000000000E+01 0. -1.
          5   -1    0    0  501    0  0.00000000000E+00 -0.00000000000E+00 -0.40900871887E+03  0.40903572229E+03  0.47000000000E+01 0. -1.
         25    2    1    2    0    0  0.83999767790E+02 -0.51664986401E+02 -0.64853834113E+02  0.17191681665E+03  0.12499656091E+03 0.  0.
         25    2    1    2    0    0 -0.83999767790E+02  0.51664986401E+02 -0.26890982651E+03  0.31251060804E+03  0.12500061415E+03 0.  0.
          5    1    4    4  502    0 -0.10241561827E+03  0.76086032933E+02 -0.20505903187E+03  0.24155608008E+03  0.47000000000E+01 0.  1.
         -5    1    4    4    0  502  0.18415850477E+02 -0.24421046533E+02 -0.63850794641E+02  0.70954527965E+02  0.47000000000E+01 0.  1.
          5    1    3    3  503    0  0.43348064796E+00 -0.50665484541E+02  0.18159989925E+02  0.54028274665E+02  0.47000000000E+01 0.  1.
         -5    1    3    3    0  503  0.83566287143E+02 -0.99950186017E+00 -0.83013824037E+02  0.11788854199E+03  0.47000000000E+01 0.  1.
<mgrwt>
<rscale>  0 0.15921725E+03</rscale>
<asrwt>0</asrwt>
<pdfrwt beam="2">  1        5 0.62937775E-01 0.15921804E+03</pdfrwt>
<pdfrwt beam="1">  1       -5 0.11589521E-01 0.15921804E+03</pdfrwt>
<totfact> 0.10881289E+02</totfact>
</mgrwt>
</event>
<event>
 8    1  0.1865596E-007  0.1754456E+03  0.7546771E-02  0.1172285E+00
         -5   -1    0    0    0  501 -0.00000000000E+00  0.00000000000E+00  0.11852140783E+03  0.11861456114E+03  0.47000000000E+01 0. -1.
          5   -1    0    0  501    0  0.00000000000E+00 -0.00000000000E+00 -0.28116392320E+03  0.28120320359E+03  0.47000000000E+01 0. -1.
         25    2    1    2    0    0  0.11723328004E+03  0.37577151109E+02 -0.25833445106E+02  0.17733728076E+03  0.12500184009E+03 0.  0.
         25    2    1    2    0    0 -0.11723328004E+03 -0.37577151109E+02 -0.13680907026E+03  0.22248048397E+03  0.12500063922E+03 0.  0.
          5    1    3    3  502    0 -0.24308922043E+02  0.12635225203E+02  0.92935787900E+01  0.29309268390E+02  0.47000000000E+01 0.  1.
         -5    1    3    3    0  502  0.14154220208E+03  0.24941925906E+02 -0.35127023896E+02  0.14802801237E+03  0.47000000000E+01 0.  1.
          5    1    4    4  503    0 -0.11708275498E+02 -0.48260236215E+02 -0.97036310391E+02  0.10910668929E+03  0.47000000000E+01 0. -1.
         -5    1    4    4    0  503 -0.10552500454E+03  0.10683085106E+02 -0.39772759872E+02  0.11337379467E+03  0.47000000000E+01 0. -1.
<mgrwt>
<rscale>  0 0.17544535E+03</rscale>
<asrwt>0</asrwt>
<pdfrwt beam="2">  1        5 0.43266175E-01 0.17544556E+03</pdfrwt>
<pdfrwt beam="1">  1       -5 0.18244250E-01 0.17544556E+03</pdfrwt>
<totfact> 0.10993931E+02</totfact>
</mgrwt>
</event>
<event>
 8    1  0.1865596E-007  0.1867283E+03  0.7546771E-02  0.1161448E+00
         -5   -1    0    0    0  501 -0.00000000000E+00  0.00000000000E+00  0.39465856290E+02  0.39744733144E+02  0.47000000000E+01 0.  1.
          5   -1    0    0  501    0  0.00000000000E+00 -0.00000000000E+00 -0.89957615296E+03  0.89958843088E+03  0.47000000000E+01 0.  1.
         25    2    1    2    0    0 -0.11380113666E+03 -0.79310727873E+02 -0.36088336125E+03  0.40633021357E+03  0.12500620692E+03 0.  0.
         25    2    1    2    0    0  0.11380113666E+03  0.79310727873E+02 -0.49922693542E+03  0.53300295046E+03  0.12499488744E+03 0.  0.
          5    1    4    4  502    0  0.40562834461E+02 -0.32388894635E+02 -0.16531882820E+03  0.17334009632E+03  0.47000000000E+01 0.  1.
         -5    1    4    4    0  502  0.73238302203E+02  0.11169962251E+03 -0.33390810722E+03  0.35966285413E+03  0.47000000000E+01 0.  1.
          5    1    3    3  503    0 -0.77461850472E+02 -0.64370252126E+02 -0.35148227255E+03  0.36565796252E+03  0.47000000000E+01 0. -1.
         -5    1    3    3    0  503 -0.36339286192E+02 -0.14940475747E+02 -0.94010887002E+01  0.40672251047E+02  0.47000000000E+01 0. -1.
<mgrwt>
<rscale>  0 0.18672636E+03</rscale>
<asrwt>0</asrwt>
<pdfrwt beam="2">  1        5 0.13841871E+00 0.18672826E+03</pdfrwt>
<pdfrwt beam="1">  1       -5 0.60940674E-02 0.18672826E+03</pdfrwt>
<totfact> 0.51464097E+01</totfact>
</mgrwt>
</event>
<event>
 8    1  0.1865596E-007  0.1442971E+03  0.7546771E-02  0.1207663E+00
          5   -1    0    0  501    0  0.00000000000E+00  0.00000000000E+00  0.35602224629E+03  0.35605326828E+03  0.47000000000E+01 0. -1.
         -5   -1    0    0    0  501 -0.00000000000E+00 -0.00000000000E+00 -0.58449626483E+02  0.58638288140E+02  0.47000000000E+01 0. -1.
         25    2    1    2    0    0  0.46607502771E+02 -0.54941710895E+02  0.15717635857E+03  0.21336404774E+03  0.12501583206E+03 0.  0.
         25    2    1    2    0    0 -0.46607502771E+02  0.54941710895E+02  0.14039626123E+03  0.20132750868E+03  0.12502321653E+03 0.  0.
          5    1    3    3  502    0 -0.12272917091E+02  0.33911438702E+02  0.28490389361E+02  0.46199593663E+02  0.47000000000E+01 0.  1.
         -5    1    3    3    0  502  0.58880419862E+02 -0.88853149597E+02  0.12868596921E+03  0.16716445408E+03  0.47000000000E+01 0.  1.
          5    1    4    4  503    0  0.30438509617E+02  0.13457408612E+02  0.98732338681E+02  0.10429654556E+03  0.47000000000E+01 0. -1.
         -5    1    4    4    0  503 -0.77046012388E+02  0.41484302283E+02  0.41663922554E+02  0.97030963117E+02  0.47000000000E+01 0. -1.
<mgrwt>
<rscale>  0 0.14429551E+03</rscale>
<asrwt>0</asrwt>
<pdfrwt beam="1">  1        5 0.54789553E-01 0.14429711E+03</pdfrwt>
<pdfrwt beam="2">  1       -5 0.90091488E-02 0.14429711E+03</pdfrwt>
<totfact> 0.22179989E+02</totfact>
</mgrwt>
</event>
<event>
 8    1  0.1865596E-007  0.1330938E+03  0.7546771E-02  0.1222938E+00
         -5   -1    0    0    0  501 -0.00000000000E+00  0.00000000000E+00  0.70256873498E+03  0.70258445569E+03  0.47000000000E+01 0. -1.
          5   -1    0    0  501    0  0.00000000000E+00 -0.00000000000E+00 -0.33288917737E+02  0.33619072624E+02  0.47000000000E+01 0. -1.
         25    2    1    2    0    0 -0.40535839691E+02 -0.21092031773E+02  0.51747620194E+03  0.53431667299E+03  0.12499863744E+03 0.  0.
         25    2    1    2    0    0  0.40535839691E+02  0.21092031773E+02  0.15180361531E+03  0.20188685532E+03  0.12500374645E+03 0.  0.
          5    1    3    3  502    0 -0.76467230010E+02  0.16545606462E+02  0.25842250340E+03  0.27004680080E+03  0.47000000000E+01 0. -1.
         -5    1    3    3    0  502  0.35931390319E+02 -0.37637638235E+02  0.25905369854E+03  0.26426987219E+03  0.47000000000E+01 0. -1.
          5    1    4    4  503    0  0.69170496921E+01 -0.33053236247E+02 -0.31817865253E+01  0.34242893691E+02  0.47000000000E+01 0.  1.
         -5    1    4    4    0  503  0.33618789998E+02  0.54145268019E+02  0.15498540184E+03  0.16764396163E+03  0.47000000000E+01 0.  1.
<mgrwt>
<rscale>  0 0.13309262E+03</rscale>
<asrwt>0</asrwt>
<pdfrwt beam="2">  1        5 0.51479779E-02 0.13309382E+03</pdfrwt>
<pdfrwt beam="1">  1       -5 0.10811410E+00 0.13309382E+03</pdfrwt>
<totfact> 0.11665634E+02</totfact>
</mgrwt>
</event>
<event>
 8    1  0.1865596E-007  0.1422355E+03  0.7546771E-02  0.1210353E+00
          5   -1    0    0  501    0  0.00000000000E+00  0.00000000000E+00  0.55573648954E+02  0.55772040110E+02  0.47000000000E+01 0.  1.
         -5   -1    0    0    0  501 -0.00000000000E+00 -0.00000000000E+00 -0.36317872003E+03  0.36320913078E+03  0.47000000000E+01 0.  1.
         25    2    1    2    0    0  0.20003091163E+02 -0.64840509694E+02 -0.15500043717E+03  0.21037126976E+03  0.12500608090E+03 0.  0.
         25    2    1    2    0    0 -0.20003091163E+02  0.64840509694E+02 -0.15260463390E+03  0.20860990113E+03  0.12500200482E+03 0.  0.
          5    1    3    3  502    0 -0.13249789533E+02 -0.86109568908E+02 -0.14525086317E+03  0.16944119344E+03  0.47000000000E+01 0.  1.
         -5    1    3    3    0  502  0.33252880696E+02  0.21269059214E+02 -0.97495739980E+01  0.40930076320E+02  0.47000000000E+01 0.  1.
          5    1    4    4  503    0 -0.34091392063E+02 -0.24897314111E+02 -0.17950104122E+02  0.46112856133E+02  0.47000000000E+01 0. -1.
         -5    1    4    4    0  503  0.14088300900E+02  0.89737823805E+02 -0.13465452978E+03  0.16249704500E+03  0.47000000000E+01 0. -1.
<mgrwt>
<rscale>  0 0.14223460E+03</rscale>
<asrwt>0</asrwt>
<pdfrwt beam="1">  1        5 0.85673925E-02 0.14223549E+03</pdfrwt>
<pdfrwt beam="2">  1       -5 0.55891248E-01 0.14223549E+03</pdfrwt>
<totfact> 0.23064820E+02</totfact>
</mgrwt>
</event>
<event>
 8    1  0.1865596E-007  0.1347204E+03  0.7546771E-02  0.1220618E+00
         -5   -1    0    0    0  501 -0.00000000000E+00  0.00000000000E+00  0.11915087154E+04  0.11915179851E+04  0.47000000000E+01 0. -1.
          5   -1    0    0  501    0  0.00000000000E+00 -0.00000000000E+00 -0.16117573828E+02  0.16788870900E+02  0.47000000000E+01 0. -1.
         25    2    1    2    0    0 -0.49359051095E+02 -0.92932148506E+01  0.75291259972E+03  0.76487055622E+03  0.12500762057E+03 0.  0.
         25    2    1    2    0    0  0.49359051095E+02  0.92932148506E+01  0.42247854184E+03  0.44343629978E+03  0.12499981553E+03 0.  0.
          5    1    3    3  502    0  0.17687671056E+02  0.29310346081E+02  0.47780334280E+03  0.47905122323E+03  0.47000000000E+01 0. -1.
         -5    1    3    3    0  502 -0.67046722150E+02 -0.38603560932E+02  0.27510925692E+03  0.28581933299E+03  0.47000000000E+01 0. -1.
          5    1    4    4  503    0  0.78595242690E+02 -0.30511452368E+02  0.28678236754E+03  0.29895547700E+03  0.47000000000E+01 0.  1.
         -5    1    4    4    0  503 -0.29236191595E+02  0.39804667219E+02  0.13569617430E+03  0.14448082278E+03  0.47000000000E+01 0.  1.
<mgrwt>
<rscale>  0 0.13471858E+03</rscale>
<asrwt>0</asrwt>
<pdfrwt beam="2">  1        5 0.25319781E-02 0.13472040E+03</pdfrwt>
<pdfrwt beam="1">  1       -5 0.18336138E+00 0.13472040E+03</pdfrwt>
<totfact> 0.90127425E+01</totfact>
</mgrwt>
</event>
<event>
 8    1  0.1865596E-007  0.1482729E+03  0.7546771E-02  0.1202614E+00
          5   -1    0    0  501    0  0.00000000000E+00  0.00000000000E+00  0.75457416134E+02  0.75603648388E+02  0.47000000000E+01 0. -1.
         -5   -1    0    0    0  501 -0.00000000000E+00 -0.00000000000E+00 -0.32845303919E+03  0.32848666481E+03  0.47000000000E+01 0. -1.
         25    2    1    2    0    0  0.49857937856E+01 -0.79575524183E+02 -0.19480338194E+03  0.24480694286E+03  0.12499983786E+03 0.  0.
         25    2    1    2    0    0 -0.49857937856E+01  0.79575524183E+02 -0.58192241118E+02  0.15928337034E+03  0.12501093133E+03 0.  0.
          5    1    4    4  502    0  0.34963708601E+02  0.97581527957E+02 -0.46380687460E+02  0.11365682420E+03  0.47000000000E+01 0. -1.
         -5    1    4    4    0  502 -0.39949502386E+02 -0.18006003774E+02 -0.11811553658E+02  0.45626546140E+02  0.47000000000E+01 0. -1.
          5    1    3    3  503    0 -0.71632780822E+01  0.51121350479E+01 -0.14571865271E+03  0.14605978990E+03  0.47000000000E+01 0.  1.
         -5    1    3    3    0  503  0.12149071868E+02 -0.84687659231E+02 -0.49084729232E+02  0.98747152957E+02  0.47000000000E+01 0.  1.
<mgrwt>
<rscale>  0 0.14827057E+03</rscale>
<asrwt>0</asrwt>
<pdfrwt beam="1">  1        5 0.11622669E-01 0.14827291E+03</pdfrwt>
<pdfrwt beam="2">  1       -5 0.50545071E-01 0.14827291E+03</pdfrwt>
<totfact> 0.17027883E+02</totfact>
</mgrwt>
</event>
<event>
 8    1  0.1865596E-007  0.1549323E+03  0.7546771E-02  0.1194541E+00
          5   -1    0    0  501    0  0.00000000000E+00  0.00000000000E+00  0.38355351814E+03  0.38358231356E+03  0.47000000000E+01 0.  1.
         -5   -1    0    0    0  501 -0.00000000000E+00 -0.00000000000E+00 -0.67192088594E+02  0.67356267486E+02  0.47000000000E+01 0.  1.
         25    2    1    2    0    0  0.83985917276E+02 -0.36377028831E+02  0.98452072656E+02  0.18356524115E+03  0.12500585835E+03 0.  0.
         25    2    1    2    0    0 -0.83985917276E+02  0.36377028831E+02  0.21790935689E+03  0.26737333990E+03  0.12500836988E+03 0.  0.
          5    1    4    4  502    0  0.16861982902E+02  0.16474910991E+02 -0.24594455612E+01  0.24163775203E+02  0.47000000000E+01 0. -1.
         -5    1    4    4    0  502 -0.10084790018E+03  0.19902117840E+02  0.22036880245E+03  0.24320956470E+03  0.47000000000E+01 0. -1.
          5    1    3    3  503    0  0.95561545553E+02  0.12311093752E+02  0.35006867915E+02  0.10262135654E+03  0.47000000000E+01 0.  1.
         -5    1    3    3    0  503 -0.11575628277E+02 -0.48688122583E+02  0.63445204740E+02  0.80943884607E+02  0.47000000000E+01 0.  1.
<mgrwt>
<rscale>  0 0.15493179E+03</rscale>
<asrwt>0</asrwt>
<pdfrwt beam="1">  1        5 0.59023079E-01 0.15493229E+03</pdfrwt>
<pdfrwt beam="2">  1       -5 0.10352088E-01 0.15493229E+03</pdfrwt>
<totfact> 0.15160753E+02</totfact>
</mgrwt>
</event>
<event>
 8    1  0.1865596E-007  0.1598500E+03  0.7546771E-02  0.1188866E+00
          5   -1    0    0  501    0  0.00000000000E+00  0.00000000000E+00  0.36042884640E+03  0.36045948915E+03  0.47000000000E+01 0. -1.
         -5   -1    0    0    0  501 -0.00000000000E+00 -0.00000000000E+00 -0.77516803470E+02  0.77659157993E+02  0.47000000000E+01 0. -1.
         25    2    1    2    0    0  0.49840641503E+01 -0.99511921576E+02  0.76960286337E+02  0.17741168318E+03  0.12499822489E+03 0.  0.
         25    2    1    2    0    0 -0.49840641503E+01  0.99511921576E+02  0.20595175659E+03  0.26070696396E+03  0.12499812631E+03 0.  0.
          5    1    4    4  502    0 -0.28135522381E+02  0.21627630598E+02  0.16641905972E+03  0.17022560167E+03  0.47000000000E+01 0. -1.
         -5    1    4    4    0  502  0.23151458231E+02  0.77884290978E+02  0.39532696867E+02  0.90481362285E+02  0.47000000000E+01 0. -1.
          5    1    3    3  503    0 -0.11126754640E+02 -0.44172681415E+02 -0.30749320953E+02  0.55160141328E+02  0.47000000000E+01 0. -1.
         -5    1    3    3    0  503  0.16110818790E+02 -0.55339240160E+02  0.10770960729E+03  0.12225154186E+03  0.47000000000E+01 0. -1.
<mgrwt>
<rscale>  0 0.15984997E+03</rscale>
<asrwt>0</asrwt>
<pdfrwt beam="1">  1        5 0.55463899E-01 0.15984999E+03</pdfrwt>
<pdfrwt beam="2">  1       -5 0.11938970E-01 0.15984999E+03</pdfrwt>
<totfact> 0.13630170E+02</totfact>
</mgrwt>
</event>
<event>
 8    1  0.1865596E-007  0.1388719E+03  0.7546771E-02  0.1214855E+00
         -5   -1    0    0    0  501 -0.00000000000E+00  0.00000000000E+00  0.69168142776E+02  0.69327642215E+02  0.47000000000E+01 0. -1.
          5   -1    0    0  501    0  0.00000000000E+00 -0.00000000000E+00 -0.32677962652E+03  0.32681342431E+03  0.47000000000E+01 0. -1.
         25    2    1    2    0    0  0.49342388976E+02  0.35015431965E+02 -0.52549819638E+02  0.14848063600E+03  0.12499705556E+03 0.  0.
         25    2    1    2    0    0 -0.49342388976E+02 -0.35015431965E+02 -0.20506166411E+03  0.24766043052E+03  0.12499860373E+03 0.  0.
          5    1    3    3  502    0 -0.26764361200E+02  0.38475635620E+02  0.11895822572E+02  0.48582982221E+02  0.47000000000E+01 0. -1.
         -5    1    3    3    0  502  0.76106750176E+02 -0.34602036549E+01 -0.64445642210E+02  0.99897653784E+02  0.47000000000E+01 0. -1.
          5    1    4    4  503    0 -0.33084371682E+02 -0.80928508075E+02 -0.15249724592E+03  0.17584509968E+03  0.47000000000E+01 0.  1.
         -5    1    4    4    0  503 -0.16258017295E+02  0.45913076109E+02 -0.52564418187E+02  0.71815330839E+02  0.47000000000E+01 0.  1.
<mgrwt>
<rscale>  0 0.13887154E+03</rscale>
<asrwt>0</asrwt>
<pdfrwt beam="2">  1        5 0.50288657E-01 0.13887189E+03</pdfrwt>
<pdfrwt beam="1">  1       -5 0.10656122E-01 0.13887189E+03</pdfrwt>
<totfact> 0.19629659E+02</totfact>
</mgrwt>
</event>
<event>
 8    1  0.1865596E-007  0.1337776E+03  0.7546771E-02  0.1221957E+00
          5   -1    0    0  501    0  0.00000000000E+00  0.00000000000E+00  0.24602700333E+02  0.25047611936E+02  0.47000000000E+01 0. -1.
         -5   -1    0    0    0  501 -0.00000000000E+00 -0.00000000000E+00 -0.80441239150E+03  0.80442612190E+03  0.47000000000E+01 0. -1.
         25    2    1    2    0    0 -0.41462338387E+02 -0.23494955803E+02 -0.52387429617E+03  0.54068542175E+03  0.12500123459E+03 0.  0.
         25    2    1    2    0    0  0.41462338387E+02  0.23494955803E+02 -0.25593539499E+03  0.28878831209E+03  0.12499849733E+03 0.  0.
          5    1    3    3  502    0 -0.11425918732E+02 -0.26245367270E+02 -0.50269588957E+03  0.50353214228E+03  0.47000000000E+01 0. -1.
         -5    1    3    3    0  502 -0.30036419655E+02  0.27504114665E+01 -0.21178406604E+02  0.37153279468E+02  0.47000000000E+01 0. -1.
          5    1    4    4  503    0 -0.30231266814E+02  0.48721861864E+02 -0.10474982516E+03  0.11950884983E+03  0.47000000000E+01 0. -1.
         -5    1    4    4    0  503  0.71693605202E+02 -0.25226906060E+02 -0.15118556984E+03  0.16927946226E+03  0.47000000000E+01 0. -1.
<mgrwt>
<rscale>  0 0.13377696E+03</rscale>
<asrwt>0</asrwt>
<pdfrwt beam="1">  1        5 0.38203116E-02 0.13377760E+03</pdfrwt>
<pdfrwt beam="2">  1       -5 0.12379101E+00 0.13377760E+03</pdfrwt>
<totfact> 0.13586808E+02</totfact>
</mgrwt>
</event>
<event>
 8    1  0.1865596E-007  0.1281418E+03  0.7546771E-02  0.1230245E+00
         -5   -1    0    0    0  501 -0.00000000000E+00  0.00000000000E+00  0.20685509635E+02  0.21212739306E+02  0.47000000000E+01 0.  1.
          5   -1    0    0  501    0  0.00000000000E+00 -0.00000000000E+00 -0.78831410760E+03  0.78832811839E+03  0.47000000000E+01 0.  1.
         25    2    1    2    0    0  0.15966350213E+02 -0.23206404351E+02 -0.35121681614E+03  0.37386302457E+03  0.12500739044E+03 0.  0.
         25    2    1    2    0    0 -0.15966350213E+02  0.23206404351E+02 -0.41641178183E+03  0.43567783312E+03  0.12499176247E+03 0.  0.
          5    1    3    3  502    0  0.68195752649E+02 -0.30627310671E+02 -0.19358394170E+03  0.20757053096E+03  0.47000000000E+01 0. -1.
         -5    1    3    3    0  502 -0.52229402436E+02  0.74209063200E+01 -0.15763287444E+03  0.16629249362E+03  0.47000000000E+01 0. -1.
          5    1    4    4  503    0  0.37042470073E+02  0.25436930015E+02 -0.33726373737E+03  0.34027650601E+03  0.47000000000E+01 0.  1.
         -5    1    4    4    0  503 -0.53008820286E+02 -0.22305256642E+01 -0.79148044456E+02  0.95401327108E+02  0.47000000000E+01 0.  1.
<mgrwt>
<rscale>  0 0.12813794E+03</rscale>
<asrwt>0</asrwt>
<pdfrwt beam="2">  1        5 0.12132070E+00 0.12814175E+03</pdfrwt>
<pdfrwt beam="1">  1       -5 0.32240206E-02 0.12814175E+03</pdfrwt>
<totfact> 0.18583012E+02</totfact>
</mgrwt>
</event>
<event>
 8    1  0.1865596E-007  0.1272795E+03  0.7546771E-02  0.1231550E+00
          5   -1    0    0  501    0  0.00000000000E+00  0.00000000000E+00  0.16391596883E+03  0.16398333707E+03  0.47000000000E+01 0.  1.
         -5   -1    0    0    0  501 -0.00000000000E+00 -0.00000000000E+00 -0.18961917195E+03  0.18967741133E+03  0.47000000000E+01 0.  1.
         25    2    1    2    0    0  0.89671875973E+01  0.22226230655E+02 -0.13525767844E+03  0.18572750867E+03  0.12500260844E+03 0.  0.
         25    2    1    2    0    0 -0.89671875973E+01 -0.22226230655E+02  0.10955447532E+03  0.16793323973E+03  0.12499989665E+03 0.  0.
          5    1    3    3  502    0  0.55795920372E+02  0.38874911862E+02 -0.42330168753E+02  0.80239495818E+02  0.47000000000E+01 0.  1.
         -5    1    3    3    0  502 -0.46828732775E+02 -0.16648681207E+02 -0.92927509686E+02  0.10548801285E+03  0.47000000000E+01 0.  1.
          5    1    4    4  503    0 -0.35322743829E+02  0.42834007909E+02  0.37085863226E+02  0.66932052982E+02  0.47000000000E+01 0. -1.
         -5    1    4    4    0  503  0.26355556231E+02 -0.65060238564E+02  0.72468612093E+02  0.10100118675E+03  0.47000000000E+01 0. -1.
<mgrwt>
<rscale>  0 0.12727882E+03</rscale>
<asrwt>0</asrwt>
<pdfrwt beam="1">  1        5 0.25227503E-01 0.12727949E+03</pdfrwt>
<pdfrwt beam="2">  1       -5 0.29181842E-01 0.12727949E+03</pdfrwt>
<totfact> 0.11913105E+02</totfact>
</mgrwt>
</event>
<event>
 8    1  0.1865596E-007  0.1462447E+03  0.7546771E-02  0.1205165E+00
          5   -1    0    0  501    0  0.00000000000E+00  0.00000000000E+00  0.35739265374E+03  0.35742355679E+03  0.47000000000E+01 0. -1.
         -5   -1    0    0    0  501 -0.00000000000E+00 -0.00000000000E+00 -0.59744410966E+02  0.59928996668E+02  0.47000000000E+01 0. -1.
         25    2    1    2    0    0 -0.75889088670E+02  0.17295903316E+01  0.14436349813E+03  0.20549533196E+03  0.12500146639E+03 0.  0.
         25    2    1    2    0    0  0.75889088670E+02 -0.17295903316E+01  0.15328474464E+03  0.21185722150E+03  0.12500049640E+03 0.  0.
          5    1    3    3  502    0 -0.48575360615E+01  0.12196891263E+02 -0.20970291415E+02  0.25183386093E+02  0.47000000000E+01 0. -1.
         -5    1    3    3    0  502 -0.71031552609E+02 -0.10467300931E+02  0.16533378955E+03  0.18031194586E+03  0.47000000000E+01 0. -1.
          5    1    4    4  503    0  0.30354867514E+02  0.56036623076E+02  0.36027370499E+02  0.73359270257E+02  0.47000000000E+01 0. -1.
         -5    1    4    4    0  503  0.45534221157E+02 -0.57766213407E+02  0.11725737414E+03  0.13849795124E+03  0.47000000000E+01 0. -1.
<mgrwt>
<rscale>  0 0.14624449E+03</rscale>
<asrwt>0</asrwt>
<pdfrwt beam="1">  1        5 0.55000062E-01 0.14624470E+03</pdfrwt>
<pdfrwt beam="2">  1       -5 0.92080238E-02 0.14624470E+03</pdfrwt>
<totfact> 0.21274636E+02</totfact>
</mgrwt>
</event>
<event>
 8    1  0.1865596E-007  0.1402036E+03  0.7546771E-02  0.1213058E+00
         -5   -1    0    0    0  501 -0.00000000000E+00  0.00000000000E+00  0.16998097991E+03  0.17004594536E+03  0.47000000000E+01 0.  1.
          5   -1    0    0  501    0  0.00000000000E+00 -0.00000000000E+00 -0.11574437965E+03  0.11583976614E+03  0.47000000000E+01 0.  1.
         25    2    1    2    0    0  0.58444833254E+02 -0.24829083994E+02  0.20581301749E+02  0.14169922867E+03  0.12499119760E+03 0.  0.
         25    2    1    2    0    0 -0.58444833254E+02  0.24829083994E+02  0.33655298517E+02  0.14418648283E+03  0.12499912306E+03 0.  0.
          5    1    4    4  502    0 -0.65632360424E+02  0.48781837288E+02 -0.20425031699E+02  0.84418874098E+02  0.47000000000E+01 0.  1.
         -5    1    4    4    0  502  0.71875271701E+01 -0.23952753294E+02  0.54080330216E+02  0.59767608731E+02  0.47000000000E+01 0.  1.
          5    1    3    3  503    0  0.27514580379E+02  0.38143731888E+02 -0.29188073083E+02  0.55552047902E+02  0.47000000000E+01 0. -1.
         -5    1    3    3    0  503  0.30930252875E+02 -0.62972815882E+02  0.49769374832E+02  0.86147180768E+02  0.47000000000E+01 0. -1.
<mgrwt>
<rscale>  0 0.14020188E+03</rscale>
<asrwt>0</asrwt>
<pdfrwt beam="2">  1        5 0.17819162E-01 0.14020365E+03</pdfrwt>
<pdfrwt beam="1">  1       -5 0.26163255E-01 0.14020365E+03</pdfrwt>
<totfact> 0.29243119E+02</totfact>
</mgrwt>
</event>
<event>
 8    1  0.1865596E-007  0.1415857E+03  0.7546771E-02  0.1211212E+00
         -5   -1    0    0    0  501 -0.00000000000E+00  0.00000000000E+00  0.69329654581E+03  0.69331247676E+03  0.47000000000E+01 0.  1.
          5   -1    0    0  501    0  0.00000000000E+00 -0.00000000000E+00 -0.42820908257E+02  0.43078070802E+02  0.47000000000E+01 0.  1.
         25    2    1    2    0    0 -0.98375341386E+01  0.65752711933E+02  0.53579865059E+03  0.55419012295E+03  0.12500520872E+03 0.  0.
         25    2    1    2    0    0  0.98375341386E+01 -0.65752711933E+02  0.11467698697E+03  0.18220042461E+03  0.12500394867E+03 0.  0.
          5    1    4    4  502    0  0.20374204859E+02 -0.14322102131E+02 -0.23344421171E+02  0.34456970745E+02  0.47000000000E+01 0. -1.
         -5    1    4    4    0  502 -0.10536670720E+02 -0.51430609803E+02  0.13802140814E+03  0.14774345386E+03  0.47000000000E+01 0. -1.
          5    1    3    3  503    0  0.95938822584E+01  0.45966853964E+01 -0.26357230358E+01  0.11925146932E+02  0.47000000000E+01 0. -1.
         -5    1    3    3    0  503 -0.19431416397E+02  0.61156026537E+02  0.53843437362E+03  0.54226497602E+03  0.47000000000E+01 0. -1.
<mgrwt>
<rscale>  0 0.14158538E+03</rscale>
<asrwt>0</asrwt>
<pdfrwt beam="2">  1        5 0.66088390E-02 0.14158566E+03</pdfrwt>
<pdfrwt beam="1">  1       -5 0.10668202E+00 0.14158566E+03</pdfrwt>
<totfact> 0.80862477E+01</totfact>
</mgrwt>
</event>
<event>
 8    1  0.1865596E-007  0.1526964E+03  0.7546771E-02  0.1197203E+00
          5   -1    0    0  501    0  0.00000000000E+00  0.00000000000E+00  0.37614259929E+02  0.37906761271E+02  0.47000000000E+01 0.  1.
         -5   -1    0    0    0  501 -0.00000000000E+00 -0.00000000000E+00 -0.69065220995E+03  0.69066820189E+03  0.47000000000E+01 0.  1.
         25    2    1    2    0    0 -0.39987642432E+02 -0.78020013251E+02 -0.44538636104E+03  0.47083457953E+03  0.12502022503E+03 0.  0.
         25    2    1    2    0    0  0.39987642432E+02  0.78020013251E+02 -0.20765158898E+03  0.25774038364E+03  0.12499915574E+03 0.  0.
          5    1    3    3  502    0 -0.62462236776E+02 -0.20116978287E+02 -0.35511819431E+03  0.36116096933E+03  0.47000000000E+01 0. -1.
         -5    1    3    3    0  502  0.22474594345E+02 -0.57903034964E+02 -0.90268166727E+02  0.10967361020E+03  0.47000000000E+01 0. -1.
          5    1    4    4  503    0  0.18746098845E+02  0.84108332181E+02 -0.52632067865E+02  0.10108339296E+03  0.47000000000E+01 0. -1.
         -5    1    4    4    0  503  0.21241543587E+02 -0.60883189295E+01 -0.15501952112E+03  0.15665699068E+03  0.47000000000E+01 0. -1.
<mgrwt>
<rscale>  0 0.15269209E+03</rscale>
<asrwt>0</asrwt>
<pdfrwt beam="1">  1        5 0.58105400E-02 0.15269640E+03</pdfrwt>
<pdfrwt beam="2">  1       -5 0.10627791E+00 0.15269640E+03</pdfrwt>
<totfact> 0.10381747E+02</totfact>
</mgrwt>
</event>
<event>
 8    1  0.1865596E-007  0.1511930E+03  0.7546771E-02  0.1199017E+00
         -5   -1    0    0    0  501 -0.00000000000E+00  0.00000000000E+00  0.35222991338E+03  0.35226126934E+03  0.47000000000E+01 0.  1.
          5   -1    0    0  501    0  0.00000000000E+00 -0.00000000000E+00 -0.98088702627E+02  0.98201240232E+02  0.47000000000E+01 0.  1.
         25    2    1    2    0    0  0.73775855726E+02 -0.42299862228E+02  0.25821271695E+03  0.29922089683E+03  0.12500873037E+03 0.  0.
         25    2    1    2    0    0 -0.73775855726E+02  0.42299862228E+02 -0.40715062035E+01  0.15124161275E+03  0.12500117212E+03 0.  0.
          5    1    4    4  502    0  0.12552745603E+02  0.42677362896E+02 -0.37674180048E+02  0.58483865880E+02  0.47000000000E+01 0. -1.
         -5    1    4    4    0  502 -0.86328601329E+02 -0.37750066817E+00  0.33602673845E+02  0.92757746867E+02  0.47000000000E+01 0. -1.
          5    1    3    3  503    0  0.40367103214E+02  0.39913478893E+02  0.14143859662E+03  0.15247804902E+03  0.47000000000E+01 0.  1.
         -5    1    3    3    0  503  0.33408752512E+02 -0.82213341121E+02  0.11677412034E+03  0.14674284781E+03  0.47000000000E+01 0.  1.
<mgrwt>
<rscale>  0 0.15119149E+03</rscale>
<asrwt>0</asrwt>
<pdfrwt beam="2">  1        5 0.15101638E-01 0.15119305E+03</pdfrwt>
<pdfrwt beam="1">  1       -5 0.54200286E-01 0.15119305E+03</pdfrwt>
<totfact> 0.92310669E+01</totfact>
</mgrwt>
</event>
<event>
 8    1  0.1865596E-007  0.1373527E+03  0.7546771E-02  0.1216938E+00
          5   -1    0    0  501    0  0.00000000000E+00  0.00000000000E+00  0.40569357266E+02  0.40840699664E+02  0.47000000000E+01 0. -1.
         -5   -1    0    0    0  501 -0.00000000000E+00 -0.00000000000E+00 -0.52175137709E+03  0.52177254574E+03  0.47000000000E+01 0. -1.
         25    2    1    2    0    0  0.60750202307E+00 -0.56923812684E+02 -0.33482097579E+03  0.36189894592E+03  0.12500028690E+03 0.  0.
         25    2    1    2    0    0 -0.60750202307E+00  0.56923812684E+02 -0.14636104403E+03  0.20071429948E+03  0.12499594112E+03 0.  0.
          5    1    3    3  502    0  0.41947035056E+02 -0.74378167808E+02 -0.26765430086E+03  0.28098501804E+03  0.47000000000E+01 0. -1.
         -5    1    3    3    0  502 -0.41339533033E+02  0.17454355124E+02 -0.67166674927E+02  0.80913927879E+02  0.47000000000E+01 0. -1.
          5    1    4    4  503    0  0.99823683551E+01 -0.17606277235E+02  0.12927153749E+02  0.24471002842E+02  0.47000000000E+01 0. -1.
         -5    1    4    4    0  503 -0.10589870378E+02  0.74530089919E+02 -0.15928819778E+03  0.17624329664E+03  0.47000000000E+01 0. -1.
<mgrwt>
<rscale>  0 0.13735170E+03</rscale>
<asrwt>0</asrwt>
<pdfrwt beam="1">  1        5 0.62639408E-02 0.13735269E+03</pdfrwt>
<pdfrwt beam="2">  1       -5 0.80291939E-01 0.13735269E+03</pdfrwt>
<totfact> 0.17296671E+02</totfact>
</mgrwt>
</event>
<event>
 8    1  0.1865596E-007  0.1460890E+03  0.7546771E-02  0.1205366E+00
          5   -1    0    0  501    0  0.00000000000E+00  0.00000000000E+00  0.14231795213E+04  0.14231872821E+04  0.47000000000E+01 0. -1.
         -5   -1    0    0    0  501 -0.00000000000E+00 -0.00000000000E+00 -0.15134323352E+02  0.15847326062E+02  0.47000000000E+01 0. -1.
         25    2    1    2    0    0 -0.67402369542E+02  0.34273165748E+02  0.57435703228E+03  0.59264491664E+03  0.12499706951E+03 0.  0.
         25    2    1    2    0    0  0.67402369542E+02 -0.34273165748E+02  0.83368816568E+03  0.84638969150E+03  0.12498729125E+03 0.  0.
          5    1    3    3  502    0 -0.59460204186E+02  0.55019625914E+02  0.55984904481E+03  0.56569931774E+03  0.47000000000E+01 0. -1.
         -5    1    3    3    0  502 -0.79421653557E+01 -0.20746460165E+02  0.14507987472E+02  0.26945598906E+02  0.47000000000E+01 0. -1.
          5    1    4    4  503    0  0.57936303471E+02  0.14747221669E+02  0.16051388412E+03  0.17135020514E+03  0.47000000000E+01 0.  1.
         -5    1    4    4    0  503  0.94660660704E+01 -0.49020387418E+02  0.67317428156E+03  0.67503948636E+03  0.47000000000E+01 0.  1.
<mgrwt>
<rscale>  0 0.14608691E+03</rscale>
<asrwt>0</asrwt>
<pdfrwt beam="1">  1        5 0.21900622E+00 0.14608900E+03</pdfrwt>
<pdfrwt beam="2">  1       -5 0.23837999E-02 0.14608900E+03</pdfrwt>
<totfact> 0.58346131E+01</totfact>
</mgrwt>
</event>
<event>
 8    1  0.1865596E-007  0.1290391E+03  0.7546771E-02  0.1228890E+00
          5   -1    0    0  501    0  0.00000000000E+00  0.00000000000E+00  0.13646259163E+03  0.13654350557E+03  0.47000000000E+01 0.  1.
         -5   -1    0    0    0  501 -0.00000000000E+00 -0.00000000000E+00 -0.26565854015E+03  0.26570011283E+03  0.47000000000E+01 0.  1.
         25    2    1    2    0    0 -0.22388436469E+02  0.22889450540E+02 -0.21253012564E+03  0.24863477682E+03  0.12500011562E+03 0.  0.
         25    2    1    2    0    0  0.22388436469E+02 -0.22889450540E+02  0.83334177118E+02  0.15360884158E+03  0.12500368836E+03 0.  0.
          5    1    3    3  502    0  0.27641162064E+02  0.46312313802E+02 -0.39712152636E+02  0.67141710709E+02  0.47000000000E+01 0. -1.
         -5    1    3    3    0  502 -0.50029598533E+02 -0.23422863262E+02 -0.17281797301E+03  0.18149306611E+03  0.47000000000E+01 0. -1.
          5    1    4    4  503    0 -0.12851344173E+02 -0.20304332605E+02 -0.27713470901E+02  0.36980392629E+02  0.47000000000E+01 0. -1.
         -5    1    4    4    0  503  0.35239780642E+02 -0.25851179354E+01  0.11104764802E+03  0.11662844895E+03  0.47000000000E+01 0. -1.
<mgrwt>
<rscale>  0 0.12903824E+03</rscale>
<asrwt>0</asrwt>
<pdfrwt beam="1">  1        5 0.21003667E-01 0.12903911E+03</pdfrwt>
<pdfrwt beam="2">  1       -5 0.40879967E-01 0.12903911E+03</pdfrwt>
<totfact> 0.86335952E+01</totfact>
</mgrwt>
</event>
<event>
 8    1  0.1865596E-007  0.1279891E+03  0.7546771E-02  0.1230475E+00
         -5   -1    0    0    0  501 -0.00000000000E+00  0.00000000000E+00  0.66661685619E+03  0.66663342472E+03  0.47000000000E+01 0. -1.
          5   -1    0    0  501    0  0.00000000000E+00 -0.00000000000E+00 -0.24514411074E+02  0.24960896425E+02  0.47000000000E+01 0. -1.
         25    2    1    2    0    0  0.16905306358E+01 -0.27425288652E+02  0.29128116658E+03  0.31815518987E+03  0.12499200967E+03 0.  0.
         25    2    1    2    0    0 -0.16905306358E+01  0.27425288652E+02  0.35082127853E+03  0.37343913128E+03  0.12500484370E+03 0.  0.
          5    1    3    3  502    0  0.63132507988E+02 -0.14770090658E+02  0.15296566233E+03  0.16620605583E+03  0.47000000000E+01 0.  1.
         -5    1    3    3    0  502 -0.61441977352E+02 -0.12655197994E+02  0.13831550425E+03  0.15194913403E+03  0.47000000000E+01 0.  1.
          5    1    4    4  503    0 -0.44717580134E+02 -0.28430328039E+02  0.19884560305E+03  0.20583879463E+03  0.47000000000E+01 0. -1.
         -5    1    4    4    0  503  0.43027049498E+02  0.55855616691E+02  0.15197567548E+03  0.16760033664E+03  0.47000000000E+01 0. -1.
<mgrwt>
<rscale>  0 0.12798599E+03</rscale>
<asrwt>0</asrwt>
<pdfrwt beam="2">  1        5 0.38070666E-02 0.12798912E+03</pdfrwt>
<pdfrwt beam="1">  1       -5 0.10259208E+00 0.12798912E+03</pdfrwt>
<totfact> 0.21533372E+02</totfact>
</mgrwt>
</event>
<event>
 8    1  0.1865596E-007  0.1256831E+03  0.7546771E-02  0.1234006E+00
          5   -1    0    0  501    0  0.00000000000E+00  0.00000000000E+00  0.62898361810E+03  0.62900117793E+03  0.47000000000E+01 0.  1.
         -5   -1    0    0    0  501 -0.00000000000E+00 -0.00000000000E+00 -0.25175932192E+02  0.25610887563E+02  0.47000000000E+01 0.  1.
         25    2    1    2    0    0 -0.90823450993E+01 -0.93842537602E+01  0.26648838430E+03  0.29463926329E+03  0.12500273315E+03 0.  0.
         25    2    1    2    0    0  0.90823450993E+01  0.93842537602E+01  0.33731930161E+03  0.35997280220E+03  0.12500221549E+03 0.  0.
          5    1    4    4  502    0 -0.21331726410E+02 -0.43350809116E+02  0.66362517437E+02  0.82221705912E+02  0.47000000000E+01 0. -1.
         -5    1    4    4    0  502  0.30414071509E+02  0.52735062876E+02  0.27095678417E+03  0.27775109629E+03  0.47000000000E+01 0. -1.
          5    1    3    3  503    0  0.13861804114E+02 -0.49892359127E+02  0.22857987246E+03  0.23441895232E+03  0.47000000000E+01 0.  1.
         -5    1    3    3    0  503 -0.22944149213E+02  0.40508105367E+02  0.37908511839E+02  0.60220310971E+02  0.47000000000E+01 0.  1.
<mgrwt>
<rscale>  0 0.12568295E+03</rscale>
<asrwt>0</asrwt>
<pdfrwt beam="1">  1        5 0.96801519E-01 0.12568308E+03</pdfrwt>
<pdfrwt beam="2">  1       -5 0.39080292E-02 0.12568308E+03</pdfrwt>
<totfact> 0.23605084E+02</totfact>
</mgrwt>
</event>
<event>
 8    1  0.1865596E-007  0.1681481E+03  0.7546771E-02  0.1179810E+00
         -5   -1    0    0    0  501 -0.00000000000E+00  0.00000000000E+00  0.70697761559E+02  0.70853817748E+02  0.47000000000E+01 0. -1.
          5   -1    0    0  501    0  0.00000000000E+00 -0.00000000000E+00 -0.39941522790E+03  0.39944287987E+03  0.47000000000E+01 0. -1.
         25    2    1    2    0    0  0.17483108926E+02 -0.11109533351E+03 -0.17037688195E+03  0.23937852432E+03  0.12500385506E+03 0.  0.
         25    2    1    2    0    0 -0.17483108926E+02  0.11109533351E+03 -0.15834058439E+03  0.23091817329E+03  0.12491449021E+03 0.  0.
          5    1    3    3  502    0  0.50943256630E+02 -0.62607514092E+02 -0.28573014384E+02  0.85752104160E+02  0.47000000000E+01 0. -1.
         -5    1    3    3    0  502 -0.33460147705E+02 -0.48487819420E+02 -0.14180386756E+03  0.15362642016E+03  0.47000000000E+01 0. -1.
          5    1    4    4  503    0  0.39402121181E+02  0.73875789896E+02 -0.13493224648E+03  0.15886774571E+03  0.47000000000E+01 0. -1.
         -5    1    4    4    0  503 -0.56885230107E+02  0.37219543616E+02 -0.23408337914E+02  0.72050427585E+02  0.47000000000E+01 0. -1.
<mgrwt>
<rscale>  0 0.16813153E+03</rscale>
<asrwt>0</asrwt>
<pdfrwt beam="2">  1        5 0.61462627E-01 0.16814814E+03</pdfrwt>
<pdfrwt beam="1">  1       -5 0.10890710E-01 0.16814814E+03</pdfrwt>
<totfact> 0.13009876E+02</totfact>
</mgrwt>
</event>
<event>
 8    1  0.1865596E-007  0.1292803E+03  0.7546771E-02  0.1228530E+00
          5   -1    0    0  501    0  0.00000000000E+00  0.00000000000E+00  0.16334062584E+03  0.16340823127E+03  0.47000000000E+01 0. -1.
         -5   -1    0    0    0  501 -0.00000000000E+00 -0.00000000000E+00 -0.15682283694E+03  0.15689325093E+03  0.47000000000E+01 0. -1.
         25    2    1    2    0    0 -0.32751972580E+02 -0.36029886113E+01 -0.91233611469E+02  0.15823073337E+03  0.12501087908E+03 0.  0.
         25    2    1    2    0    0  0.32751972580E+02  0.36029886113E+01  0.97751400360E+02  0.16207074883E+03  0.12500367242E+03 0.  0.
          5    1    4    4  502    0  0.65257801877E+02 -0.16128060813E+02  0.10332092402E+03  0.12335314504E+03  0.47000000000E+01 0. -1.
         -5    1    4    4    0  502 -0.32505829297E+02  0.19731049424E+02 -0.55695236551E+01  0.38717603792E+02  0.47000000000E+01 0. -1.
          5    1    3    3  503    0 -0.73062406377E+02  0.27037616670E+02 -0.49239053590E+02  0.92280671537E+02  0.47000000000E+01 0.  1.
         -5    1    3    3    0  503  0.40310433797E+02 -0.30640605282E+02 -0.41994557879E+02  0.65950061838E+02  0.47000000000E+01 0.  1.
<mgrwt>
<rscale>  0 0.12927855E+03</rscale>
<asrwt>0</asrwt>
<pdfrwt beam="1">  1        5 0.25139944E-01 0.12928029E+03</pdfrwt>
<pdfrwt beam="2">  1       -5 0.24137207E-01 0.12928029E+03</pdfrwt>
<totfact> 0.17387809E+02</totfact>
</mgrwt>
</event>
<event>
 8    1  0.1865596E-007  0.1343808E+03  0.7546771E-02  0.1221103E+00
          5   -1    0    0  501    0  0.00000000000E+00  0.00000000000E+00  0.25660633328E+03  0.25664937226E+03  0.47000000000E+01 0.  1.
         -5   -1    0    0    0  501 -0.00000000000E+00 -0.00000000000E+00 -0.70253930918E+02  0.70410970803E+02  0.47000000000E+01 0.  1.
         25    2    1    2    0    0  0.18932524090E+02  0.45565846197E+02  0.95767701482E+02  0.16501411440E+03  0.12499407384E+03 0.  0.
         25    2    1    2    0    0 -0.18932524090E+02 -0.45565846197E+02  0.90584700880E+02  0.16204622866E+03  0.12497481899E+03 0.  0.
          5    1    3    3  502    0  0.56009710354E+02 -0.38170240766E+01  0.85270110104E+02  0.10219950589E+03  0.47000000000E+01 0.  1.
         -5    1    3    3    0  502 -0.37077186265E+02  0.49382870274E+02  0.10497591378E+02  0.62814608512E+02  0.47000000000E+01 0.  1.
          5    1    4    4  503    0 -0.39633291306E+02  0.29213657316E+02  0.61796617276E+02  0.79152684479E+02  0.47000000000E+01 0.  1.
         -5    1    4    4    0  503  0.20700767216E+02 -0.74779503513E+02  0.28788083604E+02  0.82893544179E+02  0.47000000000E+01 0.  1.
<mgrwt>
<rscale>  0 0.13437634E+03</rscale>
<asrwt>0</asrwt>
<pdfrwt beam="1">  1        5 0.39493288E-01 0.13438082E+03</pdfrwt>
<pdfrwt beam="2">  1       -5 0.10823688E-01 0.13438082E+03</pdfrwt>
<totfact> 0.31224428E+02</totfact>
</mgrwt>
</event>
<event>
 8    1  0.1865596E-007  0.1363368E+03  0.7546771E-02  0.1218348E+00
          5   -1    0    0  501    0  0.00000000000E+00  0.00000000000E+00  0.74604841359E+02  0.74752741450E+02  0.47000000000E+01 0. -1.
         -5   -1    0    0    0  501 -0.00000000000E+00 -0.00000000000E+00 -0.35251180391E+03  0.35254313481E+03  0.47000000000E+01 0. -1.
         25    2    1    2    0    0  0.44414884530E+02  0.31409624246E+02 -0.25485820715E+03  0.28903362757E+03  0.12501394181E+03 0.  0.
         25    2    1    2    0    0 -0.44414884530E+02 -0.31409624246E+02 -0.23048755402E+02  0.13826224869E+03  0.12500383124E+03 0.  0.
          5    1    3    3  502    0  0.54983227110E+02  0.22527625529E+02 -0.35881167674E+02  0.69571526999E+02  0.47000000000E+01 0. -1.
         -5    1    3    3    0  502 -0.10568342580E+02  0.88819987176E+01 -0.21897703948E+03  0.21946210057E+03  0.47000000000E+01 0. -1.
          5    1    4    4  503    0 -0.13333145069E+01 -0.23416906287E+02  0.48587397387E+02  0.54156757773E+02  0.47000000000E+01 0. -1.
         -5    1    4    4    0  503 -0.43081570023E+02 -0.79927179596E+01 -0.71636152789E+02  0.84105490917E+02  0.47000000000E+01 0. -1.
<mgrwt>
<rscale>  0 0.13633452E+03</rscale>
<asrwt>0</asrwt>
<pdfrwt beam="1">  1        5 0.11491455E-01 0.13633683E+03</pdfrwt>
<pdfrwt beam="2">  1       -5 0.54246371E-01 0.13633683E+03</pdfrwt>
<totfact> 0.14532199E+02</totfact>
</mgrwt>
</event>
<event>
 8    1  0.1865596E-007  0.1606653E+03  0.7546771E-02  0.1187949E+00
         -5   -1    0    0    0  501 -0.00000000000E+00  0.00000000000E+00  0.69935417746E+03  0.69936997042E+03  0.47000000000E+01 0.  1.
          5   -1    0    0  501    0  0.00000000000E+00 -0.00000000000E+00 -0.39556063746E+02  0.39834309070E+02  0.47000000000E+01 0.  1.
         25    2    1    2    0    0  0.98343922311E+02 -0.22733193345E+02  0.42807446732E+03  0.45723054212E+03  0.12499477566E+03 0.  0.
         25    2    1    2    0    0 -0.98343922311E+02  0.22733193345E+02  0.23172364640E+03  0.28197373737E+03  0.12500006053E+03 0.  0.
          5    1    4    4  502    0  0.12046414471E+02 -0.32129435003E+02  0.31601191033E+02  0.46884346747E+02  0.47000000000E+01 0.  1.
         -5    1    4    4    0  502 -0.11039033678E+03  0.54862628347E+02  0.20012245537E+03  0.23508939063E+03  0.47000000000E+01 0.  1.
          5    1    3    3  503    0  0.47294180097E+02 -0.71997740429E+02  0.18799957271E+03  0.20684860027E+03  0.47000000000E+01 0. -1.
         -5    1    3    3    0  503  0.51049742215E+02  0.49264547085E+02  0.24007489461E+03  0.25038194185E+03  0.47000000000E+01 0. -1.
<mgrwt>
<rscale>  0 0.16066428E+03</rscale>
<asrwt>0</asrwt>
<pdfrwt beam="2">  1        5 0.61081673E-02 0.16066531E+03</pdfrwt>
<pdfrwt beam="1">  1       -5 0.10761556E+00 0.16066531E+03</pdfrwt>
<totfact> 0.93980471E+01</totfact>
</mgrwt>
</event>
<event>
 8    1  0.1865596E-007  0.1254928E+03  0.7546771E-02  0.1234303E+00
          5   -1    0    0  501    0  0.00000000000E+00  0.00000000000E+00  0.19136540648E+04  0.19136598365E+04  0.47000000000E+01 0. -1.
         -5   -1    0    0    0  501 -0.00000000000E+00 -0.00000000000E+00 -0.75571222571E+01  0.88994436236E+01  0.47000000000E+01 0. -1.
         25    2    1    2    0    0 -0.70341473111E+01 -0.85589475920E+01  0.97651500304E+03  0.98454487514E+03  0.12499730073E+03 0.  0.
         25    2    1    2    0    0  0.70341473111E+01  0.85589475920E+01  0.92958193950E+03  0.93801440495E+03  0.12500282733E+03 0.  0.
          5    1    4    4  502    0 -0.50273124762E+01 -0.53250466963E+02  0.60279385422E+03  0.60518047456E+03  0.47000000000E+01 0.  1.
         -5    1    4    4    0  502  0.12061459787E+02  0.61809414555E+02  0.32678808528E+03  0.33283393039E+03  0.47000000000E+01 0.  1.
          5    1    3    3  503    0  0.41277574583E+02 -0.36414540731E+02  0.71382426576E+03  0.71595881817E+03  0.47000000000E+01 0.  1.
         -5    1    3    3    0  503 -0.48311721894E+02  0.27855593139E+02  0.26269073729E+03  0.26858605697E+03  0.47000000000E+01 0.  1.
<mgrwt>
<rscale>  0 0.12549142E+03</rscale>
<asrwt>0</asrwt>
<pdfrwt beam="1">  1        5 0.29451222E+00 0.12549280E+03</pdfrwt>
<pdfrwt beam="2">  1       -5 0.12663328E-02 0.12549280E+03</pdfrwt>
<totfact> 0.50382516E+01</totfact>
</mgrwt>
</event>
<event>
 8    1  0.1865596E-007  0.1456142E+03  0.7546771E-02  0.1205969E+00
         -5   -1    0    0    0  501 -0.00000000000E+00  0.00000000000E+00  0.28175606485E+03  0.28179526270E+03  0.47000000000E+01 0.  1.
          5   -1    0    0  501    0  0.00000000000E+00 -0.00000000000E+00 -0.26118816918E+03  0.26123045327E+03  0.47000000000E+01 0.  1.
         25    2    1    2    0    0 -0.16976485719E+02  0.72729526021E+02  0.23938176063E+03  0.28019121243E+03  0.12500281269E+03 0.  0.
         25    2    1    2    0    0  0.16976485719E+02 -0.72729526021E+02 -0.21881386496E+03  0.26283450354E+03  0.12499873491E+03 0.  0.
          5    1    4    4  502    0 -0.23464113741E+02  0.35063928522E+01 -0.15114745608E+03  0.15307025480E+03  0.47000000000E+01 0.  1.
         -5    1    4    4    0  502  0.40440599460E+02 -0.76235918873E+02 -0.67666408878E+02  0.10976424874E+03  0.47000000000E+01 0.  1.
          5    1    3    3  503    0 -0.33197760939E+02 -0.25711187500E+02  0.10142812170E+03  0.10987679631E+03  0.47000000000E+01 0.  1.
         -5    1    3    3    0  503  0.16221275220E+02  0.98440713521E+02  0.13795363892E+03  0.17031441613E+03  0.47000000000E+01 0.  1.
<mgrwt>
<rscale>  0 0.14561330E+03</rscale>
<asrwt>0</asrwt>
<pdfrwt beam="2">  1        5 0.40189063E-01 0.14561418E+03</pdfrwt>
<pdfrwt beam="1">  1       -5 0.43353355E-01 0.14561418E+03</pdfrwt>
<totfact> 0.22317975E+01</totfact>
</mgrwt>
</event>
<event>
 8    1  0.1865596E-007  0.2103006E+03  0.7546771E-02  0.1141328E+00
         -5   -1    0    0    0  501 -0.00000000000E+00  0.00000000000E+00  0.30210377913E+03  0.30214033720E+03  0.47000000000E+01 0.  1.
          5   -1    0    0  501    0  0.00000000000E+00 -0.00000000000E+00 -0.15648362425E+03  0.15655419081E+03  0.47000000000E+01 0.  1.
         25    2    1    2    0    0 -0.11784452505E+03  0.12130119295E+03  0.13126644161E+03  0.24790461901E+03  0.12499803973E+03 0.  0.
         25    2    1    2    0    0  0.11784452505E+03 -0.12130119295E+03  0.14353713272E+02  0.21078990900E+03  0.12500018063E+03 0.  0.
          5    1    4    4  502    0  0.48647064389E+02 -0.12983724256E+03  0.22104719930E+02  0.14048115557E+03  0.47000000000E+01 0.  1.
         -5    1    4    4    0  502  0.69197460659E+02  0.85360496039E+01 -0.77510066573E+01  0.70308753429E+02  0.47000000000E+01 0.  1.
          5    1    3    3  503    0 -0.80689819075E+02 -0.32499521534E+00  0.68776421139E+02  0.10612840632E+03  0.47000000000E+01 0. -1.
         -5    1    3    3    0  503 -0.37154705973E+02  0.12162618817E+03  0.62490020470E+02  0.14177621268E+03  0.47000000000E+01 0. -1.
<mgrwt>
<rscale>  0 0.21030032E+03</rscale>
<asrwt>0</asrwt>
<pdfrwt beam="2">  1        5 0.24082645E-01 0.21030063E+03</pdfrwt>
<pdfrwt beam="1">  1       -5 0.46485744E-01 0.21030063E+03</pdfrwt>
<totfact> 0.58882011E+01</totfact>
</mgrwt>
</event>
<event>
 8    1  0.1865596E-007  0.2800041E+03  0.7546771E-02  0.1095687E+00
          5   -1    0    0  501    0  0.00000000000E+00  0.00000000000E+00  0.71966318848E+03  0.71967853577E+03  0.47000000000E+01 0.  1.
         -5   -1    0    0    0  501 -0.00000000000E+00 -0.00000000000E+00 -0.13561547689E+03  0.13569689596E+03  0.47000000000E+01 0.  1.
         25    2    1    2    0    0  0.25028002046E+03 -0.11694648627E+02  0.10218521194E+03  0.29806726474E+03  0.12500169328E+03 0.  0.
         25    2    1    2    0    0 -0.25028002046E+03  0.11694648627E+02  0.48186249965E+03  0.55730816699E+03  0.12499628381E+03 0.  0.
          5    1    3    3  502    0  0.20125127880E+03 -0.47756090375E+02  0.11350409334E+03  0.23598303030E+03  0.47000000000E+01 0. -1.
         -5    1    3    3    0  502  0.49028741663E+02  0.36061441748E+02 -0.11318881399E+02  0.62084234441E+02  0.47000000000E+01 0. -1.
          5    1    4    4  503    0 -0.25113358680E+03 -0.78025956186E+01  0.47247375329E+03  0.53514717272E+03  0.47000000000E+01 0. -1.
         -5    1    4    4    0  503  0.85356633985E+00  0.19497244246E+02  0.93887463623E+01  0.22160994268E+02  0.47000000000E+01 0. -1.
<mgrwt>
<rscale>  0 0.28000346E+03</rscale>
<asrwt>0</asrwt>
<pdfrwt beam="1">  1        5 0.11072486E+00 0.28000407E+03</pdfrwt>
<pdfrwt beam="2">  1       -5 0.20871363E-01 0.28000407E+03</pdfrwt>
<totfact> 0.11224920E+01</totfact>
</mgrwt>
</event>
<event>
 8    1  0.1865596E-007  0.1291490E+03  0.7546771E-02  0.1228725E+00
          5   -1    0    0  501    0  0.00000000000E+00  0.00000000000E+00  0.14499895036E+03  0.14507510333E+03  0.47000000000E+01 0.  1.
         -5   -1    0    0    0  501 -0.00000000000E+00 -0.00000000000E+00 -0.13563328041E+03  0.13571468879E+03  0.47000000000E+01 0.  1.
         25    2    1    2    0    0 -0.21624486819E+02 -0.24201872612E+02 -0.50209028622E+02  0.13856550861E+03  0.12500441813E+03 0.  0.
         25    2    1    2    0    0  0.21624486819E+02  0.24201872612E+02  0.59574698575E+02  0.14222428351E+03  0.12500101216E+03 0.  0.
          5    1    4    4  502    0  0.22782351155E+02 -0.46173653593E+02  0.48364514746E+02  0.70797302893E+02  0.47000000000E+01 0. -1.
         -5    1    4    4    0  502 -0.11578643359E+01  0.70375526205E+02  0.11210183829E+02  0.71426980616E+02  0.47000000000E+01 0. -1.
          5    1    3    3  503    0 -0.60885483877E+02  0.80010802139E+01  0.69326870761E+01  0.61977508676E+02  0.47000000000E+01 0.  1.
         -5    1    3    3    0  503  0.39260997058E+02 -0.32202952826E+02 -0.57141715698E+02  0.76587999933E+02  0.47000000000E+01 0.  1.
<mgrwt>
<rscale>  0 0.12914813E+03</rscale>
<asrwt>0</asrwt>
<pdfrwt beam="1">  1        5 0.22319651E-01 0.12914896E+03</pdfrwt>
<pdfrwt beam="2">  1       -5 0.20878779E-01 0.12914896E+03</pdfrwt>
<totfact> 0.28663174E+02</totfact>
</mgrwt>
</event>
<event>
 8    1  0.1865596E-007  0.1380570E+03  0.7546771E-02  0.1215970E+00
         -5   -1    0    0    0  501 -0.00000000000E+00  0.00000000000E+00  0.13767906607E+03  0.13775926551E+03  0.47000000000E+01 0.  1.
          5   -1    0    0  501    0  0.00000000000E+00 -0.00000000000E+00 -0.13874640561E+03  0.13882598846E+03  0.47000000000E+01 0.  1.
         25    2    1    2    0    0 -0.22841060295E+02 -0.53976815672E+02  0.75750511859E+01  0.13826461459E+03  0.12499804631E+03 0.  0.
         25    2    1    2    0    0  0.22841060295E+02  0.53976815672E+02 -0.86423907285E+01  0.13832063938E+03  0.12499079044E+03 0.  0.
          5    1    3    3  502    0 -0.58765110247E+02  0.14328713792E+02  0.11684440092E+01  0.60680354998E+02  0.47000000000E+01 0.  1.
         -5    1    3    3    0  502  0.35924049952E+02 -0.68305529464E+02  0.64066071767E+01  0.77584259588E+02  0.47000000000E+01 0.  1.
          5    1    4    4  503    0  0.14417383442E+01  0.10237255409E+01  0.53530668335E+02  0.53765686789E+02  0.47000000000E+01 0. -1.
         -5    1    4    4    0  503  0.21399321951E+02  0.52953090131E+02 -0.62173059064E+02  0.84554952592E+02  0.47000000000E+01 0. -1.
<mgrwt>
<rscale>  0 0.13805531E+03</rscale>
<asrwt>0</asrwt>
<pdfrwt beam="2">  1        5 0.21357892E-01 0.13805695E+03</pdfrwt>
<pdfrwt beam="1">  1       -5 0.21193686E-01 0.13805695E+03</pdfrwt>
<totfact> 0.30999223E+02</totfact>
</mgrwt>
</event>
<event>
 8    1  0.1865596E-007  0.1385237E+03  0.7546771E-02  0.1215330E+00
         -5   -1    0    0    0  501 -0.00000000000E+00  0.00000000000E+00  0.13070752305E+02  0.13890088762E+02  0.47000000000E+01 0. -1.
          5   -1    0    0  501    0  0.00000000000E+00 -0.00000000000E+00 -0.14866532951E+04  0.14866607245E+04  0.47000000000E+01 0. -1.
         25    2    1    2    0    0 -0.40931736632E+02  0.43461372545E+02 -0.58111113498E+03  0.59739300692E+03  0.12499582216E+03 0.  0.
         25    2    1    2    0    0  0.40931736632E+02 -0.43461372545E+02 -0.89247140782E+03  0.90315780636E+03  0.12499804579E+03 0.  0.
          5    1    3    3  502    0 -0.81991355509E+02  0.58948217702E+01 -0.36633855613E+03  0.37547750800E+03  0.47000000000E+01 0.  1.
         -5    1    3    3    0  502  0.41059618877E+02  0.37566550775E+02 -0.21477257884E+03  0.22191549892E+03  0.47000000000E+01 0.  1.
          5    1    4    4  503    0  0.61199925627E+01 -0.84287993064E+02 -0.53709805652E+03  0.54372633963E+03  0.47000000000E+01 0. -1.
         -5    1    4    4    0  503  0.34811744069E+02  0.40826620518E+02 -0.35537335130E+03  0.35943146674E+03  0.47000000000E+01 0. -1.
<mgrwt>
<rscale>  0 0.13852318E+03</rscale>
<asrwt>0</asrwt>
<pdfrwt beam="2">  1        5 0.22877936E+00 0.13852368E+03</pdfrwt>
<pdfrwt beam="1">  1       -5 0.20744835E-02 0.13852368E+03</pdfrwt>
<totfact> 0.62003244E+01</totfact>
</mgrwt>
</event>
<event>
 8    1  0.1865596E-007  0.1301824E+03  0.7546771E-02  0.1227186E+00
          5   -1    0    0  501    0  0.00000000000E+00  0.00000000000E+00  0.12617531243E+04  0.12617618779E+04  0.47000000000E+01 0. -1.
         -5   -1    0    0    0  501 -0.00000000000E+00 -0.00000000000E+00 -0.17552107945E+02  0.18170484124E+02  0.47000000000E+01 0. -1.
         25    2    1    2    0    0  0.89247505133E+01  0.35234570285E+02  0.30314500990E+03  0.32991454389E+03  0.12500233248E+03 0.  0.
         25    2    1    2    0    0 -0.89247505133E+01 -0.35234570285E+02  0.94105600644E+03  0.95001781818E+03  0.12500528588E+03 0.  0.
          5    1    3    3  502    0  0.16212884874E+02  0.57594455757E+01  0.29827353626E+03  0.29880632738E+03  0.47000000000E+01 0. -1.
         -5    1    3    3    0  502 -0.72881343604E+01  0.29475124709E+02  0.48714736457E+01  0.31108216512E+02  0.47000000000E+01 0. -1.
          5    1    4    4  503    0 -0.60936256395E+02 -0.29266188241E+02  0.34124065650E+03  0.34790374066E+03  0.47000000000E+01 0.  1.
         -5    1    4    4    0  503  0.52011505882E+02 -0.59683820445E+01  0.59981534994E+03  0.60211407752E+03  0.47000000000E+01 0.  1.
<mgrwt>
<rscale>  0 0.13018165E+03</rscale>
<asrwt>0</asrwt>
<pdfrwt beam="1">  1        5 0.19416417E+00 0.13018236E+03</pdfrwt>
<pdfrwt beam="2">  1       -5 0.27485642E-02 0.13018236E+03</pdfrwt>
<totfact> 0.65819776E+01</totfact>
</mgrwt>
</event>
<event>
 8    1  0.1865596E-007  0.1254832E+03  0.7546771E-02  0.1234316E+00
         -5   -1    0    0    0  501 -0.00000000000E+00  0.00000000000E+00  0.59381306534E+02  0.59567017432E+02  0.47000000000E+01 0. -1.
          5   -1    0    0  501    0  0.00000000000E+00 -0.00000000000E+00 -0.29780596976E+03  0.29784305536E+03  0.47000000000E+01 0. -1.
         25    2    1    2    0    0 -0.45128233972E+01 -0.10059696348E+02 -0.59514653056E+02  0.13888130617E+03  0.12499784082E+03 0.  0.
         25    2    1    2    0    0  0.45128233972E+01  0.10059696348E+02 -0.17891001017E+03  0.21852876662E+03  0.12499786812E+03 0.  0.
          5    1    3    3  502    0 -0.62007320000E+02 -0.77092840662E+01 -0.11320681687E+02  0.63675651770E+02  0.47000000000E+01 0.  1.
         -5    1    3    3    0  502  0.57494496603E+02 -0.23504122818E+01 -0.48193971369E+02  0.75205654401E+02  0.47000000000E+01 0.  1.
          5    1    4    4  503    0  0.50556443718E+01 -0.18391776629E+02 -0.18742831543E+03  0.18845498246E+03  0.47000000000E+01 0.  1.
         -5    1    4    4    0  503 -0.54282097460E+00  0.28451472977E+02  0.85183052627E+01  0.30073784160E+02  0.47000000000E+01 0.  1.
<mgrwt>
<rscale>  0 0.12548318E+03</rscale>
<asrwt>0</asrwt>
<pdfrwt beam="2">  1        5 0.45833440E-01 0.12548319E+03</pdfrwt>
<pdfrwt beam="1">  1       -5 0.91527240E-02 0.12548319E+03</pdfrwt>
<totfact> 0.30012918E+02</totfact>
</mgrwt>
</event>
<event>
 8    1  0.1865596E-007  0.1418438E+03  0.7546771E-02  0.1210870E+00
          5   -1    0    0  501    0  0.00000000000E+00  0.00000000000E+00  0.11975926205E+04  0.11976018431E+04  0.47000000000E+01 0. -1.
         -5   -1    0    0    0  501 -0.00000000000E+00 -0.00000000000E+00 -0.18826917309E+02  0.19404711164E+02  0.47000000000E+01 0. -1.
         25    2    1    2    0    0  0.26920252099E+02 -0.61393471319E+02  0.37719482270E+03  0.40298227520E+03  0.12499968623E+03 0.  0.
         25    2    1    2    0    0 -0.26920252099E+02  0.61393471319E+02  0.80157088047E+03  0.81402427908E+03  0.12500316884E+03 0.  0.
          5    1    4    4  502    0  0.47369937689E+02  0.45005063349E+02  0.38674863813E+03  0.39225752487E+03  0.47000000000E+01 0. -1.
         -5    1    4    4    0  502 -0.74290189788E+02  0.16388407970E+02  0.41482224234E+03  0.42176675421E+03  0.47000000000E+01 0. -1.
          5    1    3    3  503    0  0.26664667526E+02 -0.91958652322E+02  0.18546541120E+03  0.20877477574E+03  0.47000000000E+01 0. -1.
         -5    1    3    3    0  503  0.25558457389E+00  0.30565181003E+02  0.19172941150E+03  0.19420749946E+03  0.47000000000E+01 0. -1.
<mgrwt>
<rscale>  0 0.14184299E+03</rscale>
<asrwt>0</asrwt>
<pdfrwt beam="1">  1        5 0.18429023E+00 0.14184375E+03</pdfrwt>
<pdfrwt beam="2">  1       -5 0.29416030E-02 0.14184375E+03</pdfrwt>
<totfact> 0.70832377E+01</totfact>
</mgrwt>
</event>
<event>
 8    1  0.1865596E-007  0.1293909E+03  0.7546771E-02  0.1228365E+00
         -5   -1    0    0    0  501 -0.00000000000E+00  0.00000000000E+00  0.19252521707E+03  0.19258257763E+03  0.47000000000E+01 0.  1.
          5   -1    0    0  501    0  0.00000000000E+00 -0.00000000000E+00 -0.10395487618E+03  0.10406106996E+03  0.47000000000E+01 0.  1.
         25    2    1    2    0    0  0.17605531876E+02 -0.28404155053E+02  0.10444930756E+03  0.16628787137E+03  0.12500099015E+03 0.  0.
         25    2    1    2    0    0 -0.17605531876E+02  0.28404155053E+02 -0.15878966673E+02  0.13035577622E+03  0.12499494403E+03 0.  0.
          5    1    3    3  502    0 -0.47128320810E+02 -0.38675096046E+02  0.34059993897E+02  0.69992962937E+02  0.47000000000E+01 0.  1.
         -5    1    3    3    0  502  0.64733852686E+02  0.10270940993E+02  0.70389313666E+02  0.96294908437E+02  0.47000000000E+01 0.  1.
          5    1    4    4  503    0 -0.31334528227E+02  0.70100819192E+02  0.12405745741E+02  0.77922846701E+02  0.47000000000E+01 0.  1.
         -5    1    4    4    0  503  0.13728996350E+02 -0.41696664139E+02 -0.28284712414E+02  0.52432929515E+02  0.47000000000E+01 0.  1.
<mgrwt>
<rscale>  0 0.12938941E+03</rscale>
<asrwt>0</asrwt>
<pdfrwt beam="2">  1        5 0.16005639E-01 0.12939087E+03</pdfrwt>
<pdfrwt beam="1">  1       -5 0.29631845E-01 0.12939087E+03</pdfrwt>
<totfact> 0.27179767E+02</totfact>
</mgrwt>
</event>
<event>
 8    1  0.1865596E-007  0.1264825E+03  0.7546771E-02  0.1232780E+00
         -5   -1    0    0    0  501 -0.00000000000E+00  0.00000000000E+00  0.27608862789E+03  0.27612863026E+03  0.47000000000E+01 0. -1.
          5   -1    0    0  501    0  0.00000000000E+00 -0.00000000000E+00 -0.57795058221E+02  0.57985849608E+02  0.47000000000E+01 0. -1.
         25    2    1    2    0    0 -0.15455996416E+02  0.11304285598E+02  0.10812966904E+03  0.16638283418E+03  0.12499818992E+03 0.  0.
         25    2    1    2    0    0  0.15455996416E+02 -0.11304285598E+02  0.11016390063E+03  0.16773164569E+03  0.12502457865E+03 0.  0.
          5    1    4    4  502    0 -0.39260176531E+01  0.30485076150E+02  0.11687757531E+03  0.12094300762E+03  0.47000000000E+01 0. -1.
         -5    1    4    4    0  502  0.19382014069E+02 -0.41789361747E+02 -0.67136746801E+01  0.46788638068E+02  0.47000000000E+01 0. -1.
          5    1    3    3  503    0 -0.92759712808E+01  0.46894098186E+02 -0.42749990138E+01  0.48223082694E+02  0.47000000000E+01 0.  1.
         -5    1    3    3    0  503 -0.61800251348E+01 -0.35589812589E+02  0.11240466805E+03  0.11815975148E+03  0.47000000000E+01 0.  1.
<mgrwt>
<rscale>  0 0.12647597E+03</rscale>
<asrwt>0</asrwt>
<pdfrwt beam="2">  1        5 0.89093008E-02 0.12648249E+03</pdfrwt>
<pdfrwt beam="1">  1       -5 0.42492927E-01 0.12648249E+03</pdfrwt>
<totfact> 0.36893344E+02</totfact>
</mgrwt>
</event>
<event>
 8    1  0.1865596E-007  0.1307123E+03  0.7546771E-02  0.1226405E+00
          5   -1    0    0  501    0  0.00000000000E+00  0.00000000000E+00  0.46772639313E+03  0.46775000677E+03  0.47000000000E+01 0. -1.
         -5   -1    0    0    0  501 -0.00000000000E+00 -0.00000000000E+00 -0.37966828244E+02  0.38256634025E+02  0.47000000000E+01 0. -1.
         25    2    1    2    0    0 -0.25284003472E+02 -0.28629314131E+02  0.16290414042E+03  0.20885763004E+03  0.12499932881E+03 0.  0.
         25    2    1    2    0    0  0.25284003472E+02  0.28629314131E+02  0.26685542447E+03  0.29714901075E+03  0.12500719404E+03 0.  0.
          5    1    3    3  502    0 -0.65413314657E+02 -0.51606599390E+02  0.11523087760E+03  0.14227574630E+03  0.47000000000E+01 0. -1.
         -5    1    3    3    0  502  0.40129311185E+02  0.22977285259E+02  0.47673262825E+02  0.66581883740E+02  0.47000000000E+01 0. -1.
          5    1    4    4  503    0 -0.44245240322E+01  0.55721223087E+02  0.24460938065E+03  0.25095870221E+03  0.47000000000E+01 0.  1.
         -5    1    4    4    0  503  0.29708527504E+02 -0.27091908955E+02  0.22246043824E+02  0.46190308541E+02  0.47000000000E+01 0.  1.
<mgrwt>
<rscale>  0 0.13071046E+03</rscale>
<asrwt>0</asrwt>
<pdfrwt beam="1">  1        5 0.71982018E-01 0.13071234E+03</pdfrwt>
<pdfrwt beam="2">  1       -5 0.58651595E-02 0.13071234E+03</pdfrwt>
<totfact> 0.24392532E+02</totfact>
</mgrwt>
</event>
<event>
 8    1  0.1865596E-007  0.1307053E+03  0.7546771E-02  0.1226432E+00
          5   -1    0    0  501    0  0.00000000000E+00  0.00000000000E+00  0.54665702198E+02  0.54867376434E+02  0.47000000000E+01 0.  1.
         -5   -1    0    0    0  501 -0.00000000000E+00 -0.00000000000E+00 -0.31454607087E+03  0.31458118301E+03  0.47000000000E+01 0.  1.
         25    2    1    2    0    0 -0.37847997044E+02  0.50879000234E+01 -0.11209267368E+03  0.17218777526E+03  0.12500201938E+03 0.  0.
         25    2    1    2    0    0  0.37847997044E+02 -0.50879000234E+01 -0.14778769500E+03  0.19726078419E+03  0.12494901591E+03 0.  0.
          5    1    3    3  502    0  0.54044344135E+01 -0.53560450729E+02 -0.68105520815E+02  0.86938954210E+02  0.47000000000E+01 0.  1.
         -5    1    3    3    0  502 -0.43252431457E+02  0.58648350752E+02 -0.43987152863E+02  0.85248821047E+02  0.47000000000E+01 0.  1.
          5    1    4    4  503    0 -0.20943571524E+01  0.56690451096E+02 -0.62911246074E+02  0.84841667003E+02  0.47000000000E+01 0.  1.
         -5    1    4    4    0  503  0.39942354196E+02 -0.61778351119E+02 -0.84876448926E+02  0.11241911718E+03  0.47000000000E+01 0.  1.
<mgrwt>
<rscale>  0 0.13069258E+03</rscale>
<asrwt>0</asrwt>
<pdfrwt beam="1">  1        5 0.84283226E-02 0.13070525E+03</pdfrwt>
<pdfrwt beam="2">  1       -5 0.48409916E-01 0.13070525E+03</pdfrwt>
<totfact> 0.31314568E+02</totfact>
</mgrwt>
</event>
<event>
 8    1  0.1865596E-007  0.1302939E+03  0.7546771E-02  0.1227028E+00
          5   -1    0    0  501    0  0.00000000000E+00  0.00000000000E+00  0.67922230295E+02  0.68084648551E+02  0.47000000000E+01 0. -1.
         -5   -1    0    0    0  501 -0.00000000000E+00 -0.00000000000E+00 -0.26875599776E+03  0.26879709138E+03  0.47000000000E+01 0. -1.
         25    2    1    2    0    0  0.40660958362E+01 -0.36454779173E+02 -0.14559355166E+03  0.19538164174E+03  0.12502407602E+03 0.  0.
         25    2    1    2    0    0 -0.40660958362E+01  0.36454779173E+02 -0.55240215807E+02  0.14150009819E+03  0.12500124913E+03 0.  0.
          5    1    3    3  502    0  0.32768884509E+02 -0.56537357127E+02 -0.14600913754E+03  0.16003446750E+03  0.47000000000E+01 0.  1.
         -5    1    3    3    0  502 -0.28702788673E+02  0.20082577954E+02  0.41558588335E+00  0.35347174236E+02  0.47000000000E+01 0.  1.
          5    1    4    4  503    0 -0.54817895379E+02  0.40261212314E+02 -0.27434117230E+01  0.68231834056E+02  0.47000000000E+01 0.  1.
         -5    1    4    4    0  503  0.50751799543E+02 -0.38064331402E+01 -0.52496804084E+02  0.73268264133E+02  0.47000000000E+01 0.  1.
<mgrwt>
<rscale>  0 0.13028844E+03</rscale>
<asrwt>0</asrwt>
<pdfrwt beam="1">  1        5 0.10465229E-01 0.13029391E+03</pdfrwt>
<pdfrwt beam="2">  1       -5 0.41362731E-01 0.13029391E+03</pdfrwt>
<totfact> 0.29802770E+02</totfact>
</mgrwt>
</event>
<event>
 8    1  0.1865596E-007  0.1336405E+03  0.7546771E-02  0.1222153E+00
         -5   -1    0    0    0  501 -0.00000000000E+00  0.00000000000E+00  0.33598664803E+03  0.33601951975E+03  0.47000000000E+01 0.  1.
          5   -1    0    0  501    0  0.00000000000E+00 -0.00000000000E+00 -0.56146253992E+02  0.56342628953E+02  0.47000000000E+01 0.  1.
         25    2    1    2    0    0 -0.16526739274E+02  0.44287190086E+02  0.18614575868E+03  0.22914923412E+03  0.12499855883E+03 0.  0.
         25    2    1    2    0    0  0.16526739274E+02 -0.44287190086E+02  0.93694635362E+02  0.16321291458E+03  0.12500112989E+03 0.  0.
          5    1    4    4  502    0 -0.51728459146E+02 -0.33510288650E+02  0.28393843110E+02  0.68022593729E+02  0.47000000000E+01 0.  1.
         -5    1    4    4    0  502  0.68255198420E+02 -0.10776901436E+02  0.65300792252E+02  0.95190320856E+02  0.47000000000E+01 0.  1.
          5    1    3    3  503    0 -0.47866955156E+02  0.56005383313E+01  0.16974888947E+03  0.17652021670E+03  0.47000000000E+01 0.  1.
         -5    1    3    3    0  503  0.31340215882E+02  0.38686651755E+02  0.16396869206E+02  0.52629017427E+02  0.47000000000E+01 0.  1.
<mgrwt>
<rscale>  0 0.13363985E+03</rscale>
<asrwt>0</asrwt>
<pdfrwt beam="2">  1        5 0.86555197E-02 0.13364045E+03</pdfrwt>
<pdfrwt beam="1">  1       -5 0.51707887E-01 0.13364045E+03</pdfrwt>
<totfact> 0.26221221E+02</totfact>
</mgrwt>
</event>
<event>
 8    1  0.1865596E-007  0.2421829E+03  0.7546771E-02  0.1118347E+00
         -5   -1    0    0    0  501 -0.00000000000E+00  0.00000000000E+00  0.38896895381E+03  0.38899734836E+03  0.47000000000E+01 0. -1.
          5   -1    0    0  501    0  0.00000000000E+00 -0.00000000000E+00 -0.17821062168E+03  0.17827258813E+03  0.47000000000E+01 0. -1.
         25    2    1    2    0    0  0.20267109908E+03 -0.44183658074E+02  0.21675126371E+03  0.32501334547E+03  0.12499917748E+03 0.  0.
         25    2    1    2    0    0 -0.20267109908E+03  0.44183658074E+02 -0.59929315828E+01  0.24225659102E+03  0.12499828247E+03 0.  0.
          5    1    4    4  502    0 -0.17672855450E+03  0.81087966643E+02 -0.18023748475E+02  0.19533352456E+03  0.47000000000E+01 0. -1.
         -5    1    4    4    0  502 -0.25942544581E+02 -0.36904308569E+02  0.12030816892E+02  0.46923066453E+02  0.47000000000E+01 0. -1.
          5    1    3    3  503    0 -0.53217716549E+01  0.22588191647E+02  0.21909659751E+02  0.32259430340E+02  0.47000000000E+01 0. -1.
         -5    1    3    3    0  503  0.20799287073E+03 -0.66771849721E+02  0.19484160396E+03  0.29275391513E+03  0.47000000000E+01 0. -1.
<mgrwt>
<rscale>  0 0.24218280E+03</rscale>
<asrwt>0</asrwt>
<pdfrwt beam="2">  1        5 0.27423970E-01 0.24218292E+03</pdfrwt>
<pdfrwt beam="1">  1       -5 0.59848328E-01 0.24218292E+03</pdfrwt>
<totfact> 0.27457273E+01</totfact>
</mgrwt>
</event>
<event>
 8    1  0.1865596E-007  0.1316424E+03  0.7546771E-02  0.1225045E+00
         -5   -1    0    0    0  501 -0.00000000000E+00  0.00000000000E+00  0.33086179438E+03  0.33089517522E+03  0.47000000000E+01 0. -1.
          5   -1    0    0  501    0  0.00000000000E+00 -0.00000000000E+00 -0.52271206881E+02  0.52482083312E+02  0.47000000000E+01 0. -1.
         25    2    1    2    0    0 -0.79706964336E+01 -0.40503622711E+02  0.13390985852E+03  0.18778068236E+03  0.12500263600E+03 0.  0.
         25    2    1    2    0    0  0.79706964336E+01  0.40503622711E+02  0.14468072899E+03  0.19559657617E+03  0.12498572644E+03 0.  0.
          5    1    4    4  502    0  0.62417170690E+02  0.30615748015E+02  0.10970803569E+03  0.12996603525E+03  0.47000000000E+01 0.  1.
         -5    1    4    4    0  502 -0.54446474256E+02  0.98878746961E+01  0.34972693298E+02  0.65630540920E+02  0.47000000000E+01 0.  1.
          5    1    3    3  503    0  0.29896419820E+02  0.16890732009E+02 -0.27067612927E+01  0.34763620389E+02  0.47000000000E+01 0. -1.
         -5    1    3    3    0  503 -0.37867116253E+02 -0.57394354721E+02  0.13661661981E+03  0.15301706197E+03  0.47000000000E+01 0. -1.
<mgrwt>
<rscale>  0 0.13163843E+03</rscale>
<asrwt>0</asrwt>
<pdfrwt beam="2">  1        5 0.80605132E-02 0.13164245E+03</pdfrwt>
<pdfrwt beam="1">  1       -5 0.50920603E-01 0.13164245E+03</pdfrwt>
<totfact> 0.30457810E+02</totfact>
</mgrwt>
</event>
<event>
 8    1  0.1865596E-007  0.1380052E+03  0.7546771E-02  0.1216040E+00
         -5   -1    0    0    0  501 -0.00000000000E+00  0.00000000000E+00  0.10210391164E+03  0.10221202851E+03  0.47000000000E+01 0. -1.
          5   -1    0    0  501    0  0.00000000000E+00 -0.00000000000E+00 -0.21937453875E+03  0.21942488066E+03  0.47000000000E+01 0. -1.
         25    2    1    2    0    0 -0.57786027273E+02  0.89790767416E+01  0.37968020379E+01  0.13805379193E+03  0.12499833996E+03 0.  0.
         25    2    1    2    0    0  0.57786027273E+02 -0.89790767416E+01 -0.12106742915E+03  0.18358311725E+03  0.12500235905E+03 0.  0.
          5    1    3    3  502    0 -0.91086511326E+02  0.31043193661E+02  0.11727710210E+02  0.97057001834E+02  0.47000000000E+01 0.  1.
         -5    1    3    3    0  502  0.33300484053E+02 -0.22064116920E+02 -0.79309081720E+01  0.40996790095E+02  0.47000000000E+01 0.  1.
          5    1    4    4  503    0 -0.20960938312E+02  0.38415252990E+02 -0.25310748480E+02  0.50772202886E+02  0.47000000000E+01 0.  1.
         -5    1    4    4    0  503  0.78746965585E+02 -0.47394329732E+02 -0.95756680672E+02  0.13281091436E+03  0.47000000000E+01 0.  1.
<mgrwt>
<rscale>  0 0.13800430E+03</rscale>
<asrwt>0</asrwt>
<pdfrwt beam="2">  1        5 0.33762118E-01 0.13800521E+03</pdfrwt>
<pdfrwt beam="1">  1       -5 0.15720483E-01 0.13800521E+03</pdfrwt>
<totfact> 0.22193285E+02</totfact>
</mgrwt>
</event>
<event>
 8    1  0.1865596E-007  0.1345539E+03  0.7546771E-02  0.1220858E+00
          5   -1    0    0  501    0  0.00000000000E+00  0.00000000000E+00  0.15143628577E+02  0.15856212867E+02  0.47000000000E+01 0.  1.
         -5   -1    0    0    0  501 -0.00000000000E+00 -0.00000000000E+00 -0.12276220958E+04  0.12276310928E+04  0.47000000000E+01 0.  1.
         25    2    1    2    0    0 -0.57858831299E+01  0.49414803560E+02 -0.74423153457E+03  0.75629711004E+03  0.12501776815E+03 0.  0.
         25    2    1    2    0    0  0.57858831299E+01 -0.49414803560E+02 -0.46824693264E+03  0.48719019565E+03  0.12499519012E+03 0.  0.
          5    1    4    4  502    0 -0.32242268585E+02  0.30030487345E+02 -0.11914674132E+03  0.12711974678E+03  0.47000000000E+01 0. -1.
         -5    1    4    4    0  502  0.38028151715E+02 -0.79445290905E+02 -0.34910019132E+03  0.36007044887E+03  0.47000000000E+01 0. -1.
          5    1    3    3  503    0 -0.37907118663E+02 -0.21969045537E+02 -0.13427758460E+03  0.14132285142E+03  0.47000000000E+01 0. -1.
         -5    1    3    3    0  503  0.32121235533E+02  0.71383849097E+02 -0.60995394997E+03  0.61497425862E+03  0.47000000000E+01 0. -1.
<mgrwt>
<rscale>  0 0.13454862E+03</rscale>
<asrwt>0</asrwt>
<pdfrwt beam="1">  1        5 0.23852962E-02 0.13455386E+03</pdfrwt>
<pdfrwt beam="2">  1       -5 0.18892037E+00 0.13455386E+03</pdfrwt>
<totfact> 0.90649247E+01</totfact>
</mgrwt>
</event>
<event>
 8    1  0.1865596E-007  0.2800328E+03  0.7546771E-02  0.1095672E+00
         -5   -1    0    0    0  501 -0.00000000000E+00  0.00000000000E+00  0.18886327512E+04  0.18886385993E+04  0.47000000000E+01 0. -1.
          5   -1    0    0  501    0  0.00000000000E+00 -0.00000000000E+00 -0.43286427642E+02  0.43540840805E+02  0.47000000000E+01 0. -1.
         25    2    1    2    0    0 -0.16567806104E+03 -0.18799556757E+03  0.11247136411E+04  0.11590495363E+04  0.12499399873E+03 0.  0.
         25    2    1    2    0    0  0.16567806104E+03  0.18799556757E+03  0.72063268247E+03  0.77312990388E+03  0.12500732736E+03 0.  0.
          5    1    4    4  502    0  0.12209886571E+03  0.87371779619E+02  0.26646439313E+03  0.30588776322E+03  0.47000000000E+01 0.  1.
         -5    1    4    4    0  502  0.43579195338E+02  0.10062378795E+03  0.45416828935E+03  0.46724214067E+03  0.47000000000E+01 0.  1.
          5    1    3    3  503    0 -0.63243344059E+02 -0.31761780599E+02  0.14204075143E+03  0.15876459411E+03  0.47000000000E+01 0.  1.
         -5    1    3    3    0  503 -0.10243471699E+03 -0.15623378697E+03  0.98267288964E+03  0.10002849421E+04  0.47000000000E+01 0.  1.
<mgrwt>
<rscale>  0 0.28003134E+03</rscale>
<asrwt>0</asrwt>
<pdfrwt beam="2">  1        5 0.66794706E-02 0.28003283E+03</pdfrwt>
<pdfrwt beam="1">  1       -5 0.29057890E+00 0.28003283E+03</pdfrwt>
<totfact> 0.42033354E+00</totfact>
</mgrwt>
</event>
<event>
 8    1  0.1865596E-007  0.1308699E+03  0.7546771E-02  0.1226177E+00
          5   -1    0    0  501    0  0.00000000000E+00  0.00000000000E+00  0.29315349384E+03  0.29319116793E+03  0.47000000000E+01 0. -1.
         -5   -1    0    0    0  501 -0.00000000000E+00 -0.00000000000E+00 -0.64495864141E+02  0.64666888678E+02  0.47000000000E+01 0. -1.
         25    2    1    2    0    0 -0.28493646565E+02 -0.26190896801E+02  0.58877743045E+02  0.14350445022E+03  0.12501634948E+03 0.  0.
         25    2    1    2    0    0  0.28493646565E+02  0.26190896801E+02  0.16977988665E+03  0.21435360638E+03  0.12499763072E+03 0.  0.
          5    1    4    4  502    0  0.89843491935E+00  0.74285125540E+02  0.10846573375E+03  0.13155224232E+03  0.47000000000E+01 0. -1.
         -5    1    4    4    0  502  0.27595211646E+02 -0.48094228740E+02  0.61314152901E+02  0.82801364058E+02  0.47000000000E+01 0. -1.
          5    1    3    3  503    0  0.25368379226E+02 -0.32050778692E+02  0.76056432472E+02  0.86472411784E+02  0.47000000000E+01 0.  1.
         -5    1    3    3    0  503 -0.53862025792E+02  0.58598818914E+01 -0.17178689427E+02  0.57032038440E+02  0.47000000000E+01 0.  1.
<mgrwt>
<rscale>  0 0.13086546E+03</rscale>
<asrwt>0</asrwt>
<pdfrwt beam="1">  1        5 0.45116591E-01 0.13086993E+03</pdfrwt>
<pdfrwt beam="2">  1       -5 0.99384944E-02 0.13086993E+03</pdfrwt>
<totfact> 0.27296413E+02</totfact>
</mgrwt>
</event>
<event>
 8    1  0.1865596E-007  0.1515462E+03  0.7546771E-02  0.1198587E+00
         -5   -1    0    0    0  501 -0.00000000000E+00  0.00000000000E+00  0.99639717474E+02  0.99750505254E+02  0.47000000000E+01 0. -1.
          5   -1    0    0  501    0  0.00000000000E+00 -0.00000000000E+00 -0.27902777553E+03  0.27906735660E+03  0.47000000000E+01 0. -1.
         25    2    1    2    0    0  0.36321595914E+02 -0.77593341989E+02 -0.10501447021E+02  0.15190965601E+03  0.12500511249E+03 0.  0.
         25    2    1    2    0    0 -0.36321595914E+02  0.77593341989E+02 -0.16888661104E+03  0.22690820584E+03  0.12499864575E+03 0.  0.
          5    1    3    3  502    0 -0.18450689485E+02  0.26260267506E+02  0.67863992898E+01  0.33138720665E+02  0.47000000000E+01 0. -1.
         -5    1    3    3    0  502  0.54772285399E+02 -0.10385360950E+03 -0.17287846311E+02  0.11877093535E+03  0.47000000000E+01 0. -1.
          5    1    4    4  503    0  0.36359742209E+02  0.16517722727E+02 -0.10485329606E+03  0.11229946444E+03  0.47000000000E+01 0.  1.
         -5    1    4    4    0  503 -0.72681338123E+02  0.61075619262E+02 -0.64033314975E+02  0.11460874140E+03  0.47000000000E+01 0.  1.
<mgrwt>
<rscale>  0 0.15154491E+03</rscale>
<asrwt>0</asrwt>
<pdfrwt beam="2">  1        5 0.42938917E-01 0.15154624E+03</pdfrwt>
<pdfrwt beam="1">  1       -5 0.15340754E-01 0.15154624E+03</pdfrwt>
<totfact> 0.14680503E+02</totfact>
</mgrwt>
</event>
<event>
 8    1  0.1865596E-007  0.1689200E+03  0.7546771E-02  0.1178979E+00
         -5   -1    0    0    0  501 -0.00000000000E+00  0.00000000000E+00  0.20483618472E+03  0.20489009876E+03  0.47000000000E+01 0.  1.
          5   -1    0    0  501    0  0.00000000000E+00 -0.00000000000E+00 -0.17483850698E+03  0.17490166816E+03  0.47000000000E+01 0.  1.
         25    2    1    2    0    0 -0.62127425269E+02 -0.95128391893E+02  0.10071814178E+03  0.19666749966E+03  0.12499893370E+03 0.  0.
         25    2    1    2    0    0  0.62127425269E+02  0.95128391893E+02 -0.70720464046E+02  0.18312426725E+03  0.12499554115E+03 0.  0.
          5    1    3    3  502    0 -0.24757485199E+02  0.29454205756E+02  0.23775752304E+02  0.45473725466E+02  0.47000000000E+01 0. -1.
         -5    1    3    3    0  502 -0.37369940070E+02 -0.12458259765E+03  0.76942389479E+02  0.15119377420E+03  0.47000000000E+01 0. -1.
          5    1    4    4  503    0  0.93323641230E+02  0.45989278119E+02 -0.20587263634E+02  0.10616139194E+03  0.47000000000E+01 0. -1.
         -5    1    4    4    0  503 -0.31196215961E+02  0.49139113774E+02 -0.50133200412E+02  0.76962875312E+02  0.47000000000E+01 0. -1.
<mgrwt>
<rscale>  0 0.16891936E+03</rscale>
<asrwt>0</asrwt>
<pdfrwt beam="2">  1        5 0.26907237E-01 0.16891999E+03</pdfrwt>
<pdfrwt beam="1">  1       -5 0.31522265E-01 0.16891999E+03</pdfrwt>
<totfact> 0.98947180E+01</totfact>
</mgrwt>
</event>
<event>
 8    1  0.1865596E-007  0.1515147E+03  0.7546771E-02  0.1198628E+00
          5   -1    0    0  501    0  0.00000000000E+00  0.00000000000E+00  0.48124920464E+02  0.48353882674E+02  0.47000000000E+01 0.  1.
         -5   -1    0    0    0  501 -0.00000000000E+00 -0.00000000000E+00 -0.53911427526E+03  0.53913476218E+03  0.47000000000E+01 0.  1.
         25    2    1    2    0    0  0.82136922619E+02  0.24113355213E+02 -0.34627663979E+03  0.37796902975E+03  0.12500059292E+03 0.  0.
         25    2    1    2    0    0 -0.82136922619E+02 -0.24113355213E+02 -0.14471271501E+03  0.20951961510E+03  0.12501508417E+03 0.  0.
          5    1    3    3  502    0  0.10776665705E+03 -0.92701645349E+01 -0.22964169538E+03  0.25388380527E+03  0.47000000000E+01 0. -1.
         -5    1    3    3    0  502 -0.25629734427E+02  0.33383519748E+02 -0.11663494441E+03  0.12408522448E+03  0.47000000000E+01 0. -1.
          5    1    4    4  503    0 -0.32840772096E+02 -0.29183264496E+02 -0.15282524662E+03  0.15908433374E+03  0.47000000000E+01 0.  1.
         -5    1    4    4    0  503 -0.49296150523E+02  0.50699092827E+01  0.81125316091E+01  0.50435281358E+02  0.47000000000E+01 0.  1.
<mgrwt>
<rscale>  0 0.15151169E+03</rscale>
<asrwt>0</asrwt>
<pdfrwt beam="1">  1        5 0.74230227E-02 0.15151468E+03</pdfrwt>
<pdfrwt beam="2">  1       -5 0.82959842E-01 0.15151468E+03</pdfrwt>
<totfact> 0.12405504E+02</totfact>
</mgrwt>
</event>
<event>
 8    1  0.1865596E-007  0.1389363E+03  0.7546771E-02  0.1214768E+00
          5   -1    0    0  501    0  0.00000000000E+00  0.00000000000E+00  0.21801966988E+03  0.21807032456E+03  0.47000000000E+01 0. -1.
         -5   -1    0    0    0  501 -0.00000000000E+00 -0.00000000000E+00 -0.16332554914E+03  0.16339316082E+03  0.47000000000E+01 0. -1.
         25    2    1    2    0    0 -0.50250153601E+02 -0.33961942063E+02 -0.10176629644E+03  0.17221924650E+03  0.12499839331E+03 0.  0.
         25    2    1    2    0    0  0.50250153601E+02  0.33961942063E+02  0.15646041718E+03  0.20924423888E+03  0.12499919166E+03 0.  0.
          5    1    4    4  502    0 -0.10202404626E+02  0.47378435276E+02  0.93750736349E+01  0.49586159309E+02  0.47000000000E+01 0.  1.
         -5    1    4    4    0  502  0.60452558228E+02 -0.13416493212E+02  0.14708534355E+03  0.15965807957E+03  0.47000000000E+01 0.  1.
          5    1    3    3  503    0 -0.64267174328E+02  0.28474324054E+02 -0.74405886386E+02  0.10246649577E+03  0.47000000000E+01 0. -1.
         -5    1    3    3    0  503  0.14017020726E+02 -0.62436266117E+02 -0.27360410055E+02  0.69752750734E+02  0.47000000000E+01 0. -1.
<mgrwt>
<rscale>  0 0.13893610E+03</rscale>
<asrwt>0</asrwt>
<pdfrwt beam="1">  1        5 0.33550585E-01 0.13893628E+03</pdfrwt>
<pdfrwt beam="2">  1       -5 0.25136105E-01 0.13893628E+03</pdfrwt>
<totfact> 0.93809262E+01</totfact>
</mgrwt>
</event>
<event>
 8    1  0.1865596E-007  0.1382977E+03  0.7546771E-02  0.1215641E+00
         -5   -1    0    0    0  501 -0.00000000000E+00  0.00000000000E+00  0.79445208246E+02  0.79584113447E+02  0.47000000000E+01 0. -1.
          5   -1    0    0  501    0  0.00000000000E+00 -0.00000000000E+00 -0.26137380936E+03  0.26141606343E+03  0.47000000000E+01 0. -1.
         25    2    1    2    0    0 -0.54343645564E+02 -0.23389040350E+02 -0.42637853689E+02  0.14472120647E+03  0.12500384799E+03 0.  0.
         25    2    1    2    0    0  0.54343645564E+02  0.23389040350E+02 -0.13929074743E+03  0.19627897041E+03  0.12499297134E+03 0.  0.
          5    1    3    3  502    0 -0.61393948067E+02  0.36833444395E+01 -0.77964301970E+02  0.99414819153E+02  0.47000000000E+01 0.  1.
         -5    1    3    3    0  502  0.70503025035E+01 -0.27072384789E+02  0.35326448282E+02  0.45306387317E+02  0.47000000000E+01 0.  1.
          5    1    4    4  503    0 -0.13343167914E+01  0.55562074606E+02 -0.11419878988E+03  0.12709200662E+03  0.47000000000E+01 0. -1.
         -5    1    4    4    0  503  0.55677962355E+02 -0.32173034256E+02 -0.25091957548E+02  0.69186963793E+02  0.47000000000E+01 0. -1.
<mgrwt>
<rscale>  0 0.13829520E+03</rscale>
<asrwt>0</asrwt>
<pdfrwt beam="2">  1        5 0.40225290E-01 0.13829765E+03</pdfrwt>
<pdfrwt beam="1">  1       -5 0.12236275E-01 0.13829765E+03</pdfrwt>
<totfact> 0.24456202E+02</totfact>
</mgrwt>
</event>
<event>
 8    1  0.1865596E-007  0.1331200E+03  0.7546771E-02  0.1222899E+00
          5   -1    0    0  501    0  0.00000000000E+00  0.00000000000E+00  0.11952099607E+02  0.12843001402E+02  0.47000000000E+01 0.  1.
         -5   -1    0    0    0  501 -0.00000000000E+00 -0.00000000000E+00 -0.14873741628E+04  0.14873815887E+04  0.47000000000E+01 0.  1.
         25    2    1    2    0    0 -0.80608667341E+01 -0.45049050340E+02 -0.88694492888E+03  0.89687868763E+03  0.12500271574E+03 0.  0.
         25    2    1    2    0    0  0.80608667341E+01  0.45049050340E+02 -0.58847713436E+03  0.60334590244E+03  0.12500618313E+03 0.  0.
          5    1    4    4  502    0 -0.10437376564E+02  0.72364850850E+02 -0.53732606850E+03  0.54229789264E+03  0.47000000000E+01 0. -1.
         -5    1    4    4    0  502  0.18498243298E+02 -0.27315800510E+02 -0.51151065857E+02  0.61048009803E+02  0.47000000000E+01 0. -1.
          5    1    3    3  503    0  0.27828902651E+02  0.26794866098E+02 -0.13080693433E+03  0.13647328215E+03  0.47000000000E+01 0.  1.
         -5    1    3    3    0  503 -0.35889769385E+02 -0.71843916438E+02 -0.75613799455E+03  0.76040540548E+03  0.47000000000E+01 0.  1.
<mgrwt>
<rscale>  0 0.13311921E+03</rscale>
<asrwt>0</asrwt>
<pdfrwt beam="1">  1        5 0.19078879E-02 0.13312002E+03</pdfrwt>
<pdfrwt beam="2">  1       -5 0.22889576E+00 0.13312002E+03</pdfrwt>
<totfact> 0.69894916E+01</totfact>
</mgrwt>
</event>
<event>
 8    1  0.1865596E-007  0.1408533E+03  0.7546771E-02  0.1212187E+00
         -5   -1    0    0    0  501 -0.00000000000E+00  0.00000000000E+00  0.13752957081E+04  0.13753037391E+04  0.47000000000E+01 0.  1.
          5   -1    0    0  501    0  0.00000000000E+00 -0.00000000000E+00 -0.14059262480E+02  0.14824063596E+02  0.47000000000E+01 0.  1.
         25    2    1    2    0    0  0.14638197856E+02 -0.63238705160E+02  0.70919864781E+03  0.72304987959E+03  0.12499998261E+03 0.  0.
         25    2    1    2    0    0 -0.14638197856E+02  0.63238705160E+02  0.65203779780E+03  0.66707792308E+03  0.12500502000E+03 0.  0.
          5    1    3    3  502    0 -0.22347480305E+02  0.31280966019E+02  0.22443368904E+03  0.22775091545E+03  0.47000000000E+01 0.  1.
         -5    1    3    3    0  502  0.36985678161E+02 -0.94519671180E+02  0.48476495876E+03  0.49529896414E+03  0.47000000000E+01 0.  1.
          5    1    4    4  503    0  0.27327190764E+02 -0.17525504836E+02  0.62969576718E+02  0.71001241305E+02  0.47000000000E+01 0. -1.
         -5    1    4    4    0  503 -0.41965388619E+02  0.80764209997E+02  0.58906822109E+03  0.59607668177E+03  0.47000000000E+01 0. -1.
<mgrwt>
<rscale>  0 0.14085223E+03</rscale>
<asrwt>0</asrwt>
<pdfrwt beam="2">  1        5 0.22224117E-02 0.14085335E+03</pdfrwt>
<pdfrwt beam="1">  1       -5 0.21164344E+00 0.14085335E+03</pdfrwt>
<totfact> 0.72211717E+01</totfact>
</mgrwt>
</event>
<event>
 8    1  0.1865596E-007  0.1660349E+03  0.7546771E-02  0.1182048E+00
          5   -1    0    0  501    0  0.00000000000E+00  0.00000000000E+00  0.37683395217E+03  0.37686326102E+03  0.47000000000E+01 0.  1.
         -5   -1    0    0    0  501 -0.00000000000E+00 -0.00000000000E+00 -0.78219409214E+02  0.78360487350E+02  0.47000000000E+01 0.  1.
         25    2    1    2    0    0  0.10899931210E+03  0.78379532494E+01  0.90843783574E+02  0.18926224438E+03  0.12500128234E+03 0.  0.
         25    2    1    2    0    0 -0.10899931210E+03 -0.78379532494E+01  0.20777075938E+03  0.26596150398E+03  0.12499819838E+03 0.  0.
          5    1    4    4  502    0 -0.72330056930E+02  0.17095337774E+02  0.20846192046E+03  0.22136474424E+03  0.47000000000E+01 0. -1.
         -5    1    4    4    0  502 -0.36669255174E+02 -0.24933291023E+02 -0.69116108137E+00  0.44596759747E+02  0.47000000000E+01 0. -1.
          5    1    3    3  503    0 -0.16111705589E+02  0.27617418338E+02 -0.16368810434E+01  0.32358588229E+02  0.47000000000E+01 0.  1.
         -5    1    3    3    0  503  0.12511101769E+03 -0.19779465088E+02  0.92480664617E+02  0.15690365616E+03  0.47000000000E+01 0.  1.
<mgrwt>
<rscale>  0 0.16603437E+03</rscale>
<asrwt>0</asrwt>
<pdfrwt beam="1">  1        5 0.57987561E-01 0.16603495E+03</pdfrwt>
<pdfrwt beam="2">  1       -5 0.12046862E-01 0.16603495E+03</pdfrwt>
<totfact> 0.12316977E+02</totfact>
</mgrwt>
</event>
<event>
 8    1  0.1865596E-007  0.1618147E+03  0.7546771E-02  0.1186665E+00
         -5   -1    0    0    0  501 -0.00000000000E+00  0.00000000000E+00  0.22453694645E+03  0.22458613118E+03  0.47000000000E+01 0. -1.
          5   -1    0    0  501    0  0.00000000000E+00 -0.00000000000E+00 -0.11799309774E+03  0.11808666781E+03  0.47000000000E+01 0. -1.
         25    2    1    2    0    0 -0.31216701465E+02 -0.97897867702E+02  0.72536698874E+02  0.17732902973E+03  0.12500214858E+03 0.  0.
         25    2    1    2    0    0  0.31216701465E+02  0.97897867702E+02  0.34007149838E+02  0.16534376926E+03  0.12499440324E+03 0.  0.
          5    1    4    4  502    0 -0.17630556674E+02  0.10534161662E+03  0.32644824768E+01  0.10695999050E+03  0.47000000000E+01 0. -1.
         -5    1    4    4    0  502  0.48847258140E+02 -0.74437489225E+01  0.30742667362E+02  0.58383778760E+02  0.47000000000E+01 0. -1.
          5    1    3    3  503    0 -0.20389551930E+02  0.27384178946E+02  0.25968741489E+02  0.43151971206E+02  0.47000000000E+01 0.  1.
         -5    1    3    3    0  503 -0.10827149535E+02 -0.12528204665E+03  0.46567957385E+02  0.13417705852E+03  0.47000000000E+01 0.  1.
<mgrwt>
<rscale>  0 0.16181325E+03</rscale>
<asrwt>0</asrwt>
<pdfrwt beam="2">  1        5 0.18163765E-01 0.16181475E+03</pdfrwt>
<pdfrwt beam="1">  1       -5 0.34555127E-01 0.16181475E+03</pdfrwt>
<totfact> 0.17124224E+02</totfact>
</mgrwt>
</event>
<event>
 8    1  0.1865596E-007  0.1406019E+03  0.7546771E-02  0.1212529E+00
          5   -1    0    0  501    0  0.00000000000E+00  0.00000000000E+00  0.60080658412E+02  0.60264214218E+02  0.47000000000E+01 0. -1.
         -5   -1    0    0    0  501 -0.00000000000E+00 -0.00000000000E+00 -0.33074402795E+03  0.33077742067E+03  0.47000000000E+01 0. -1.
         25    2    1    2    0    0 -0.31947570181E+02  0.55827956401E+02 -0.15220450069E+03  0.20720789764E+03  0.12502597673E+03 0.  0.
         25    2    1    2    0    0  0.31947570181E+02 -0.55827956401E+02 -0.11845886885E+03  0.18383373725E+03  0.12499972554E+03 0.  0.
          5    1    3    3  502    0 -0.77756924613E+02  0.32633128868E+02 -0.11883410949E+03  0.14578990364E+03  0.47000000000E+01 0. -1.
         -5    1    3    3    0  502  0.45809354432E+02  0.23194827532E+02 -0.33370391197E+02  0.61417993995E+02  0.47000000000E+01 0. -1.
          5    1    4    4  503    0  0.61976740550E+01  0.39376211829E+02 -0.21867722336E+02  0.45707597858E+02  0.47000000000E+01 0.  1.
         -5    1    4    4    0  503  0.25749896126E+02 -0.95204168230E+02 -0.96591146510E+02  0.13812613939E+03  0.47000000000E+01 0.  1.
<mgrwt>
<rscale>  0 0.14059609E+03</rscale>
<asrwt>0</asrwt>
<pdfrwt beam="1">  1        5 0.92598667E-02 0.14060193E+03</pdfrwt>
<pdfrwt beam="2">  1       -5 0.50900384E-01 0.14060193E+03</pdfrwt>
<totfact> 0.24545832E+02</totfact>
</mgrwt>
</event>
<event>
 8    1  0.1865596E-007  0.1300477E+03  0.7546771E-02  0.1227386E+00
         -5   -1    0    0    0  501 -0.00000000000E+00  0.00000000000E+00  0.77975403330E+02  0.78116922139E+02  0.47000000000E+01 0.  1.
          5   -1    0    0  501    0  0.00000000000E+00 -0.00000000000E+00 -0.23649349862E+03  0.23654019719E+03  0.47000000000E+01 0.  1.
         25    2    1    2    0    0  0.23952775489E+02 -0.26700291360E+02 -0.33560457600E+02  0.13430518148E+03  0.12499974578E+03 0.  0.
         25    2    1    2    0    0 -0.23952775489E+02  0.26700291360E+02 -0.12495763769E+03  0.18035193785E+03  0.12500307699E+03 0.  0.
          5    1    4    4  502    0 -0.56701935493E+02  0.27776677434E+02 -0.13209867252E+03  0.14648823359E+03  0.47000000000E+01 0.  1.
         -5    1    4    4    0  502  0.32749160004E+02 -0.10763860740E+01  0.71410348329E+01  0.33863704263E+02  0.47000000000E+01 0.  1.
          5    1    3    3  503    0 -0.21089194781E+02 -0.26396787557E+02 -0.68886032988E+02  0.76869500263E+02  0.47000000000E+01 0.  1.
         -5    1    3    3    0  503  0.45041970270E+02 -0.30350380289E+00  0.35325575389E+02  0.57435681217E+02  0.47000000000E+01 0.  1.
<mgrwt>
<rscale>  0 0.13004692E+03</rscale>
<asrwt>0</asrwt>
<pdfrwt beam="2">  1        5 0.36398093E-01 0.13004772E+03</pdfrwt>
<pdfrwt beam="1">  1       -5 0.12010694E-01 0.13004772E+03</pdfrwt>
<totfact> 0.30309852E+02</totfact>
</mgrwt>
</event>
<event>
 8    1  0.1865596E-007  0.1297977E+03  0.7546771E-02  0.1227757E+00
         -5   -1    0    0    0  501 -0.00000000000E+00  0.00000000000E+00  0.76580745352E+03  0.76582187607E+03  0.47000000000E+01 0. -1.
          5   -1    0    0  501    0  0.00000000000E+00 -0.00000000000E+00 -0.22956229297E+02  0.23432423339E+02  0.47000000000E+01 0. -1.
         25    2    1    2    0    0  0.23167284119E+02 -0.26172647171E+02  0.46151825818E+03  0.47942315143E+03  0.12500289991E+03 0.  0.
         25    2    1    2    0    0 -0.23167284119E+02  0.26172647171E+02  0.28133296604E+03  0.30983114797E+03  0.12500148782E+03 0.  0.
          5    1    4    4  502    0  0.49428974857E+01  0.68896726285E+01  0.27459593152E+03  0.27476702027E+03  0.47000000000E+01 0. -1.
         -5    1    4    4    0  502 -0.28110181604E+02  0.19282974542E+02  0.67370345252E+01  0.35064127698E+02  0.47000000000E+01 0. -1.
          5    1    3    3  503    0  0.73976933580E+02 -0.82491148105E+01  0.23570711579E+03  0.24722574509E+03  0.47000000000E+01 0. -1.
         -5    1    3    3    0  503 -0.50809649462E+02 -0.17923532360E+02  0.22581114238E+03  0.23219740635E+03  0.47000000000E+01 0. -1.
<mgrwt>
<rscale>  0 0.12979741E+03</rscale>
<asrwt>0</asrwt>
<pdfrwt beam="2">  1        5 0.35694672E-02 0.12979775E+03</pdfrwt>
<pdfrwt beam="1">  1       -5 0.11785428E+00 0.12979775E+03</pdfrwt>
<totfact> 0.17033674E+02</totfact>
</mgrwt>
</event>
<event>
 8    1  0.1865596E-007  0.1573926E+03  0.7546771E-02  0.1191679E+00
          5   -1    0    0  501    0  0.00000000000E+00  0.00000000000E+00  0.63701775143E+03  0.63703508980E+03  0.47000000000E+01 0.  1.
         -5   -1    0    0    0  501 -0.00000000000E+00 -0.00000000000E+00 -0.48942552670E+02  0.49167707511E+02  0.47000000000E+01 0.  1.
         25    2    1    2    0    0 -0.71664675752E+02  0.63333525289E+02  0.13770366901E+03  0.20912853472E+03  0.12500192958E+03 0.  0.
         25    2    1    2    0    0  0.71664675752E+02 -0.63333525289E+02  0.45037152975E+03  0.47707426259E+03  0.12497350136E+03 0.  0.
          5    1    3    3  502    0 -0.89265591492E+02  0.85250688479E+02  0.87416137409E+02  0.15132645767E+03  0.47000000000E+01 0.  1.
         -5    1    3    3    0  502  0.17600915740E+02 -0.21917163190E+02  0.50287531602E+02  0.57802077055E+02  0.47000000000E+01 0.  1.
          5    1    4    4  503    0  0.62897579604E+02 -0.53771199778E+02  0.45502543774E+03  0.46251236355E+03  0.47000000000E+01 0. -1.
         -5    1    4    4    0  503  0.87670961481E+01 -0.95623255110E+01 -0.46539079922E+01  0.14561899040E+02  0.47000000000E+01 0. -1.
<mgrwt>
<rscale>  0 0.15738700E+03</rscale>
<asrwt>0</asrwt>
<pdfrwt beam="1">  1        5 0.98021381E-01 0.15739264E+03</pdfrwt>
<pdfrwt beam="2">  1       -5 0.75482771E-02 0.15739264E+03</pdfrwt>
<totfact> 0.82021881E+01</totfact>
</mgrwt>
</event>
<event>
 8    1  0.1865596E-007  0.1257012E+03  0.7546771E-02  0.1233980E+00
          5   -1    0    0  501    0  0.00000000000E+00  0.00000000000E+00  0.17274200672E+03  0.17280593417E+03  0.47000000000E+01 0. -1.
         -5   -1    0    0    0  501 -0.00000000000E+00 -0.00000000000E+00 -0.13516391703E+03  0.13524560794E+03  0.47000000000E+01 0. -1.
         25    2    1    2    0    0  0.62824808808E+01  0.11644947827E+02 -0.68876043349E+02  0.14332977054E+03  0.12499775758E+03 0.  0.
         25    2    1    2    0    0 -0.62824808808E+01 -0.11644947827E+02  0.10645413304E+03  0.16472177157E+03  0.12500282081E+03 0.  0.
          5    1    3    3  502    0 -0.62830272044E+01 -0.53182912389E+01 -0.10272508085E+03  0.10316148936E+03  0.47000000000E+01 0.  1.
         -5    1    3    3    0  502  0.12565508085E+02  0.16963239066E+02  0.33849037499E+02  0.40168281177E+02  0.47000000000E+01 0.  1.
          5    1    4    4  503    0  0.47454003628E+02  0.23502224296E+02  0.19717265169E+02  0.56701830243E+02  0.47000000000E+01 0.  1.
         -5    1    4    4    0  503 -0.53736484509E+02 -0.35147172123E+02  0.86736867872E+02  0.10801994133E+03  0.47000000000E+01 0.  1.
<mgrwt>
<rscale>  0 0.12569989E+03</rscale>
<asrwt>0</asrwt>
<pdfrwt beam="1">  1        5 0.26586895E-01 0.12570115E+03</pdfrwt>
<pdfrwt beam="2">  1       -5 0.20805650E-01 0.12570115E+03</pdfrwt>
<totfact> 0.20464715E+02</totfact>
</mgrwt>
</event>
<event>
 8    1  0.1865596E-007  0.1257357E+03  0.7546771E-02  0.1233926E+00
          5   -1    0    0  501    0  0.00000000000E+00  0.00000000000E+00  0.41023420050E+03  0.41026112326E+03  0.47000000000E+01 0.  1.
         -5   -1    0    0    0  501 -0.00000000000E+00 -0.00000000000E+00 -0.39506733737E+02  0.39785324061E+02  0.47000000000E+01 0.  1.
         25    2    1    2    0    0  0.18813255970E+00  0.13578581749E+02  0.14725542754E+03  0.19363273108E+03  0.12500024133E+03 0.  0.
         25    2    1    2    0    0 -0.18813255970E+00 -0.13578581749E+02  0.22347203922E+03  0.25641371624E+03  0.12499531304E+03 0.  0.
          5    1    4    4  502    0  0.51655787885E+02 -0.41212412884E+02  0.10629361566E+03  0.12524857735E+03  0.47000000000E+01 0.  1.
         -5    1    4    4    0  502 -0.51843920445E+02  0.27633831135E+02  0.11717842357E+03  0.13116513889E+03  0.47000000000E+01 0.  1.
          5    1    3    3  503    0 -0.43513313298E+02 -0.36650727783E+02  0.84797191174E+02  0.10222200307E+03  0.47000000000E+01 0. -1.
         -5    1    3    3    0  503  0.43701445858E+02  0.50229309532E+02  0.62458236362E+02  0.91410728012E+02  0.47000000000E+01 0. -1.
<mgrwt>
<rscale>  0 0.12573450E+03</rscale>
<asrwt>0</asrwt>
<pdfrwt beam="1">  1        5 0.63136452E-01 0.12573573E+03</pdfrwt>
<pdfrwt beam="2">  1       -5 0.61014603E-02 0.12573573E+03</pdfrwt>
<totfact> 0.30169483E+02</totfact>
</mgrwt>
</event>
<event>
 8    1  0.1865596E-007  0.1261249E+03  0.7546771E-02  0.1233322E+00
         -5   -1    0    0    0  501 -0.00000000000E+00  0.00000000000E+00  0.14985569128E+04  0.14985642832E+04  0.47000000000E+01 0. -1.
          5   -1    0    0  501    0  0.00000000000E+00 -0.00000000000E+00 -0.10233521423E+02  0.11261214887E+02  0.47000000000E+01 0. -1.
         25    2    1    2    0    0 -0.11284116229E+02  0.12452181820E+02  0.83018835699E+03  0.83971435437E+03  0.12500040299E+03 0.  0.
         25    2    1    2    0    0  0.11284116229E+02 -0.12452181820E+02  0.65813503443E+03  0.67011114376E+03  0.12499933336E+03 0.  0.
          5    1    4    4  502    0  0.51568756992E+01 -0.51895434924E+02  0.57891861891E+03  0.58128184803E+03  0.47000000000E+01 0.  1.
         -5    1    4    4    0  502  0.61272405299E+01  0.39443253104E+02  0.79216415519E+02  0.88829295728E+02  0.47000000000E+01 0.  1.
          5    1    3    3  503    0 -0.60528877021E+02 -0.48925315206E+01  0.62404046512E+03  0.62700580055E+03  0.47000000000E+01 0.  1.
         -5    1    3    3    0  503  0.49244760792E+02  0.17344713341E+02  0.20614789187E+03  0.21270855382E+03  0.47000000000E+01 0.  1.
<mgrwt>
<rscale>  0 0.12612463E+03</rscale>
<asrwt>0</asrwt>
<pdfrwt beam="2">  1        5 0.16540093E-02 0.12612489E+03</pdfrwt>
<pdfrwt beam="1">  1       -5 0.23062668E+00 0.12612489E+03</pdfrwt>
<totfact> 0.83950387E+01</totfact>
</mgrwt>
</event>
<event>
 8    1  0.1865596E-007  0.1673479E+03  0.7546771E-02  0.1180649E+00
          5   -1    0    0  501    0  0.00000000000E+00  0.00000000000E+00  0.17798564620E+03  0.17804769095E+03  0.47000000000E+01 0. -1.
         -5   -1    0    0    0  501 -0.00000000000E+00 -0.00000000000E+00 -0.16146213365E+03  0.16153052530E+03  0.47000000000E+01 0. -1.
         25    2    1    2    0    0 -0.10089192724E+03 -0.46827805097E+02 -0.19320265958E+02  0.16845945566E+03  0.12503316045E+03 0.  0.
         25    2    1    2    0    0  0.10089192724E+03  0.46827805097E+02  0.35843778508E+02  0.17111876058E+03  0.12499931780E+03 0.  0.
          5    1    4    4  502    0 -0.15268302198E+02  0.32982738002E+01 -0.27332445317E+02  0.31830052295E+02  0.47000000000E+01 0. -1.
         -5    1    4    4    0  502  0.11616022944E+03  0.43529531297E+02  0.63176223825E+02  0.13928870829E+03  0.47000000000E+01 0. -1.
          5    1    3    3  503    0 -0.37813541988E+02  0.25544510544E+02 -0.49718230738E+02  0.67648935279E+02  0.47000000000E+01 0. -1.
         -5    1    3    3    0  503 -0.63078385255E+02 -0.72372315642E+02  0.30397964779E+02  0.10081052039E+03  0.47000000000E+01 0. -1.
<mgrwt>
<rscale>  0 0.16734157E+03</rscale>
<asrwt>0</asrwt>
<pdfrwt beam="1">  1        5 0.27392441E-01 0.16734789E+03</pdfrwt>
<pdfrwt beam="2">  1       -5 0.24850362E-01 0.16734789E+03</pdfrwt>
<totfact> 0.15159251E+02</totfact>
</mgrwt>
</event>
<event>
 8    1  0.1865596E-007  0.1331861E+03  0.7546771E-02  0.1222810E+00
         -5   -1    0    0    0  501 -0.00000000000E+00  0.00000000000E+00  0.18596773938E+03  0.18602712192E+03  0.47000000000E+01 0. -1.
          5   -1    0    0  501    0  0.00000000000E+00 -0.00000000000E+00 -0.10558487879E+03  0.10568943480E+03  0.47000000000E+01 0. -1.
         25    2    1    2    0    0 -0.36126318003E+02  0.28428665480E+02  0.85810101508E+02  0.15841990184E+03  0.12498076614E+03 0.  0.
         25    2    1    2    0    0  0.36126318003E+02 -0.28428665480E+02 -0.54272409167E+01  0.13329665489E+03  0.12500097354E+03 0.  0.
          5    1    4    4  502    0 -0.29518367941E+02 -0.14873511509E+02  0.40064189642E+02  0.52151554935E+02  0.47000000000E+01 0.  1.
         -5    1    4    4    0  502  0.65644685944E+02 -0.13555153971E+02 -0.45491430559E+02  0.81145099951E+02  0.47000000000E+01 0.  1.
          5    1    3    3  503    0 -0.41312362062E+02 -0.96660946780E+01 -0.18967960394E+02  0.46712077314E+02  0.47000000000E+01 0. -1.
         -5    1    3    3    0  503  0.51860440592E+01  0.38094760158E+02  0.10477806190E+03  0.11170782453E+03  0.47000000000E+01 0. -1.
<mgrwt>
<rscale>  0 0.13318138E+03</rscale>
<asrwt>0</asrwt>
<pdfrwt beam="2">  1        5 0.16256438E-01 0.13318612E+03</pdfrwt>
<pdfrwt beam="1">  1       -5 0.28623032E-01 0.13318612E+03</pdfrwt>
<totfact> 0.28564864E+02</totfact>
</mgrwt>
</event>
<event>
 8    1  0.1865596E-007  0.1280935E+03  0.7546771E-02  0.1230322E+00
         -5   -1    0    0    0  501 -0.00000000000E+00  0.00000000000E+00  0.22104341529E+03  0.22109337720E+03  0.47000000000E+01 0.  1.
          5   -1    0    0  501    0  0.00000000000E+00 -0.00000000000E+00 -0.77907061910E+02  0.78048704637E+02  0.47000000000E+01 0.  1.
         25    2    1    2    0    0  0.24503379607E+02  0.13256505461E+02  0.10466500496E+03  0.16539609436E+03  0.12499981687E+03 0.  0.
         25    2    1    2    0    0 -0.24503379607E+02 -0.13256505461E+02  0.38471348418E+02  0.13374598748E+03  0.12502717292E+03 0.  0.
          5    1    3    3  502    0 -0.17687517653E+02  0.14927970775E+02  0.11841067794E+03  0.12074299666E+03  0.47000000000E+01 0. -1.
         -5    1    3    3    0  502  0.42190897261E+02 -0.16714653138E+01 -0.13745672985E+02  0.44653097695E+02  0.47000000000E+01 0. -1.
          5    1    4    4  503    0 -0.49424848448E+02  0.15162418318E+02 -0.26612653452E+02  0.58335562885E+02  0.47000000000E+01 0.  1.
         -5    1    4    4    0  503  0.24921468841E+02 -0.28418923779E+02  0.65084001870E+02  0.75410424593E+02  0.47000000000E+01 0.  1.
<mgrwt>
<rscale>  0 0.12808682E+03</rscale>
<asrwt>0</asrwt>
<pdfrwt beam="2">  1        5 0.12000441E-01 0.12809350E+03</pdfrwt>
<pdfrwt beam="1">  1       -5 0.34021418E-01 0.12809350E+03</pdfrwt>
<totfact> 0.34562136E+02</totfact>
</mgrwt>
</event>
<event>
 8    1  0.1865596E-007  0.1277241E+03  0.7546771E-02  0.1230882E+00
          5   -1    0    0  501    0  0.00000000000E+00  0.00000000000E+00  0.76294123766E+03  0.76295571439E+03  0.47000000000E+01 0. -1.
         -5   -1    0    0    0  501 -0.00000000000E+00 -0.00000000000E+00 -0.26313202566E+02  0.26729658234E+02  0.47000000000E+01 0. -1.
         25    2    1    2    0    0  0.21477222658E+01  0.26066830162E+02  0.19426283592E+03  0.23248977555E+03  0.12501741467E+03 0.  0.
         25    2    1    2    0    0 -0.21477222658E+01 -0.26066830162E+02  0.54236519918E+03  0.55719559708E+03  0.12499132680E+03 0.  0.
          5    1    4    4  502    0 -0.13099057144E+02 -0.74234122306E+02  0.37936325365E+03  0.38680855527E+03  0.47000000000E+01 0. -1.
         -5    1    4    4    0  502  0.10951334878E+02  0.48167292143E+02  0.16300194553E+03  0.17038704181E+03  0.47000000000E+01 0. -1.
          5    1    3    3  503    0 -0.44100688927E+02  0.56273695599E+02  0.97909900673E+02  0.12132616466E+03  0.47000000000E+01 0. -1.
         -5    1    3    3    0  503  0.46248411193E+02 -0.30206865437E+02  0.96352935242E+02  0.11116361089E+03  0.47000000000E+01 0. -1.
<mgrwt>
<rscale>  0 0.12771772E+03</rscale>
<asrwt>0</asrwt>
<pdfrwt beam="1">  1        5 0.11740870E+00 0.12772410E+03</pdfrwt>
<pdfrwt beam="2">  1       -5 0.40813345E-02 0.12772410E+03</pdfrwt>
<totfact> 0.13739933E+02</totfact>
</mgrwt>
</event>
<event>
 8    1  0.1865596E-007  0.1884254E+03  0.7546771E-02  0.1159890E+00
          5   -1    0    0  501    0  0.00000000000E+00  0.00000000000E+00  0.38570263767E+03  0.38573127266E+03  0.47000000000E+01 0.  1.
         -5   -1    0    0    0  501 -0.00000000000E+00 -0.00000000000E+00 -0.93948004977E+02  0.94065496540E+02  0.47000000000E+01 0.  1.
         25    2    1    2    0    0  0.98128467644E+01 -0.14064816830E+03  0.11098029662E+03  0.21867956598E+03  0.12500370847E+03 0.  0.
         25    2    1    2    0    0 -0.98128467644E+01  0.14064816830E+03  0.18077433607E+03  0.26111720321E+03  0.12499853610E+03 0.  0.
          5    1    3    3  502    0  0.17382549413E+02 -0.79977233574E+01  0.79700881422E+02  0.82100165058E+02  0.47000000000E+01 0.  1.
         -5    1    3    3    0  502 -0.75697026488E+01 -0.13265044494E+03  0.31279415201E+02  0.13657940092E+03  0.47000000000E+01 0.  1.
          5    1    4    4  503    0 -0.34307181737E+02 -0.84793657810E+01  0.48716033902E+02  0.60367411092E+02  0.47000000000E+01 0.  1.
         -5    1    4    4    0  503  0.24494334972E+02  0.14912753408E+03  0.13205830217E+03  0.20074979212E+03  0.47000000000E+01 0.  1.
<mgrwt>
<rscale>  0 0.18842453E+03</rscale>
<asrwt>0</asrwt>
<pdfrwt beam="1">  1        5 0.59350108E-01 0.18842539E+03</pdfrwt>
<pdfrwt beam="2">  1       -5 0.14464780E-01 0.18842539E+03</pdfrwt>
<totfact> 0.87444583E+01</totfact>
</mgrwt>
</event>
<event>
 8    1  0.1865596E-007  0.1250509E+03  0.7546771E-02  0.1235008E+00
          5   -1    0    0  501    0  0.00000000000E+00  0.00000000000E+00  0.32909204144E+02  0.33243130379E+02  0.47000000000E+01 0.  1.
         -5   -1    0    0    0  501 -0.00000000000E+00 -0.00000000000E+00 -0.55957278346E+03  0.55959252138E+03  0.47000000000E+01 0.  1.
         25    2    1    2    0    0  0.80707305370E+00  0.82654481510E+00 -0.38042353706E+03  0.40044949587E+03  0.12504557829E+03 0.  0.
         25    2    1    2    0    0 -0.80707305370E+00 -0.82654481510E+00 -0.14624004226E+03  0.19238615589E+03  0.12499979391E+03 0.  0.
          5    1    3    3  502    0 -0.46654015826E+02 -0.34283283259E+02 -0.25794246511E+03  0.26440186461E+03  0.47000000000E+01 0.  1.
         -5    1    3    3    0  502  0.47461088880E+02  0.35109828074E+02 -0.12248107195E+03  0.13604763126E+03  0.47000000000E+01 0.  1.
          5    1    4    4  503    0  0.11814496246E+02 -0.61003004641E+02 -0.61198196728E+02  0.87339900272E+02  0.47000000000E+01 0.  1.
         -5    1    4    4    0  503 -0.12621569300E+02  0.60176459826E+02 -0.85041845528E+02  0.10504625562E+03  0.47000000000E+01 0.  1.
<mgrwt>
<rscale>  0 0.12503947E+03</rscale>
<asrwt>0</asrwt>
<pdfrwt beam="1">  1        5 0.50901598E-02 0.12505091E+03</pdfrwt>
<pdfrwt beam="2">  1       -5 0.86115318E-01 0.12505091E+03</pdfrwt>
<totfact> 0.20127986E+02</totfact>
</mgrwt>
</event>
<event>
 8    1  0.1865596E-007  0.1453586E+03  0.7546771E-02  0.1206298E+00
          5   -1    0    0  501    0  0.00000000000E+00  0.00000000000E+00  0.18735227353E+03  0.18741121737E+03  0.47000000000E+01 0.  1.
         -5   -1    0    0    0  501 -0.00000000000E+00 -0.00000000000E+00 -0.11515691139E+03  0.11525278409E+03  0.47000000000E+01 0.  1.
         25    2    1    2    0    0 -0.71292603418E+02 -0.20492621955E+02  0.58437615259E+02  0.15665576240E+03  0.12499396049E+03 0.  0.
         25    2    1    2    0    0  0.71292603418E+02  0.20492621955E+02  0.13757746883E+02  0.14600823906E+03  0.12500618952E+03 0.  0.
          5    1    4    4  502    0  0.36209756706E+02  0.52350797608E+02  0.54042516959E+02  0.83632745562E+02  0.47000000000E+01 0.  1.
         -5    1    4    4    0  502  0.35082846712E+02 -0.31858175653E+02 -0.40284770076E+02  0.62375493500E+02  0.47000000000E+01 0.  1.
          5    1    3    3  503    0  0.18639962163E+02 -0.17364276167E+02  0.61249470816E+02  0.66502285310E+02  0.47000000000E+01 0.  1.
         -5    1    3    3    0  503 -0.89932565580E+02 -0.31283457879E+01 -0.28118555577E+01  0.90153477087E+02  0.47000000000E+01 0.  1.
<mgrwt>
<rscale>  0 0.14535600E+03</rscale>
<asrwt>0</asrwt>
<pdfrwt beam="1">  1        5 0.28835335E-01 0.14535863E+03</pdfrwt>
<pdfrwt beam="2">  1       -5 0.17728357E-01 0.14535863E+03</pdfrwt>
<totfact> 0.24743024E+02</totfact>
</mgrwt>
</event>
<event>
 8    1  0.1865596E-007  0.1357319E+03  0.7546771E-02  0.1219191E+00
          5   -1    0    0  501    0  0.00000000000E+00  0.00000000000E+00  0.41113158416E+03  0.41115844816E+03  0.47000000000E+01 0. -1.
         -5   -1    0    0    0  501 -0.00000000000E+00 -0.00000000000E+00 -0.45140301417E+02  0.45384323417E+02  0.47000000000E+01 0. -1.
         25    2    1    2    0    0  0.52557282486E+02 -0.59521247002E+01  0.15948039312E+03  0.20942095847E+03  0.12500178529E+03 0.  0.
         25    2    1    2    0    0 -0.52557282486E+02  0.59521247002E+01  0.20651088963E+03  0.24712181311E+03  0.12499898899E+03 0.  0.
          5    1    4    4  502    0 -0.10060402344E+02 -0.20289564450E+02  0.19405943801E+03  0.19543293889E+03  0.47000000000E+01 0. -1.
         -5    1    4    4    0  502 -0.42496880142E+02  0.26241689150E+02  0.12451451618E+02  0.51688874225E+02  0.47000000000E+01 0. -1.
          5    1    3    3  503    0  0.34984843032E+02 -0.26712031127E+01  0.17904201128E+03  0.18250809946E+03  0.47000000000E+01 0. -1.
         -5    1    3    3    0  503  0.17572439453E+02 -0.32809215875E+01 -0.19561618160E+02  0.26912859005E+02  0.47000000000E+01 0. -1.
<mgrwt>
<rscale>  0 0.13573123E+03</rscale>
<asrwt>0</asrwt>
<pdfrwt beam="1">  1        5 0.63271851E-01 0.13573188E+03</pdfrwt>
<pdfrwt beam="2">  1       -5 0.69654990E-02 0.13573188E+03</pdfrwt>
<totfact> 0.24670493E+02</totfact>
</mgrwt>
</event>
<event>
 8    1  0.1865596E-007  0.1328484E+03  0.7546771E-02  0.1223303E+00
          5   -1    0    0  501    0  0.00000000000E+00  0.00000000000E+00  0.49655859263E+02  0.49877794249E+02  0.47000000000E+01 0.  1.
         -5   -1    0    0    0  501 -0.00000000000E+00 -0.00000000000E+00 -0.37185632665E+03  0.37188602780E+03  0.47000000000E+01 0.  1.
         25    2    1    2    0    0 -0.44738232403E+02  0.33481580365E+01 -0.20689997805E+03  0.24585788296E+03  0.12500311235E+03 0.  0.
         25    2    1    2    0    0  0.44738232403E+02 -0.33481580365E+01 -0.11530048934E+03  0.17590593908E+03  0.12504390014E+03 0.  0.
          5    1    3    3  502    0 -0.71489268709E+02 -0.15364753655E+02 -0.58285583462E+02  0.93627402159E+02  0.47000000000E+01 0. -1.
         -5    1    3    3    0  502  0.26751036306E+02  0.18712911692E+02 -0.14861439459E+03  0.15223048081E+03  0.47000000000E+01 0. -1.
          5    1    4    4  503    0  0.35318483295E+01 -0.44099310691E+02  0.24767335768E+01  0.44558359095E+02  0.47000000000E+01 0.  1.
         -5    1    4    4    0  503  0.41206384074E+02  0.40751152654E+02 -0.11777722292E+03  0.13134757999E+03  0.47000000000E+01 0.  1.
<mgrwt>
<rscale>  0 0.13283880E+03</rscale>
<asrwt>0</asrwt>
<pdfrwt beam="1">  1        5 0.76587198E-02 0.13284840E+03</pdfrwt>
<pdfrwt beam="2">  1       -5 0.57228020E-01 0.13284840E+03</pdfrwt>
<totfact> 0.25958891E+02</totfact>
</mgrwt>
</event>
<event>
 8    1  0.1865596E-007  0.1271224E+03  0.7546771E-02  0.1231796E+00
          5   -1    0    0  501    0  0.00000000000E+00  0.00000000000E+00  0.70263276260E+03  0.70264848187E+03  0.47000000000E+01 0. -1.
         -5   -1    0    0    0  501 -0.00000000000E+00 -0.00000000000E+00 -0.22752733497E+02  0.23233098837E+02  0.47000000000E+01 0. -1.
         25    2    1    2    0    0 -0.19348784020E+02  0.12492902281E+02  0.33137638364E+03  0.35491677094E+03  0.12500063442E+03 0.  0.
         25    2    1    2    0    0  0.19348784020E+02 -0.12492902281E+02  0.34850364546E+03  0.37096480977E+03  0.12501860318E+03 0.  0.
          5    1    4    4  502    0  0.51161437908E+02 -0.42040784101E+01  0.54220800410E+02  0.74814117660E+02  0.47000000000E+01 0.  1.
         -5    1    4    4    0  502 -0.31812653888E+02 -0.82888238711E+01  0.29428284505E+03  0.29615069211E+03  0.47000000000E+01 0.  1.
          5    1    3    3  503    0  0.50327817739E+02 -0.11635772406E+01  0.19041518205E+03  0.19701338712E+03  0.47000000000E+01 0.  1.
         -5    1    3    3    0  503 -0.69676601759E+02  0.13656479522E+02  0.14096120159E+03  0.15790338381E+03  0.47000000000E+01 0.  1.
<mgrwt>
<rscale>  0 0.12711796E+03</rscale>
<asrwt>0</asrwt>
<pdfrwt beam="1">  1        5 0.10813551E+00 0.12712238E+03</pdfrwt>
<pdfrwt beam="2">  1       -5 0.35385808E-02 0.12712238E+03</pdfrwt>
<totfact> 0.21258994E+02</totfact>
</mgrwt>
</event>
<event>
 8    1  0.1865596E-007  0.2085449E+03  0.7546771E-02  0.1142724E+00
          5   -1    0    0  501    0  0.00000000000E+00  0.00000000000E+00  0.58811879218E+03  0.58813757210E+03  0.47000000000E+01 0. -1.
         -5   -1    0    0    0  501 -0.00000000000E+00 -0.00000000000E+00 -0.73920404202E+02  0.74069670968E+02  0.47000000000E+01 0. -1.
         25    2    1    2    0    0  0.16668446155E+03 -0.90616486981E+01  0.24717878858E+03  0.32340116587E+03  0.12500054946E+03 0.  0.
         25    2    1    2    0    0 -0.16668446155E+03  0.90616486981E+01  0.26701959940E+03  0.33880607720E+03  0.12499707309E+03 0.  0.
          5    1    4    4  502    0 -0.10048483887E+03 -0.49546893315E+02  0.19384054780E+03  0.22393826259E+03  0.47000000000E+01 0. -1.
         -5    1    4    4    0  502 -0.66199622675E+02  0.58608542013E+02  0.73179051603E+02  0.11486781461E+03  0.47000000000E+01 0. -1.
          5    1    3    3  503    0  0.15742500192E+03 -0.29819924018E+02  0.25296981596E+03  0.29947900909E+03  0.47000000000E+01 0. -1.
         -5    1    3    3    0  503  0.92594596269E+01  0.20758275320E+02 -0.57910273852E+01  0.23922156781E+02  0.47000000000E+01 0. -1.
<mgrwt>
<rscale>  0 0.20854434E+03</rscale>
<asrwt>0</asrwt>
<pdfrwt beam="1">  1        5 0.90492742E-01 0.20854486E+03</pdfrwt>
<pdfrwt beam="2">  1       -5 0.11385296E-01 0.20854486E+03</pdfrwt>
<totfact> 0.52501377E+01</totfact>
</mgrwt>
</event>
<event>
 8    1  0.1865596E-007  0.1342069E+03  0.7546771E-02  0.1221344E+00
          5   -1    0    0  501    0  0.00000000000E+00  0.00000000000E+00  0.35248284037E+02  0.35560252074E+02  0.47000000000E+01 0.  1.
         -5   -1    0    0    0  501 -0.00000000000E+00 -0.00000000000E+00 -0.52221897560E+03  0.52224012530E+03  0.47000000000E+01 0.  1.
         25    2    1    2    0    0  0.64731631773E+01 -0.48422443079E+02 -0.28882987150E+03  0.31848732638E+03  0.12499939023E+03 0.  0.
         25    2    1    2    0    0 -0.64731631773E+01  0.48422443079E+02 -0.19814082006E+03  0.23931305100E+03  0.12499726784E+03 0.  0.
          5    1    3    3  502    0  0.52021338030E+02  0.15779834691E+02 -0.10152640532E+03  0.11526024367E+03  0.47000000000E+01 0. -1.
         -5    1    3    3    0  502 -0.45548174852E+02 -0.64202277770E+02 -0.18730346618E+03  0.20322708271E+03  0.47000000000E+01 0. -1.
          5    1    4    4  503    0 -0.12873241970E+02 -0.27241254982E+02 -0.39474395782E+01  0.30748635921E+02  0.47000000000E+01 0. -1.
         -5    1    4    4    0  503  0.64000787922E+01  0.75663698061E+02 -0.19419338048E+03  0.20856441508E+03  0.47000000000E+01 0. -1.
<mgrwt>
<rscale>  0 0.13420637E+03</rscale>
<asrwt>0</asrwt>
<pdfrwt beam="1">  1        5 0.54484378E-02 0.13420686E+03</pdfrwt>
<pdfrwt beam="2">  1       -5 0.80367000E-01 0.13420686E+03</pdfrwt>
<totfact> 0.21640515E+02</totfact>
</mgrwt>
</event>
<event>
 8    1  0.1865596E-007  0.1370769E+03  0.7546771E-02  0.1217318E+00
          5   -1    0    0  501    0  0.00000000000E+00  0.00000000000E+00  0.18746824917E+04  0.18746883834E+04  0.47000000000E+01 0.  1.
         -5   -1    0    0    0  501 -0.00000000000E+00 -0.00000000000E+00 -0.96573033659E+01  0.10740275057E+02  0.47000000000E+01 0.  1.
         25    2    1    2    0    0  0.38351543416E+02  0.41155959771E+02  0.80670415654E+03  0.81826748295E+03  0.12500169428E+03 0.  0.
         25    2    1    2    0    0 -0.38351543416E+02 -0.41155959771E+02  0.10583210318E+04  0.10671611755E+04  0.12499965664E+03 0.  0.
          5    1    4    4  502    0 -0.81940403172E+02 -0.13399673164E+02  0.73704964376E+03  0.74172639719E+03  0.47000000000E+01 0.  1.
         -5    1    4    4    0  502  0.43588859756E+02 -0.27756286607E+02  0.32127138804E+03  0.32543477828E+03  0.47000000000E+01 0.  1.
          5    1    3    3  503    0 -0.22451580605E+02  0.39226920512E+02  0.11168881495E+03  0.12057904523E+03  0.47000000000E+01 0. -1.
         -5    1    3    3    0  503  0.60803124020E+02  0.19290392591E+01  0.69501534159E+03  0.69768843772E+03  0.47000000000E+01 0. -1.
<mgrwt>
<rscale>  0 0.13707644E+03</rscale>
<asrwt>0</asrwt>
<pdfrwt beam="1">  1        5 0.28849623E+00 0.13707690E+03</pdfrwt>
<pdfrwt beam="2">  1       -5 0.15694989E-02 0.13707690E+03</pdfrwt>
<totfact> 0.40240619E+01</totfact>
</mgrwt>
</event>
<event>
 8    1  0.1865596E-007  0.1659185E+03  0.7546771E-02  0.1182175E+00
         -5   -1    0    0    0  501 -0.00000000000E+00  0.00000000000E+00  0.41934131784E+03  0.41936765594E+03  0.47000000000E+01 0. -1.
          5   -1    0    0  501    0  0.00000000000E+00 -0.00000000000E+00 -0.94392532088E+02  0.94509471028E+02  0.47000000000E+01 0. -1.
         25    2    1    2    0    0  0.10849647585E+03  0.11361737509E+02  0.30441936138E+03  0.34669338733E+03  0.12499833153E+03 0.  0.
         25    2    1    2    0    0 -0.10849647585E+03 -0.11361737509E+02  0.20529424368E+02  0.16718373963E+03  0.12501348400E+03 0.  0.
          5    1    3    3  502    0  0.53283915858E+02  0.61917045326E+02  0.10162059267E+03  0.13046735625E+03  0.47000000000E+01 0. -1.
         -5    1    3    3    0  502  0.55212559989E+02 -0.50555307817E+02  0.20279876871E+03  0.21622603108E+03  0.47000000000E+01 0. -1.
          5    1    4    4  503    0 -0.59740565736E+02 -0.58481452374E+02 -0.22548254955E+02  0.86715219355E+02  0.47000000000E+01 0. -1.
         -5    1    4    4    0  503 -0.48755910112E+02  0.47119714865E+02  0.43077679323E+02  0.80468520278E+02  0.47000000000E+01 0. -1.
<mgrwt>
<rscale>  0 0.16591564E+03</rscale>
<asrwt>0</asrwt>
<pdfrwt beam="2">  1        5 0.14532949E-01 0.16591849E+03</pdfrwt>
<pdfrwt beam="1">  1       -5 0.64525070E-01 0.16591849E+03</pdfrwt>
<totfact> 0.69489386E+01</totfact>
</mgrwt>
</event>
<event>
 8    1  0.1865596E-007  0.1388867E+03  0.7546771E-02  0.1214837E+00
         -5   -1    0    0    0  501 -0.00000000000E+00  0.00000000000E+00  0.27381352781E+03  0.27385386251E+03  0.47000000000E+01 0. -1.
          5   -1    0    0  501    0  0.00000000000E+00 -0.00000000000E+00 -0.79318182889E+02  0.79457310154E+02  0.47000000000E+01 0. -1.
         25    2    1    2    0    0 -0.23452856266E+02  0.55798415907E+02  0.15667734372E+03  0.20937359465E+03  0.12500404961E+03 0.  0.
         25    2    1    2    0    0  0.23452856266E+02 -0.55798415907E+02  0.37818001203E+02  0.14393757801E+03  0.12499730183E+03 0.  0.
          5    1    4    4  502    0  0.51031321314E+02 -0.25876153584E+02 -0.29949036366E+02  0.64751879190E+02  0.47000000000E+01 0.  1.
         -5    1    4    4    0  502 -0.27578465047E+02 -0.29922262324E+02  0.67767037570E+02  0.79185698822E+02  0.47000000000E+01 0.  1.
          5    1    3    3  503    0  0.49425113259E+02  0.50753322057E+01  0.53307549559E+02  0.73023185754E+02  0.47000000000E+01 0.  1.
         -5    1    3    3    0  503 -0.72877969526E+02  0.50723083702E+02  0.10336979416E+03  0.13635040890E+03  0.47000000000E+01 0.  1.
<mgrwt>
<rscale>  0 0.13888517E+03</rscale>
<asrwt>0</asrwt>
<pdfrwt beam="2">  1        5 0.12216602E-01 0.13888669E+03</pdfrwt>
<pdfrwt beam="1">  1       -5 0.42138963E-01 0.13888669E+03</pdfrwt>
<totfact> 0.22324359E+02</totfact>
</mgrwt>
</event>
<event>
 8    1  0.1865596E-007  0.1286694E+03  0.7546771E-02  0.1229445E+00
          5   -1    0    0  501    0  0.00000000000E+00  0.00000000000E+00  0.27303597342E+02  0.27705169694E+02  0.47000000000E+01 0.  1.
         -5   -1    0    0    0  501 -0.00000000000E+00 -0.00000000000E+00 -0.61436706414E+03  0.61438504173E+03  0.47000000000E+01 0.  1.
         25    2    1    2    0    0  0.30509956386E+02  0.91647186143E+00 -0.33995503762E+03  0.36348943107E+03  0.12499376601E+03 0.  0.
         25    2    1    2    0    0 -0.30509956386E+02 -0.91647186143E+00 -0.24710842918E+03  0.27860078035E+03  0.12499648667E+03 0.  0.
          5    1    3    3  502    0 -0.17731101605E+02 -0.16202582009E+02 -0.29252441563E+03  0.29354648587E+03  0.47000000000E+01 0.  1.
         -5    1    3    3    0  502  0.48241057991E+02  0.17119053870E+02 -0.47430621989E+02  0.69942945203E+02  0.47000000000E+01 0.  1.
          5    1    4    4  503    0 -0.54944430354E+02 -0.37355340201E+02 -0.72276443768E+02  0.98286754918E+02  0.47000000000E+01 0.  1.
         -5    1    4    4    0  503  0.24434473968E+02  0.36438868340E+02 -0.17483198541E+03  0.18031402543E+03  0.47000000000E+01 0.  1.
<mgrwt>
<rscale>  0 0.12866876E+03</rscale>
<asrwt>0</asrwt>
<pdfrwt beam="1">  1        5 0.42328270E-02 0.12866942E+03</pdfrwt>
<pdfrwt beam="2">  1       -5 0.94550272E-01 0.12866942E+03</pdfrwt>
<totfact> 0.22097267E+02</totfact>
</mgrwt>
</event>
<event>
 8    1  0.1865596E-007  0.1373295E+03  0.7546771E-02  0.1216984E+00
         -5   -1    0    0    0  501 -0.00000000000E+00  0.00000000000E+00  0.17982448683E+03  0.17988589734E+03  0.47000000000E+01 0.  1.
          5   -1    0    0  501    0  0.00000000000E+00 -0.00000000000E+00 -0.14678310654E+03  0.14685833434E+03  0.47000000000E+01 0.  1.
         25    2    1    2    0    0  0.36991615307E+02  0.43056233994E+02  0.10394394650E+03  0.17223167065E+03  0.12504873239E+03 0.  0.
         25    2    1    2    0    0 -0.36991615307E+02 -0.43056233994E+02 -0.70902566204E+02  0.15451256103E+03  0.12499895493E+03 0.  0.
          5    1    3    3  502    0  0.74862988733E+02  0.57545805902E+02  0.85380621250E+02  0.12738888234E+03  0.47000000000E+01 0.  1.
         -5    1    3    3    0  502 -0.37871373427E+02 -0.14489571908E+02  0.18563325247E+02  0.44842788311E+02  0.47000000000E+01 0.  1.
          5    1    4    4  503    0 -0.54138842066E+02 -0.60718281045E+02 -0.23458604450E+01  0.81518813378E+02  0.47000000000E+01 0. -1.
         -5    1    4    4    0  503  0.17147226759E+02  0.17662047051E+02 -0.68556705759E+02  0.72993747651E+02  0.47000000000E+01 0. -1.
<mgrwt>
<rscale>  0 0.13731821E+03</rscale>
<asrwt>0</asrwt>
<pdfrwt beam="2">  1        5 0.22592527E-01 0.13732955E+03</pdfrwt>
<pdfrwt beam="1">  1       -5 0.27675816E-01 0.13732955E+03</pdfrwt>
<totfact> 0.16722069E+02</totfact>
</mgrwt>
</event>
<event>
 8    1  0.1865596E-007  0.1291301E+03  0.7546771E-02  0.1228762E+00
         -5   -1    0    0    0  501 -0.00000000000E+00  0.00000000000E+00  0.34571748726E+03  0.34574943384E+03  0.47000000000E+01 0.  1.
          5   -1    0    0  501    0  0.00000000000E+00 -0.00000000000E+00 -0.55747288945E+02  0.55945064347E+02  0.47000000000E+01 0.  1.
         25    2    1    2    0    0  0.17368795652E+02  0.27268183231E+02  0.21932696269E+03  0.25450400120E+03  0.12499096440E+03 0.  0.
         25    2    1    2    0    0 -0.17368795652E+02 -0.27268183231E+02  0.70643235620E+02  0.14719049698E+03  0.12501738593E+03 0.  0.
          5    1    4    4  502    0  0.30968550554E+02  0.17822032902E+02  0.72425673117E+02  0.80896502438E+02  0.47000000000E+01 0.  1.
         -5    1    4    4    0  502 -0.48337346206E+02 -0.45090216133E+02 -0.17824374971E+01  0.66293994544E+02  0.47000000000E+01 0.  1.
          5    1    3    3  503    0 -0.72005818441E+01 -0.48519426911E+02  0.81564957538E+02  0.95293837496E+02  0.47000000000E+01 0. -1.
         -5    1    3    3    0  503  0.24569377496E+02  0.75787610142E+02  0.13776200516E+03  0.15921016370E+03  0.47000000000E+01 0. -1.
<mgrwt>
<rscale>  0 0.12912368E+03</rscale>
<asrwt>0</asrwt>
<pdfrwt beam="2">  1        5 0.85941771E-02 0.12913007E+03</pdfrwt>
<pdfrwt beam="1">  1       -5 0.53204975E-01 0.12913007E+03</pdfrwt>
<totfact> 0.24672852E+02</totfact>
</mgrwt>
</event>
<event>
 8    1  0.1865596E-007  0.1382854E+03  0.7546771E-02  0.1215658E+00
         -5   -1    0    0    0  501 -0.00000000000E+00  0.00000000000E+00  0.20825262694E+03  0.20830565673E+03  0.47000000000E+01 0.  1.
          5   -1    0    0  501    0  0.00000000000E+00 -0.00000000000E+00 -0.92070176605E+02  0.92190061395E+02  0.47000000000E+01 0.  1.
         25    2    1    2    0    0 -0.41979714195E+02 -0.41647042962E+02  0.67673206230E+02  0.15395617708E+03  0.12500427604E+03 0.  0.
         25    2    1    2    0    0  0.41979714195E+02  0.41647042962E+02  0.48509244104E+02  0.14653954105E+03  0.12499567087E+03 0.  0.
          5    1    3    3  502    0 -0.49223321660E+02 -0.81452677564E+02  0.59722733430E+02  0.11245607572E+03  0.47000000000E+01 0. -1.
         -5    1    3    3    0  502  0.72436074651E+01  0.39805634602E+02  0.79504727997E+01  0.41500101360E+02  0.47000000000E+01 0. -1.
          5    1    4    4  503    0  0.38533756913E+02  0.85044055172E+02  0.41141426492E+02  0.10213740116E+03  0.47000000000E+01 0.  1.
         -5    1    4    4    0  503  0.34459572820E+01 -0.43397012210E+02  0.73678176118E+01  0.44402139889E+02  0.47000000000E+01 0.  1.
<mgrwt>
<rscale>  0 0.13828342E+03</rscale>
<asrwt>0</asrwt>
<pdfrwt beam="2">  1        5 0.14177944E-01 0.13828536E+03</pdfrwt>
<pdfrwt beam="1">  1       -5 0.32052166E-01 0.13828536E+03</pdfrwt>
<totfact> 0.29685693E+02</totfact>
</mgrwt>
</event>
<event>
 8    1  0.1865596E-007  0.1345345E+03  0.7546771E-02  0.1220880E+00
         -5   -1    0    0    0  501 -0.00000000000E+00  0.00000000000E+00  0.86224818147E+02  0.86352818509E+02  0.47000000000E+01 0.  1.
          5   -1    0    0  501    0  0.00000000000E+00 -0.00000000000E+00 -0.21044794230E+03  0.21050041904E+03  0.47000000000E+01 0.  1.
         25    2    1    2    0    0 -0.21998515706E+02  0.44626415451E+02 -0.71567144695E+02  0.15238114021E+03  0.12499081584E+03 0.  0.
         25    2    1    2    0    0  0.21998515706E+02 -0.44626415451E+02 -0.52655979454E+02  0.14447209734E+03  0.12499633229E+03 0.  0.
          5    1    4    4  502    0  0.70131325022E+02 -0.24572598844E+01 -0.29257131744E+02  0.76174212391E+02  0.47000000000E+01 0. -1.
         -5    1    4    4    0  502 -0.48132809316E+02 -0.42169155566E+02 -0.23398847710E+02  0.68297884945E+02  0.47000000000E+01 0. -1.
          5    1    3    3  503    0 -0.46793366037E+02  0.53509190239E+02  0.48622908191E+01  0.71404372535E+02  0.47000000000E+01 0. -1.
         -5    1    3    3    0  503  0.24794850331E+02 -0.88827747885E+01 -0.76429435514E+02  0.80976767680E+02  0.47000000000E+01 0. -1.
<mgrwt>
<rscale>  0 0.13453323E+03</rscale>
<asrwt>0</asrwt>
<pdfrwt beam="2">  1        5 0.32390489E-01 0.13453451E+03</pdfrwt>
<pdfrwt beam="1">  1       -5 0.13279240E-01 0.13453451E+03</pdfrwt>
<totfact> 0.32392731E+02</totfact>
</mgrwt>
</event>
<event>
 8    1  0.1865596E-007  0.1500485E+03  0.7546771E-02  0.1200415E+00
         -5   -1    0    0    0  501 -0.00000000000E+00  0.00000000000E+00  0.72075951463E+03  0.72077483858E+03  0.47000000000E+01 0. -1.
          5   -1    0    0  501    0  0.00000000000E+00 -0.00000000000E+00 -0.34032402441E+02  0.34355413196E+02  0.47000000000E+01 0. -1.
         25    2    1    2    0    0 -0.77596809336E+02 -0.29449029198E+02  0.45468017226E+03  0.47879913233E+03  0.12500415968E+03 0.  0.
         25    2    1    2    0    0  0.77596809336E+02  0.29449029198E+02  0.23204693993E+03  0.27633111944E+03  0.12499838040E+03 0.  0.
          5    1    4    4  502    0  0.10394305804E+02 -0.37620416950E+02  0.13449218317E+03  0.14011985833E+03  0.47000000000E+01 0. -1.
         -5    1    4    4    0  502  0.67202503532E+02  0.67069446148E+02  0.97554756764E+02  0.13621126112E+03  0.47000000000E+01 0. -1.
          5    1    3    3  503    0 -0.56974236133E+02  0.39346055231E+02  0.30387922350E+03  0.31170314101E+03  0.47000000000E+01 0. -1.
         -5    1    3    3    0  503 -0.20622573204E+02 -0.68795084429E+02  0.15080094877E+03  0.16709599132E+03  0.47000000000E+01 0. -1.
<mgrwt>
<rscale>  0 0.15004729E+03</rscale>
<asrwt>0</asrwt>
<pdfrwt beam="2">  1        5 0.52617799E-02 0.15004849E+03</pdfrwt>
<pdfrwt beam="1">  1       -5 0.11091211E+00 0.15004849E+03</pdfrwt>
<totfact> 0.10963215E+02</totfact>
</mgrwt>
</event>
<event>
 8    1  0.1865596E-007  0.1282307E+03  0.7546771E-02  0.1230116E+00
         -5   -1    0    0    0  501 -0.00000000000E+00  0.00000000000E+00  0.26509595042E+03  0.26513761131E+03  0.47000000000E+01 0. -1.
          5   -1    0    0  501    0  0.00000000000E+00 -0.00000000000E+00 -0.79459865950E+02  0.79598745573E+02  0.47000000000E+01 0. -1.
         25    2    1    2    0    0 -0.28314442540E+02 -0.40117740719E+01  0.17380575747E+03  0.21598971366E+03  0.12500125235E+03 0.  0.
         25    2    1    2    0    0  0.28314442540E+02  0.40117740719E+01  0.11830326995E+02  0.12874664322E+03  0.12497175487E+03 0.  0.
          5    1    3    3  502    0  0.39583283738E+02  0.31979485026E+01  0.12681282517E+03  0.13296858972E+03  0.47000000000E+01 0. -1.
         -5    1    3    3    0  502 -0.67897726278E+02 -0.72097225745E+01  0.46992932309E+02  0.83021123941E+02  0.47000000000E+01 0. -1.
          5    1    4    4  503    0 -0.34112400231E+02  0.12273703158E+02  0.44548253811E+02  0.57627567677E+02  0.47000000000E+01 0. -1.
         -5    1    4    4    0  503  0.62426842771E+02 -0.82619290858E+01 -0.32717926816E+02  0.71119075540E+02  0.47000000000E+01 0. -1.
<mgrwt>
<rscale>  0 0.12822352E+03</rscale>
<asrwt>0</asrwt>
<pdfrwt beam="2">  1        5 0.12238482E-01 0.12823071E+03</pdfrwt>
<pdfrwt beam="1">  1       -5 0.40797881E-01 0.12823071E+03</pdfrwt>
<totfact> 0.23134519E+02</totfact>
</mgrwt>
</event>
<event>
 8    1  0.1865596E-007  0.1313884E+03  0.7546771E-02  0.1225412E+00
          5   -1    0    0  501    0  0.00000000000E+00  0.00000000000E+00  0.31729445929E+03  0.31732926732E+03  0.47000000000E+01 0.  1.
         -5   -1    0    0    0  501 -0.00000000000E+00 -0.00000000000E+00 -0.66725794469E+02  0.66891117853E+02  0.47000000000E+01 0.  1.
         25    2    1    2    0    0  0.24174894051E+02  0.32412749021E+02  0.42398383072E+02  0.13805425098E+03  0.12500536599E+03 0.  0.
         25    2    1    2    0    0 -0.24174894051E+02 -0.32412749021E+02  0.20817028175E+03  0.24616613419E+03  0.12501154994E+03 0.  0.
          5    1    3    3  502    0 -0.41329969409E+02  0.48367257997E+02  0.19972622834E+02  0.66847241382E+02  0.47000000000E+01 0.  1.
         -5    1    3    3    0  502  0.65504863461E+02 -0.15954508976E+02  0.22425760238E+02  0.71207009598E+02  0.47000000000E+01 0.  1.
          5    1    4    4  503    0 -0.59900067557E+02 -0.92247879207E+01  0.19024122825E+03  0.19971712428E+03  0.47000000000E+01 0.  1.
         -5    1    4    4    0  503  0.35725173505E+02 -0.23187961100E+02  0.17929053497E+02  0.46449009906E+02  0.47000000000E+01 0.  1.
<mgrwt>
<rscale>  0 0.13138688E+03</rscale>
<asrwt>0</asrwt>
<pdfrwt beam="1">  1        5 0.48829926E-01 0.13138835E+03</pdfrwt>
<pdfrwt beam="2">  1       -5 0.10280902E-01 0.13138835E+03</pdfrwt>
<totfact> 0.21830662E+02</totfact>
</mgrwt>
</event>
<event>
 8    1  0.1865596E-007  0.1791888E+03  0.7546771E-02  0.1168593E+00
          5   -1    0    0  501    0  0.00000000000E+00  0.00000000000E+00  0.41613935005E+03  0.41616589079E+03  0.47000000000E+01 0. -1.
         -5   -1    0    0    0  501 -0.00000000000E+00 -0.00000000000E+00 -0.77151172679E+02  0.77294200595E+02  0.47000000000E+01 0. -1.
         25    2    1    2    0    0 -0.50475821790E+02  0.11803639418E+03  0.16069538773E+03  0.24068162467E+03  0.12499695148E+03 0.  0.
         25    2    1    2    0    0  0.50475821790E+02 -0.11803639418E+03  0.17829278964E+03  0.25277846672E+03  0.12501294118E+03 0.  0.
          5    1    3    3  502    0 -0.51608202972E+02  0.43226929710E+02  0.15061392645E+03  0.16504126426E+03  0.47000000000E+01 0. -1.
         -5    1    3    3    0  502  0.11323811821E+01  0.74809464473E+02  0.10081461279E+02  0.75640360412E+02  0.47000000000E+01 0. -1.
          5    1    4    4  503    0 -0.41977642554E+02 -0.36522880788E+02  0.56214740682E+02  0.79235284850E+02  0.47000000000E+01 0.  1.
         -5    1    4    4    0  503  0.92453464344E+02 -0.81513513395E+02  0.12207804896E+03  0.17354318187E+03  0.47000000000E+01 0.  1.
<mgrwt>
<rscale>  0 0.17918603E+03</rscale>
<asrwt>0</asrwt>
<pdfrwt beam="1">  1        5 0.64034483E-01 0.17918882E+03</pdfrwt>
<pdfrwt beam="2">  1       -5 0.11882455E-01 0.17918882E+03</pdfrwt>
<totfact> 0.10372514E+02</totfact>
</mgrwt>
</event>
<event>
 8    1  0.1865596E-007  0.1555011E+03  0.7546771E-02  0.1193873E+00
         -5   -1    0    0    0  501 -0.00000000000E+00  0.00000000000E+00  0.81932489002E+03  0.81933837052E+03  0.47000000000E+01 0. -1.
          5   -1    0    0  501    0  0.00000000000E+00 -0.00000000000E+00 -0.29606903726E+02  0.29977637469E+02  0.47000000000E+01 0. -1.
         25    2    1    2    0    0 -0.91348441484E+01 -0.92036174990E+02  0.43705145452E+03  0.46388863084E+03  0.12499834016E+03 0.  0.
         25    2    1    2    0    0  0.91348441484E+01  0.92036174990E+02  0.35266653177E+03  0.38542737714E+03  0.12500591000E+03 0.  0.
          5    1    4    4  502    0  0.64227560753E+02  0.68665961601E+02  0.23924380391E+03  0.25709897229E+03  0.47000000000E+01 0.  1.
         -5    1    4    4    0  502 -0.55092716605E+02  0.23370213389E+02  0.11342272786E+03  0.12832840485E+03  0.47000000000E+01 0.  1.
          5    1    3    3  503    0 -0.38347168096E+02  0.17094878581E+02  0.10926274367E+03  0.11714596591E+03  0.47000000000E+01 0. -1.
         -5    1    3    3    0  503  0.29212323948E+02 -0.10913105357E+03  0.32778871085E+03  0.34674266494E+03  0.47000000000E+01 0. -1.
<mgrwt>
<rscale>  0 0.15549954E+03</rscale>
<asrwt>0</asrwt>
<pdfrwt beam="2">  1        5 0.45844629E-02 0.15550106E+03</pdfrwt>
<pdfrwt beam="1">  1       -5 0.12607955E+00 0.15550106E+03</pdfrwt>
<totfact> 0.10062925E+02</totfact>
</mgrwt>
</event>
<event>
 8    1  0.1865596E-007  0.2243692E+03  0.7546771E-02  0.1130667E+00
          5   -1    0    0  501    0  0.00000000000E+00  0.00000000000E+00  0.56288483679E+03  0.56290445858E+03  0.47000000000E+01 0.  1.
         -5   -1    0    0    0  501 -0.00000000000E+00 -0.00000000000E+00 -0.13076933504E+03  0.13085376948E+03  0.47000000000E+01 0.  1.
         25    2    1    2    0    0 -0.12531357839E+03  0.13788691932E+03  0.20931091501E+02  0.22534158420E+03  0.12499769409E+03 0.  0.
         25    2    1    2    0    0  0.12531357839E+03 -0.13788691932E+03  0.41118441025E+03  0.46841664386E+03  0.12500095028E+03 0.  0.
          5    1    3    3  502    0 -0.11779456035E+03  0.15860067681E+03  0.48772509685E+01  0.19767551874E+03  0.47000000000E+01 0. -1.
         -5    1    3    3    0  502 -0.75190180472E+01 -0.20713757493E+02  0.16053840533E+02  0.27666065454E+02  0.47000000000E+01 0. -1.
          5    1    4    4  503    0 -0.12919953636E+02 -0.33835171720E+02  0.15499499134E+03  0.15923969790E+03  0.47000000000E+01 0. -1.
         -5    1    4    4    0  503  0.13823353203E+03 -0.10405174760E+03  0.25618941890E+03  0.30917694596E+03  0.47000000000E+01 0. -1.
<mgrwt>
<rscale>  0 0.22436874E+03</rscale>
<asrwt>0</asrwt>
<pdfrwt beam="1">  1        5 0.86605671E-01 0.22436919E+03</pdfrwt>
<pdfrwt beam="2">  1       -5 0.20126364E-01 0.22436919E+03</pdfrwt>
<totfact> 0.20955725E+01</totfact>
</mgrwt>
</event>
<event>
 8    1  0.1865596E-007  0.1261307E+03  0.7546771E-02  0.1233346E+00
         -5   -1    0    0    0  501 -0.00000000000E+00  0.00000000000E+00  0.69104762758E+03  0.69106361037E+03  0.47000000000E+01 0. -1.
          5   -1    0    0  501    0  0.00000000000E+00 -0.00000000000E+00 -0.23204500188E+02  0.23675701235E+02  0.47000000000E+01 0. -1.
         25    2    1    2    0    0 -0.26745626044E+01 -0.16618743081E+02  0.38356927919E+03  0.40377512011E+03  0.12500247908E+03 0.  0.
         25    2    1    2    0    0  0.26745626044E+01  0.16618743081E+02  0.28427384820E+03  0.31096419150E+03  0.12491505800E+03 0.  0.
          5    1    3    3  502    0  0.29802053857E+02  0.15629965535E+02  0.33557239067E+03  0.33728827080E+03  0.47000000000E+01 0.  1.
         -5    1    3    3    0  502 -0.32476616461E+02 -0.32248708617E+02  0.47996888520E+02  0.66486849315E+02  0.47000000000E+01 0.  1.
          5    1    4    4  503    0  0.11913712099E+02 -0.15441882289E+00  0.29011642042E+03  0.29039901477E+03  0.47000000000E+01 0. -1.
         -5    1    4    4    0  503 -0.92391494944E+01  0.16773161904E+02 -0.58425722215E+01  0.20565176727E+02  0.47000000000E+01 0. -1.
<mgrwt>
<rscale>  0 0.12610904E+03</rscale>
<asrwt>0</asrwt>
<pdfrwt beam="2">  1        5 0.36073986E-02 0.12613071E+03</pdfrwt>
<pdfrwt beam="1">  1       -5 0.10635250E+00 0.12613071E+03</pdfrwt>
<totfact> 0.21407981E+02</totfact>
</mgrwt>
</event>
<event>
 8    1  0.1865596E-007  0.1263467E+03  0.7546771E-02  0.1232982E+00
         -5   -1    0    0    0  501 -0.00000000000E+00  0.00000000000E+00  0.29046349586E+03  0.29050151880E+03  0.47000000000E+01 0.  1.
          5   -1    0    0  501    0  0.00000000000E+00 -0.00000000000E+00 -0.56578803784E+02  0.56773682614E+02  0.47000000000E+01 0.  1.
         25    2    1    2    0    0 -0.10339981884E+02 -0.15205247348E+02  0.14754153423E+03  0.19424374386E+03  0.12499605167E+03 0.  0.
         25    2    1    2    0    0  0.10339981884E+02  0.15205247348E+02  0.86343157849E+02  0.15303145756E+03  0.12500148528E+03 0.  0.
          5    1    3    3  502    0 -0.12658453464E+02 -0.69290163773E+02  0.97503118800E+02  0.12037570941E+03  0.47000000000E+01 0. -1.
         -5    1    3    3    0  502  0.23184715797E+01  0.54084916425E+02  0.50038415427E+02  0.73868034451E+02  0.47000000000E+01 0. -1.
          5    1    4    4  503    0  0.60824894979E+02  0.36057252937E+02  0.56359397637E+02  0.90544271164E+02  0.47000000000E+01 0. -1.
         -5    1    4    4    0  503 -0.50484913094E+02 -0.20852005589E+02  0.29983760212E+02  0.62487186396E+02  0.47000000000E+01 0. -1.
<mgrwt>
<rscale>  0 0.12634535E+03</rscale>
<asrwt>0</asrwt>
<pdfrwt beam="2">  1        5 0.87223468E-02 0.12634669E+03</pdfrwt>
<pdfrwt beam="1">  1       -5 0.44704607E-01 0.12634669E+03</pdfrwt>
<totfact> 0.34439766E+02</totfact>
</mgrwt>
</event>
<event>
 8    1  0.1865596E-007  0.1354235E+03  0.7546771E-02  0.1219624E+00
          5   -1    0    0  501    0  0.00000000000E+00  0.00000000000E+00  0.40000297185E+03  0.40003058319E+03  0.47000000000E+01 0.  1.
         -5   -1    0    0    0  501 -0.00000000000E+00 -0.00000000000E+00 -0.46772113666E+02  0.47007665511E+02  0.47000000000E+01 0.  1.
         25    2    1    2    0    0 -0.40279081983E+02 -0.33044062047E+02  0.14283563763E+03  0.19682698819E+03  0.12499811767E+03 0.  0.
         25    2    1    2    0    0  0.40279081983E+02  0.33044062047E+02  0.21039522055E+03  0.25021126051E+03  0.12500084628E+03 0.  0.
          5    1    3    3  502    0  0.26576182320E+02 -0.56598481073E+02  0.82492842685E+02  0.10361872717E+03  0.47000000000E+01 0.  1.
         -5    1    3    3    0  502 -0.66855264303E+02  0.23554419026E+02  0.60342794942E+02  0.93208261018E+02  0.47000000000E+01 0.  1.
          5    1    4    4  503    0  0.25732703342E+02  0.33544838631E+02  0.22504625677E+03  0.22903129897E+03  0.47000000000E+01 0. -1.
         -5    1    4    4    0  503  0.14546378641E+02 -0.50077658400E+00 -0.14651036216E+02  0.21179961543E+02  0.47000000000E+01 0. -1.
<mgrwt>
<rscale>  0 0.13542288E+03</rscale>
<asrwt>0</asrwt>
<pdfrwt beam="1">  1        5 0.61559166E-01 0.13542351E+03</pdfrwt>
<pdfrwt beam="2">  1       -5 0.72159526E-02 0.13542351E+03</pdfrwt>
<totfact> 0.24662435E+02</totfact>
</mgrwt>
</event>
<event>
 8    1  0.1865596E-007  0.1686226E+03  0.7546771E-02  0.1179294E+00
          5   -1    0    0  501    0  0.00000000000E+00  0.00000000000E+00  0.26013945025E+03  0.26018190479E+03  0.47000000000E+01 0. -1.
         -5   -1    0    0    0  501 -0.00000000000E+00 -0.00000000000E+00 -0.11616976711E+03  0.11626480460E+03  0.47000000000E+01 0. -1.
         25    2    1    2    0    0 -0.10869064158E+03 -0.31533777437E+02  0.25890361587E+02  0.17059858013E+03  0.12500212010E+03 0.  0.
         25    2    1    2    0    0  0.10869064158E+03  0.31533777437E+02  0.11807932156E+03  0.20584812926E+03  0.12499076548E+03 0.  0.
          5    1    3    3  502    0 -0.34950583553E+02 -0.46069125866E+02 -0.40054017162E+02  0.70500510208E+02  0.47000000000E+01 0.  1.
         -5    1    3    3    0  502 -0.73740058031E+02  0.14535348429E+02  0.65944378750E+02  0.10009806992E+03  0.47000000000E+01 0.  1.
          5    1    4    4  503    0 -0.23188602144E+01  0.22173840665E+02  0.87230202256E+02  0.90156832842E+02  0.47000000000E+01 0.  1.
         -5    1    4    4    0  503  0.11100950180E+03  0.93599367721E+01  0.30849119303E+02  0.11569129642E+03  0.47000000000E+01 0.  1.
<mgrwt>
<rscale>  0 0.16862045E+03</rscale>
<asrwt>0</asrwt>
<pdfrwt beam="1">  1        5 0.40032030E-01 0.16862255E+03</pdfrwt>
<pdfrwt beam="2">  1       -5 0.17882848E-01 0.16862255E+03</pdfrwt>
<totfact> 0.13239447E+02</totfact>
</mgrwt>
</event>
<event>
 8    1  0.1865596E-007  0.1599948E+03  0.7546771E-02  0.1188707E+00
         -5   -1    0    0    0  501 -0.00000000000E+00  0.00000000000E+00  0.93196045873E+03  0.93197231002E+03  0.47000000000E+01 0.  1.
          5   -1    0    0  501    0  0.00000000000E+00 -0.00000000000E+00 -0.39018382672E+02  0.39300434939E+02  0.47000000000E+01 0.  1.
         25    2    1    2    0    0  0.19310033037E+02 -0.97975218617E+02  0.71197659773E+03  0.72973216120E+03  0.12500532198E+03 0.  0.
         25    2    1    2    0    0 -0.19310033037E+02  0.97975218617E+02  0.18096547833E+03  0.24154058376E+03  0.12498531281E+03 0.  0.
          5    1    4    4  502    0  0.11413247389E+02  0.11204327646E+03  0.17303959692E+03  0.20651573819E+03  0.47000000000E+01 0.  1.
         -5    1    4    4    0  502 -0.30723280426E+02 -0.14068057839E+02  0.79258814016E+01  0.35024845574E+02  0.47000000000E+01 0.  1.
          5    1    3    3  503    0  0.33679248726E+02 -0.52785546422E+02  0.11643169690E+03  0.13228392097E+03  0.47000000000E+01 0.  1.
         -5    1    3    3    0  503 -0.14369215689E+02 -0.45189672195E+02  0.59554490084E+03  0.59744824022E+03  0.47000000000E+01 0.  1.
<mgrwt>
<rscale>  0 0.15999094E+03</rscale>
<asrwt>0</asrwt>
<pdfrwt beam="2">  1        5 0.60254360E-02 0.15999485E+03</pdfrwt>
<pdfrwt beam="1">  1       -5 0.14340114E+00 0.15999485E+03</pdfrwt>
<totfact> 0.45755523E+01</totfact>
</mgrwt>
</event>
<event>
 8    1  0.1865596E-007  0.1305465E+03  0.7546771E-02  0.1226648E+00
          5   -1    0    0  501    0  0.00000000000E+00  0.00000000000E+00  0.36025118933E+03  0.36028184719E+03  0.47000000000E+01 0. -1.
         -5   -1    0    0    0  501 -0.00000000000E+00 -0.00000000000E+00 -0.47223191787E+02  0.47456504744E+02  0.47000000000E+01 0. -1.
         25    2    1    2    0    0 -0.31600813266E+02 -0.20470524693E+02  0.16415884028E+03  0.20973915828E+03  0.12499894357E+03 0.  0.
         25    2    1    2    0    0  0.31600813266E+02  0.20470524693E+02  0.14886915727E+03  0.19799919366E+03  0.12499600363E+03 0.  0.
          5    1    4    4  502    0 -0.27504137512E+02 -0.11933117357E+02 -0.42413269164E+01  0.30642384440E+02  0.47000000000E+01 0. -1.
         -5    1    4    4    0  502  0.59104950779E+02  0.32403642049E+02  0.15311048418E+03  0.16735680922E+03  0.47000000000E+01 0. -1.
          5    1    3    3  503    0  0.21037396895E+02 -0.33364377952E+02  0.14763751555E+03  0.15288780129E+03  0.47000000000E+01 0. -1.
         -5    1    3    3    0  503 -0.52638210161E+02  0.12893853259E+02  0.16521324726E+02  0.56851356990E+02  0.47000000000E+01 0. -1.
<mgrwt>
<rscale>  0 0.13054580E+03</rscale>
<asrwt>0</asrwt>
<pdfrwt beam="1">  1        5 0.55443568E-01 0.13054650E+03</pdfrwt>
<pdfrwt beam="2">  1       -5 0.72854115E-02 0.13054650E+03</pdfrwt>
<totfact> 0.30081415E+02</totfact>
</mgrwt>
</event>
<event>
 8    1  0.1865596E-007  0.1336129E+03  0.7546771E-02  0.1222193E+00
          5   -1    0    0  501    0  0.00000000000E+00  0.00000000000E+00  0.27744901984E+02  0.28140177436E+02  0.47000000000E+01 0.  1.
         -5   -1    0    0    0  501 -0.00000000000E+00 -0.00000000000E+00 -0.72365173001E+03  0.72366699271E+03  0.47000000000E+01 0.  1.
         25    2    1    2    0    0 -0.37990757988E+02 -0.28003677111E+02 -0.47689111333E+03  0.49525503636E+03  0.12499965375E+03 0.  0.
         25    2    1    2    0    0  0.37990757988E+02  0.28003677111E+02 -0.21901571469E+03  0.25655213379E+03  0.12499444167E+03 0.  0.
          5    1    4    4  502    0  0.35628057348E+02 -0.16409922279E+02 -0.20630981477E+03  0.21005826260E+03  0.47000000000E+01 0.  1.
         -5    1    4    4    0  502  0.23627006398E+01  0.44413599390E+02 -0.12705899924E+02  0.46493871187E+02  0.47000000000E+01 0.  1.
          5    1    3    3  503    0 -0.25365125540E+02 -0.55854949974E+02 -0.45022873626E+03  0.45441299495E+03  0.47000000000E+01 0.  1.
         -5    1    3    3    0  503 -0.12625632447E+02  0.27851272863E+02 -0.26662377077E+02  0.40842041406E+02  0.47000000000E+01 0.  1.
<mgrwt>
<rscale>  0 0.13361172E+03</rscale>
<asrwt>0</asrwt>
<pdfrwt beam="1">  1        5 0.43000269E-02 0.13361294E+03</pdfrwt>
<pdfrwt beam="2">  1       -5 0.11136260E+00 0.13361294E+03</pdfrwt>
<totfact> 0.14615591E+02</totfact>
</mgrwt>
</event>
<event>
 8    1  0.1865596E-007  0.1983002E+03  0.7546771E-02  0.1151181E+00
         -5   -1    0    0    0  501 -0.00000000000E+00  0.00000000000E+00  0.39751749736E+03  0.39754528133E+03  0.47000000000E+01 0. -1.
          5   -1    0    0  501    0  0.00000000000E+00 -0.00000000000E+00 -0.23481879413E+03  0.23486582569E+03  0.47000000000E+01 0. -1.
         25    2    1    2    0    0  0.57822087561E+02 -0.14266879272E+03  0.32192418007E+03  0.37809808349E+03  0.12500081919E+03 0.  0.
         25    2    1    2    0    0 -0.57822087561E+02  0.14266879272E+03 -0.15922547684E+03  0.25431302354E+03  0.12499833295E+03 0.  0.
          5    1    4    4  502    0  0.13702398311E+02  0.66358089989E+02 -0.52609425372E+01  0.68124293338E+02  0.47000000000E+01 0.  1.
         -5    1    4    4    0  502 -0.71524485871E+02  0.76310702734E+02 -0.15396453430E+03  0.18618873020E+03  0.47000000000E+01 0.  1.
          5    1    3    3  503    0  0.37586003383E+02 -0.15032438320E+03  0.19428836401E+03  0.24855620335E+03  0.47000000000E+01 0. -1.
         -5    1    3    3    0  503  0.20236084177E+02  0.76555904789E+01  0.12763581606E+03  0.12954188014E+03  0.47000000000E+01 0. -1.
<mgrwt>
<rscale>  0 0.19829984E+03</rscale>
<asrwt>0</asrwt>
<pdfrwt beam="2">  1        5 0.36131724E-01 0.19830023E+03</pdfrwt>
<pdfrwt beam="1">  1       -5 0.61162292E-01 0.19830023E+03</pdfrwt>
<totfact> 0.14413105E+01</totfact>
</mgrwt>
</event>
<event>
 8    1  0.1865596E-007  0.1386436E+03  0.7546771E-02  0.1215169E+00
          5   -1    0    0  501    0  0.00000000000E+00  0.00000000000E+00  0.12114183383E+02  0.12993977030E+02  0.47000000000E+01 0. -1.
         -5   -1    0    0    0  501 -0.00000000000E+00 -0.00000000000E+00 -0.17798676922E+04  0.17798738977E+04  0.47000000000E+01 0. -1.
         25    2    1    2    0    0  0.96785702158E+01 -0.59171419181E+02 -0.12195831194E+04  0.12274384014E+04  0.12500844989E+03 0.  0.
         25    2    1    2    0    0 -0.96785702158E+01  0.59171419181E+02 -0.54817038941E+03  0.56542947332E+03  0.12499912764E+03 0.  0.
          5    1    3    3  502    0  0.41955568645E+02 -0.26025580798E+01 -0.91296009259E+03  0.91393942015E+03  0.47000000000E+01 0. -1.
         -5    1    3    3    0  502 -0.32276998429E+02 -0.56568861101E+02 -0.30662302677E+03  0.31349898121E+03  0.47000000000E+01 0. -1.
          5    1    4    4  503    0 -0.61244497484E+02  0.21071138138E+01 -0.23162026260E+03  0.23963589975E+03  0.47000000000E+01 0. -1.
         -5    1    4    4    0  503  0.51565927268E+02  0.57064305367E+02 -0.31655012681E+03  0.32579357358E+03  0.47000000000E+01 0. -1.
<mgrwt>
<rscale>  0 0.13864149E+03</rscale>
<asrwt>0</asrwt>
<pdfrwt beam="1">  1        5 0.19318757E-02 0.13864359E+03</pdfrwt>
<pdfrwt beam="2">  1       -5 0.27389375E+00 0.13864359E+03</pdfrwt>
<totfact> 0.35938573E+01</totfact>
</mgrwt>
</event>
<event>
 8    1  0.1865596E-007  0.1277674E+03  0.7546771E-02  0.1230812E+00
          5   -1    0    0  501    0  0.00000000000E+00  0.00000000000E+00  0.48173848950E+02  0.48402579711E+02  0.47000000000E+01 0.  1.
         -5   -1    0    0    0  501 -0.00000000000E+00 -0.00000000000E+00 -0.38190413125E+03  0.38193305103E+03  0.47000000000E+01 0.  1.
         25    2    1    2    0    0 -0.14354670631E+02  0.22155679066E+02 -0.23996821919E+03  0.27185587131E+03  0.12499575138E+03 0.  0.
         25    2    1    2    0    0  0.14354670631E+02 -0.22155679066E+02 -0.93762063111E+02  0.15847975942E+03  0.12501031551E+03 0.  0.
          5    1    3    3  502    0 -0.65271517683E+02  0.35853790305E+02 -0.13285925682E+03  0.15237958335E+03  0.47000000000E+01 0. -1.
         -5    1    3    3    0  502  0.50916847052E+02 -0.13698111239E+02 -0.10710896237E+03  0.11947628796E+03  0.47000000000E+01 0. -1.
          5    1    4    4  503    0 -0.21819235967E+02  0.58908473546E+01 -0.10790119700E+03  0.11034282693E+03  0.47000000000E+01 0.  1.
         -5    1    4    4    0  503  0.36173906598E+02 -0.28046526421E+02  0.14139133888E+02  0.48136932494E+02  0.47000000000E+01 0.  1.
<mgrwt>
<rscale>  0 0.12776384E+03</rscale>
<asrwt>0</asrwt>
<pdfrwt beam="1">  1        5 0.74311809E-02 0.12776740E+03</pdfrwt>
<pdfrwt beam="2">  1       -5 0.58774299E-01 0.12776740E+03</pdfrwt>
<totfact> 0.25432943E+02</totfact>
</mgrwt>
</event>
<event>
 8    1  0.1865596E-007  0.1615551E+03  0.7546771E-02  0.1186952E+00
         -5   -1    0    0    0  501 -0.00000000000E+00  0.00000000000E+00  0.12962149244E+03  0.12970667409E+03  0.47000000000E+01 0. -1.
          5   -1    0    0  501    0  0.00000000000E+00 -0.00000000000E+00 -0.21184765555E+03  0.21189978566E+03  0.47000000000E+01 0. -1.
         25    2    1    2    0    0 -0.26286467835E+02  0.98912886435E+02 -0.27908939402E+01  0.16157915977E+03  0.12500119315E+03 0.  0.
         25    2    1    2    0    0  0.26286467835E+02 -0.98912886435E+02 -0.79435269174E+02  0.18002729998E+03  0.12500051702E+03 0.  0.
          5    1    3    3  502    0  0.13185424121E+02  0.96458655196E+02  0.37958659748E+02  0.10459960526E+03  0.47000000000E+01 0.  1.
         -5    1    3    3    0  502 -0.39471891956E+02  0.24542312388E+01 -0.40749553688E+02  0.56979554503E+02  0.47000000000E+01 0.  1.
          5    1    4    4  503    0  0.21117076453E+02 -0.30059501957E+02 -0.10096959786E+03  0.10754745124E+03  0.47000000000E+01 0.  1.
         -5    1    4    4    0  503  0.51693913818E+01 -0.68853384478E+02  0.21534328690E+02  0.72479848740E+02  0.47000000000E+01 0.  1.
<mgrwt>
<rscale>  0 0.16155492E+03</rscale>
<asrwt>0</asrwt>
<pdfrwt beam="2">  1        5 0.32602510E-01 0.16155505E+03</pdfrwt>
<pdfrwt beam="1">  1       -5 0.19952330E-01 0.16155505E+03</pdfrwt>
<totfact> 0.16142403E+02</totfact>
</mgrwt>
</event>
<event>
 8    1  0.1865596E-007  0.1345313E+03  0.7546771E-02  0.1220883E+00
         -5   -1    0    0    0  501 -0.00000000000E+00  0.00000000000E+00  0.35593446007E+03  0.35596548971E+03  0.47000000000E+01 0. -1.
          5   -1    0    0  501    0  0.00000000000E+00 -0.00000000000E+00 -0.51082196309E+02  0.51297960776E+02  0.47000000000E+01 0. -1.
         25    2    1    2    0    0 -0.49468536521E+02 -0.50194197589E+01  0.13499972783E+03  0.19058749977E+03  0.12500535139E+03 0.  0.
         25    2    1    2    0    0  0.49468536521E+02  0.50194197589E+01  0.16985253593E+03  0.21667595071E+03  0.12500501180E+03 0.  0.
          5    1    4    4  502    0  0.87892863735E+02  0.14453943232E+02  0.14330772007E+03  0.16879948046E+03  0.47000000000E+01 0. -1.
         -5    1    4    4    0  502 -0.38424327215E+02 -0.94345234733E+01  0.26544815856E+02  0.47876470253E+02  0.47000000000E+01 0. -1.
          5    1    3    3  503    0 -0.56937683904E+02  0.91788993231E+01  0.15445398519E+03  0.16493718678E+03  0.47000000000E+01 0.  1.
         -5    1    3    3    0  503  0.74691473833E+01 -0.14198319082E+02 -0.19454257359E+02  0.25650312996E+02  0.47000000000E+01 0.  1.
<mgrwt>
<rscale>  0 0.13453121E+03</rscale>
<asrwt>0</asrwt>
<pdfrwt beam="2">  1        5 0.78777836E-02 0.13453129E+03</pdfrwt>
<pdfrwt beam="1">  1       -5 0.54778132E-01 0.13453129E+03</pdfrwt>
<totfact> 0.27305168E+02</totfact>
</mgrwt>
</event>
<event>
 8    1  0.1865596E-007  0.1597216E+03  0.7546771E-02  0.1189014E+00
          5   -1    0    0  501    0  0.00000000000E+00  0.00000000000E+00  0.19660148131E+03  0.19665765293E+03  0.47000000000E+01 0.  1.
         -5   -1    0    0    0  501 -0.00000000000E+00 -0.00000000000E+00 -0.13085637136E+03  0.13094074968E+03  0.47000000000E+01 0.  1.
         25    2    1    2    0    0  0.99166231871E+02 -0.70180806695E+01  0.17051004924E+02  0.16061905428E+03  0.12499819531E+03 0.  0.
         25    2    1    2    0    0 -0.99166231871E+02  0.70180806695E+01  0.48694105026E+02  0.16697934832E+03  0.12501116711E+03 0.  0.
          5    1    3    3  502    0 -0.29355033057E+02 -0.87880538173E+01  0.11665812947E+01  0.31022552564E+02  0.47000000000E+01 0.  1.
         -5    1    3    3    0  502  0.12852126493E+03  0.17699731478E+01  0.15884423629E+02  0.12959650172E+03  0.47000000000E+01 0.  1.
          5    1    4    4  503    0 -0.90145932189E+02  0.58288115639E+02  0.32545787670E+02  0.11227248911E+03  0.47000000000E+01 0. -1.
         -5    1    4    4    0  503 -0.90202996823E+01 -0.51270034969E+02  0.16148317356E+02  0.54706859218E+02  0.47000000000E+01 0. -1.
<mgrwt>
<rscale>  0 0.15971905E+03</rscale>
<asrwt>0</asrwt>
<pdfrwt beam="1">  1        5 0.30257193E-01 0.15972159E+03</pdfrwt>
<pdfrwt beam="2">  1       -5 0.20142561E-01 0.15972159E+03</pdfrwt>
<totfact> 0.18320058E+02</totfact>
</mgrwt>
</event>
<event>
 8    1  0.1865596E-007  0.2086283E+03  0.7546771E-02  0.1142659E+00
         -5   -1    0    0    0  501 -0.00000000000E+00  0.00000000000E+00  0.91719081023E+02  0.91839424125E+02  0.47000000000E+01 0. -1.
          5   -1    0    0  501    0  0.00000000000E+00 -0.00000000000E+00 -0.59549735147E+03  0.59551589870E+03  0.47000000000E+01 0. -1.
         25    2    1    2    0    0 -0.16205840166E+03 -0.40407137912E+02 -0.96721013352E+02  0.22994810906E+03  0.12500206437E+03 0.  0.
         25    2    1    2    0    0  0.16205840166E+03  0.40407137912E+02 -0.40705725709E+03  0.45740721376E+03  0.12502034358E+03 0.  0.
          5    1    3    3  502    0  0.10302300834E+02  0.22402473333E+02 -0.12258051961E+02  0.27934889508E+02  0.47000000000E+01 0.  1.
         -5    1    3    3    0  502 -0.17236070249E+03 -0.62809611246E+02 -0.84462961391E+02  0.20201321956E+03  0.47000000000E+01 0.  1.
          5    1    4    4  503    0  0.12269361487E+03 -0.30916293581E+02 -0.26137208883E+03  0.29042554839E+03  0.47000000000E+01 0. -1.
         -5    1    4    4    0  503  0.39364786788E+02  0.71323431493E+02 -0.14568516827E+03  0.16698166538E+03  0.47000000000E+01 0. -1.
<mgrwt>
<rscale>  0 0.20862552E+03</rscale>
<asrwt>0</asrwt>
<pdfrwt beam="2">  1        5 0.91625659E-01 0.20862825E+03</pdfrwt>
<pdfrwt beam="1">  1       -5 0.14121312E-01 0.20862825E+03</pdfrwt>
<totfact> 0.34626296E+01</totfact>
</mgrwt>
</event>
<event>
 8    1  0.1865596E-007  0.1629195E+03  0.7546771E-02  0.1185440E+00
         -5   -1    0    0    0  501 -0.00000000000E+00  0.00000000000E+00  0.18269597022E+03  0.18275641585E+03  0.47000000000E+01 0.  1.
          5   -1    0    0  501    0  0.00000000000E+00 -0.00000000000E+00 -0.14556438726E+03  0.14564024457E+03  0.47000000000E+01 0.  1.
         25    2    1    2    0    0 -0.90215941935E+02  0.52706715905E+02  0.27215029763E+02  0.16517695144E+03  0.12500341340E+03 0.  0.
         25    2    1    2    0    0  0.90215941935E+02 -0.52706715905E+02  0.99165531904E+01  0.16321970898E+03  0.12500168515E+03 0.  0.
          5    1    4    4  502    0  0.65114364140E+02 -0.93669611478E+02  0.12632444946E+02  0.11487186425E+03  0.47000000000E+01 0. -1.
         -5    1    4    4    0  502  0.25101577795E+02  0.40962895573E+02 -0.27158917560E+01  0.48347844725E+02  0.47000000000E+01 0. -1.
          5    1    3    3  503    0 -0.45730712489E+02  0.42563547947E+02 -0.46731786732E+02  0.78159475239E+02  0.47000000000E+01 0. -1.
         -5    1    3    3    0  503 -0.44485229447E+02  0.10143167958E+02  0.73946816495E+02  0.87017476204E+02  0.47000000000E+01 0. -1.
<mgrwt>
<rscale>  0 0.16291918E+03</rscale>
<asrwt>0</asrwt>
<pdfrwt beam="2">  1        5 0.22405006E-01 0.16291951E+03</pdfrwt>
<pdfrwt beam="1">  1       -5 0.28117557E-01 0.16291951E+03</pdfrwt>
<totfact> 0.17414144E+02</totfact>
</mgrwt>
</event>
<event>
 8    1  0.1865596E-007  0.1255523E+03  0.7546771E-02  0.1234210E+00
         -5   -1    0    0    0  501 -0.00000000000E+00  0.00000000000E+00  0.10975562021E+04  0.10975662653E+04  0.47000000000E+01 0. -1.
          5   -1    0    0  501    0  0.00000000000E+00 -0.00000000000E+00 -0.17315725823E+02  0.17942250716E+02  0.47000000000E+01 0. -1.
         25    2    1    2    0    0  0.11632294461E+02 -0.18452798167E+01  0.78053183072E+03  0.79056443695E+03  0.12499389931E+03 0.  0.
         25    2    1    2    0    0 -0.11632294461E+02  0.18452798167E+01  0.29970864557E+03  0.32494407910E+03  0.12499866792E+03 0.  0.
          5    1    3    3  502    0  0.48206804178E+02  0.39925390435E+02  0.28047869065E+03  0.28741662909E+03  0.47000000000E+01 0.  1.
         -5    1    3    3    0  502 -0.36574509716E+02 -0.41770670251E+02  0.50005314008E+03  0.50314780786E+03  0.47000000000E+01 0.  1.
          5    1    4    4  503    0 -0.84470970484E+00 -0.31740403672E+02  0.28439695714E+03  0.28620252618E+03  0.47000000000E+01 0. -1.
         -5    1    4    4    0  503 -0.10787584756E+02  0.33585683488E+02  0.15311688426E+02  0.38741552921E+02  0.47000000000E+01 0. -1.
<mgrwt>
<rscale>  0 0.12555112E+03</rscale>
<asrwt>0</asrwt>
<pdfrwt beam="2">  1        5 0.27129252E-02 0.12555231E+03</pdfrwt>
<pdfrwt beam="1">  1       -5 0.16890383E+00 0.12555231E+03</pdfrwt>
<totfact> 0.10020554E+02</totfact>
</mgrwt>
</event>
<event>
 8    1  0.1865596E-007  0.1255757E+03  0.7546771E-02  0.1234172E+00
          5   -1    0    0  501    0  0.00000000000E+00  0.00000000000E+00  0.56019718862E+03  0.56021690454E+03  0.47000000000E+01 0.  1.
         -5   -1    0    0    0  501 -0.00000000000E+00 -0.00000000000E+00 -0.32244973960E+02  0.32585707691E+02  0.47000000000E+01 0.  1.
         25    2    1    2    0    0 -0.11487148421E+02  0.34652696190E+01  0.15622858467E+03  0.20044110961E+03  0.12500122032E+03 0.  0.
         25    2    1    2    0    0  0.11487148421E+02 -0.34652696190E+01  0.37172362999E+03  0.39236150262E+03  0.12500051590E+03 0.  0.
          5    1    4    4  502    0 -0.11417388427E+00  0.59828243238E+02  0.20446294807E+03  0.21308828888E+03  0.47000000000E+01 0. -1.
         -5    1    4    4    0  502  0.11601322305E+02 -0.63293512857E+02  0.16726068192E+03  0.17927321374E+03  0.47000000000E+01 0. -1.
          5    1    3    3  503    0  0.15563961205E+02 -0.53128901641E+02  0.40613532450E+02  0.68821988463E+02  0.47000000000E+01 0.  1.
         -5    1    3    3    0  503 -0.27051109625E+02  0.56594171260E+02  0.11561505222E+03  0.13161912115E+03  0.47000000000E+01 0.  1.
<mgrwt>
<rscale>  0 0.12557557E+03</rscale>
<asrwt>0</asrwt>
<pdfrwt beam="1">  1        5 0.86211908E-01 0.12557575E+03</pdfrwt>
<pdfrwt beam="2">  1       -5 0.49884922E-02 0.12557575E+03</pdfrwt>
<totfact> 0.20789448E+02</totfact>
</mgrwt>
</event>
<event>
 8    1  0.1865596E-007  0.1462666E+03  0.7546771E-02  0.1205137E+00
          5   -1    0    0  501    0  0.00000000000E+00  0.00000000000E+00  0.13380922269E+03  0.13389174014E+03  0.47000000000E+01 0. -1.
         -5   -1    0    0    0  501 -0.00000000000E+00 -0.00000000000E+00 -0.19648214683E+03  0.19653835255E+03  0.47000000000E+01 0. -1.
         25    2    1    2    0    0  0.51051739529E+02 -0.56237104893E+02 -0.10277780340E+03  0.17876495913E+03  0.12499896665E+03 0.  0.
         25    2    1    2    0    0 -0.51051739529E+02  0.56237104893E+02  0.40104879259E+02  0.15166513357E+03  0.12500007729E+03 0.  0.
          5    1    4    4  502    0 -0.37960918573E+02 -0.15076137575E+02  0.63225636345E+02  0.75418116884E+02  0.47000000000E+01 0.  1.
         -5    1    4    4    0  502 -0.13090820956E+02  0.71313242468E+02 -0.23120757086E+02  0.76247016682E+02  0.47000000000E+01 0.  1.
          5    1    3    3  503    0 -0.39289372696E+02 -0.35270546282E+02 -0.43758989730E+02  0.68735765247E+02  0.47000000000E+01 0.  1.
         -5    1    3    3    0  503  0.90341112225E+02 -0.20966558611E+02 -0.59018813673E+02  0.11002919388E+03  0.47000000000E+01 0.  1.
<mgrwt>
<rscale>  0 0.14626634E+03</rscale>
<asrwt>0</asrwt>
<pdfrwt beam="1">  1        5 0.20596705E-01 0.14626658E+03</pdfrwt>
<pdfrwt beam="2">  1       -5 0.30238694E-01 0.14626658E+03</pdfrwt>
<totfact> 0.17093538E+02</totfact>
</mgrwt>
</event>
<event>
 8    1  0.1865596E-007  0.1388241E+03  0.7546771E-02  0.1214920E+00
          5   -1    0    0  501    0  0.00000000000E+00  0.00000000000E+00  0.58517394315E+03  0.58519281757E+03  0.47000000000E+01 0. -1.
         -5   -1    0    0    0  501 -0.00000000000E+00 -0.00000000000E+00 -0.32933417723E+02  0.33267100909E+02  0.47000000000E+01 0. -1.
         25    2    1    2    0    0 -0.58855160937E+02 -0.13516160665E+02  0.25295007865E+03  0.28854095729E+03  0.12500210069E+03 0.  0.
         25    2    1    2    0    0  0.58855160937E+02  0.13516160665E+02  0.29929044677E+03  0.32991896119E+03  0.12500053142E+03 0.  0.
          5    1    4    4  502    0  0.70914606512E+02 -0.36656859836E+02  0.22924035152E+03  0.24278763468E+03  0.47000000000E+01 0. -1.
         -5    1    4    4    0  502 -0.12059445575E+02  0.50173020501E+02  0.70050095256E+02  0.87131326509E+02  0.47000000000E+01 0. -1.
          5    1    3    3  503    0 -0.95558657089E+01  0.53598670825E+02  0.85575073776E+02  0.10153479864E+03  0.47000000000E+01 0.  1.
         -5    1    3    3    0  503 -0.49299295228E+02 -0.67114831490E+02  0.16737500487E+03  0.18700615865E+03  0.47000000000E+01 0.  1.
<mgrwt>
<rscale>  0 0.13882379E+03</rscale>
<asrwt>0</asrwt>
<pdfrwt beam="1">  1        5 0.90053877E-01 0.13882414E+03</pdfrwt>
<pdfrwt beam="2">  1       -5 0.50937997E-02 0.13882414E+03</pdfrwt>
<totfact> 0.18751889E+02</totfact>
</mgrwt>
</event>
<event>
 8    1  0.1865596E-007  0.1551735E+03  0.7546771E-02  0.1194257E+00
          5   -1    0    0  501    0  0.00000000000E+00  0.00000000000E+00  0.44140889755E+03  0.44143391899E+03  0.47000000000E+01 0.  1.
         -5   -1    0    0    0  501 -0.00000000000E+00 -0.00000000000E+00 -0.56112513874E+02  0.56309006502E+02  0.47000000000E+01 0.  1.
         25    2    1    2    0    0 -0.13118282933E+02  0.90998138197E+02  0.14951814552E+03  0.21548384275E+03  0.12499944057E+03 0.  0.
         25    2    1    2    0    0  0.13118282933E+02 -0.90998138197E+02  0.23577823815E+03  0.28225908274E+03  0.12500424673E+03 0.  0.
          5    1    4    4  502    0  0.13284267779E+01 -0.11947519528E+03  0.15564337444E+03  0.19627286367E+03  0.47000000000E+01 0.  1.
         -5    1    4    4    0  502  0.11789856156E+02  0.28477057085E+02  0.80134863709E+02  0.85986219071E+02  0.47000000000E+01 0.  1.
          5    1    3    3  503    0 -0.31800643241E+02 -0.17175373557E+02  0.72990633045E+02  0.81584293094E+02  0.47000000000E+01 0. -1.
         -5    1    3    3    0  503  0.18682360308E+02  0.10817351175E+03  0.76527512479E+02  0.13389954966E+03  0.47000000000E+01 0. -1.
<mgrwt>
<rscale>  0 0.15517252E+03</rscale>
<asrwt>0</asrwt>
<pdfrwt beam="1">  1        5 0.67926100E-01 0.15517349E+03</pdfrwt>
<pdfrwt beam="2">  1       -5 0.86497341E-02 0.15517349E+03</pdfrwt>
<totfact> 0.15191361E+02</totfact>
</mgrwt>
</event>
<event>
 8    1  0.1865596E-007  0.1263847E+03  0.7546771E-02  0.1232939E+00
         -5   -1    0    0    0  501 -0.00000000000E+00  0.00000000000E+00  0.43057510763E+02  0.43313268557E+02  0.47000000000E+01 0.  1.
          5   -1    0    0  501    0  0.00000000000E+00 -0.00000000000E+00 -0.39944304622E+03  0.39947069626E+03  0.47000000000E+01 0.  1.
         25    2    1    2    0    0 -0.18232392921E+02  0.17981584069E+01 -0.11753051689E+03  0.17255291131E+03  0.12500172510E+03 0.  0.
         25    2    1    2    0    0  0.18232392921E+02 -0.17981584069E+01 -0.23885501857E+03  0.27023105350E+03  0.12504978552E+03 0.  0.
          5    1    4    4  502    0 -0.29223344736E+02 -0.50221427976E+02 -0.11634036257E+03  0.13012826622E+03  0.47000000000E+01 0. -1.
         -5    1    4    4    0  502  0.47455737657E+02  0.48423269569E+02 -0.12251465600E+03  0.14010278729E+03  0.47000000000E+01 0. -1.
          5    1    3    3  503    0 -0.44994135847E+02 -0.31894225062E+02 -0.94828258319E+01  0.56158061208E+02  0.47000000000E+01 0.  1.
         -5    1    3    3    0  503  0.26761742926E+02  0.33692383468E+02 -0.10804769106E+03  0.11639485010E+03  0.47000000000E+01 0.  1.
<mgrwt>
<rscale>  0 0.12637285E+03</rscale>
<asrwt>0</asrwt>
<pdfrwt beam="2">  1        5 0.61474574E-01 0.12638474E+03</pdfrwt>
<pdfrwt beam="1">  1       -5 0.66460333E-02 0.12638474E+03</pdfrwt>
<totfact> 0.27753249E+02</totfact>
</mgrwt>
</event>
<event>
 8    1  0.1865596E-007  0.1283062E+03  0.7546771E-02  0.1229991E+00
         -5   -1    0    0    0  501 -0.00000000000E+00  0.00000000000E+00  0.36530516204E+03  0.36533539578E+03  0.47000000000E+01 0. -1.
          5   -1    0    0  501    0  0.00000000000E+00 -0.00000000000E+00 -0.45159127787E+02  0.45403048603E+02  0.47000000000E+01 0. -1.
         25    2    1    2    0    0  0.26330703629E+02 -0.11996137007E+02  0.17527257923E+03  0.21721635967E+03  0.12500102648E+03 0.  0.
         25    2    1    2    0    0 -0.26330703629E+02  0.11996137007E+02  0.14487345501E+03  0.19352208471E+03  0.12500106418E+03 0.  0.
          5    1    3    3  502    0  0.58803755545E+02 -0.21750228161E+02  0.33244116389E+02  0.71121131640E+02  0.47000000000E+01 0. -1.
         -5    1    3    3    0  502 -0.32473051916E+02  0.97540911548E+01  0.14202846285E+03  0.14609522803E+03  0.47000000000E+01 0. -1.
          5    1    4    4  503    0  0.23904728938E+02 -0.24993568668E+02 -0.87521259817E+00  0.34913758569E+02  0.47000000000E+01 0.  1.
         -5    1    4    4    0  503 -0.50235432567E+02  0.36989705675E+02  0.14574866761E+03  0.15860832614E+03  0.47000000000E+01 0.  1.
<mgrwt>
<rscale>  0 0.12830618E+03</rscale>
<asrwt>0</asrwt>
<pdfrwt beam="2">  1        5 0.69686469E-02 0.12830619E+03</pdfrwt>
<pdfrwt beam="1">  1       -5 0.56221883E-01 0.12830619E+03</pdfrwt>
<totfact> 0.31282177E+02</totfact>
</mgrwt>
</event>
<event>
 8    1  0.1865596E-007  0.2229836E+03  0.7546771E-02  0.1131679E+00
          5   -1    0    0  501    0  0.00000000000E+00  0.00000000000E+00  0.11519429041E+03  0.11529013203E+03  0.47000000000E+01 0.  1.
         -5   -1    0    0    0  501 -0.00000000000E+00 -0.00000000000E+00 -0.43264615869E+03  0.43267168688E+03  0.47000000000E+01 0.  1.
         25    2    1    2    0    0  0.74865208169E+02  0.16879937032E+03 -0.14367034382E+03  0.26526000339E+03  0.12499469944E+03 0.  0.
         25    2    1    2    0    0 -0.74865208169E+02 -0.16879937032E+03 -0.17378152446E+03  0.28270181553E+03  0.12498908529E+03 0.  0.
          5    1    3    3  502    0  0.10472232183E+03  0.11621518909E+03 -0.12909849547E+03  0.20288234619E+03  0.47000000000E+01 0. -1.
         -5    1    3    3    0  502 -0.29857113665E+02  0.52584181235E+02 -0.14571848350E+02  0.62377657193E+02  0.47000000000E+01 0. -1.
          5    1    4    4  503    0 -0.62872305345E+01 -0.14490973093E+03 -0.14283587969E+03  0.20362352004E+03  0.47000000000E+01 0. -1.
         -5    1    4    4    0  503 -0.68577977634E+02 -0.23889639392E+02 -0.30945644767E+02  0.79078295484E+02  0.47000000000E+01 0. -1.
<mgrwt>
<rscale>  0 0.22298285E+03</rscale>
<asrwt>0</asrwt>
<pdfrwt beam="1">  1        5 0.17731535E-01 0.22298364E+03</pdfrwt>
<pdfrwt beam="2">  1       -5 0.66570283E-01 0.22298364E+03</pdfrwt>
<totfact> 0.48730112E+01</totfact>
</mgrwt>
</event>
<event>
 8    1  0.1865596E-007  0.1708973E+03  0.7546771E-02  0.1176925E+00
         -5   -1    0    0    0  501 -0.00000000000E+00  0.00000000000E+00  0.24566570696E+02  0.25012124975E+02  0.47000000000E+01 0.  1.
          5   -1    0    0  501    0  0.00000000000E+00 -0.00000000000E+00 -0.11777990717E+04  0.11778084493E+04  0.47000000000E+01 0.  1.
         25    2    1    2    0    0  0.78913903900E+02 -0.85677295924E+02 -0.58692288629E+03  0.61129726552E+03  0.12505146584E+03 0.  0.
         25    2    1    2    0    0 -0.78913903900E+02  0.85677295924E+02 -0.56630961471E+03  0.59152330878E+03  0.12500096740E+03 0.  0.
          5    1    4    4  502    0 -0.91295995248E+02  0.85236973433E+02 -0.30148380011E+03  0.32636616264E+03  0.47000000000E+01 0. -1.
         -5    1    4    4    0  502  0.12382091348E+02  0.44032249103E+00 -0.26482581460E+03  0.26515714614E+03  0.47000000000E+01 0. -1.
          5    1    3    3  503    0  0.20365287634E+01 -0.57345242527E+02 -0.84708939982E+02  0.10242225736E+03  0.47000000000E+01 0.  1.
         -5    1    3    3    0  503  0.76877375137E+02 -0.28332053398E+02 -0.50221394631E+03  0.50887500816E+03  0.47000000000E+01 0.  1.
<mgrwt>
<rscale>  0 0.17088802E+03</rscale>
<asrwt>0</asrwt>
<pdfrwt beam="2">  1        5 0.18123481E+00 0.17089726E+03</pdfrwt>
<pdfrwt beam="1">  1       -5 0.38144681E-02 0.17089726E+03</pdfrwt>
<totfact> 0.51361748E+01</totfact>
</mgrwt>
</event>
<event>
 8    1  0.1865596E-007  0.1446337E+03  0.7546771E-02  0.1207228E+00
          5   -1    0    0  501    0  0.00000000000E+00  0.00000000000E+00  0.97212555100E+02  0.97326105795E+02  0.47000000000E+01 0.  1.
         -5   -1    0    0    0  501 -0.00000000000E+00 -0.00000000000E+00 -0.24368351501E+03  0.24372883598E+03  0.47000000000E+01 0.  1.
         25    2    1    2    0    0 -0.12245394035E+02  0.71721461486E+02 -0.13180603612E+03  0.19568277256E+03  0.12499999442E+03 0.  0.
         25    2    1    2    0    0  0.12245394035E+02 -0.71721461486E+02 -0.14664923795E+02  0.14537216922E+03  0.12499635947E+03 0.  0.
          5    1    3    3  502    0 -0.57566597505E+01  0.94984607003E+02 -0.14035353162E+03  0.16963613570E+03  0.47000000000E+01 0. -1.
         -5    1    3    3    0  502 -0.64887342844E+01 -0.23263145517E+02  0.85474955020E+01  0.26046636852E+02  0.47000000000E+01 0. -1.
          5    1    4    4  503    0  0.35357124059E+02 -0.22137510069E+02  0.46856980204E+02  0.62911542404E+02  0.47000000000E+01 0. -1.
         -5    1    4    4    0  503 -0.23111730025E+02 -0.49583951417E+02 -0.61521903999E+02  0.82460626814E+02  0.47000000000E+01 0. -1.
<mgrwt>
<rscale>  0 0.14463295E+03</rscale>
<asrwt>0</asrwt>
<pdfrwt beam="1">  1        5 0.14967999E-01 0.14463373E+03</pdfrwt>
<pdfrwt beam="2">  1       -5 0.37501992E-01 0.14463373E+03</pdfrwt>
<totfact> 0.19951001E+02</totfact>
</mgrwt>
</event>
<event>
 8    1  0.1865596E-007  0.2300865E+03  0.7546771E-02  0.1126579E+00
          5   -1    0    0  501    0  0.00000000000E+00  0.00000000000E+00  0.11024217215E+04  0.11024317403E+04  0.47000000000E+01 0. -1.
         -5   -1    0    0    0  501 -0.00000000000E+00 -0.00000000000E+00 -0.52699080506E+02  0.52908251589E+02  0.47000000000E+01 0. -1.
         25    2    1    2    0    0  0.62490412981E+02 -0.18278174520E+03  0.35083732529E+03  0.41955437937E+03  0.12499932134E+03 0.  0.
         25    2    1    2    0    0 -0.62490412981E+02  0.18278174520E+03  0.69888531570E+03  0.73578561253E+03  0.12500226002E+03 0.  0.
          5    1    3    3  502    0  0.52381899044E+02 -0.18749541184E+03  0.24469265901E+03  0.31272188952E+03  0.47000000000E+01 0. -1.
         -5    1    3    3    0  502  0.10108513937E+02  0.47136666445E+01  0.10614466628E+03  0.10683248985E+03  0.47000000000E+01 0. -1.
          5    1    4    4  503    0  0.23973910915E+02  0.67128267292E+02  0.12479510487E+03  0.14379450919E+03  0.47000000000E+01 0. -1.
         -5    1    4    4    0  503 -0.86464323896E+02  0.11565347791E+03  0.57409021083E+03  0.59199110334E+03  0.47000000000E+01 0. -1.
<mgrwt>
<rscale>  0 0.23008607E+03</rscale>
<asrwt>0</asrwt>
<pdfrwt beam="1">  1        5 0.16962019E+00 0.23008647E+03</pdfrwt>
<pdfrwt beam="2">  1       -5 0.81244122E-02 0.23008647E+03</pdfrwt>
<totfact> 0.18755604E+01</totfact>
</mgrwt>
</event>
<event>
 8    1  0.1865596E-007  0.1515353E+03  0.7546771E-02  0.1198601E+00
          5   -1    0    0  501    0  0.00000000000E+00  0.00000000000E+00  0.17809198965E+03  0.17815399737E+03  0.47000000000E+01 0.  1.
         -5   -1    0    0    0  501 -0.00000000000E+00 -0.00000000000E+00 -0.18034675563E+03  0.18040798837E+03  0.47000000000E+01 0.  1.
         25    2    1    2    0    0 -0.41731834938E+02 -0.74798273316E+02 -0.96934017355E+02  0.17988040858E+03  0.12499771970E+03 0.  0.
         25    2    1    2    0    0  0.41731834938E+02  0.74798273316E+02  0.94679251372E+02  0.17868157716E+03  0.12500647038E+03 0.  0.
          5    1    3    3  502    0 -0.54634522329E+02 -0.10484723725E+03 -0.72208665437E+02  0.13861477393E+03  0.47000000000E+01 0.  1.
         -5    1    3    3    0  502  0.12902687391E+02  0.30048963930E+02 -0.24725351918E+02  0.41265634644E+02  0.47000000000E+01 0.  1.
          5    1    4    4  503    0 -0.11935225712E+01 -0.32388869687E+02  0.66623483813E+01  0.33420656213E+02  0.47000000000E+01 0.  1.
         -5    1    4    4    0  503  0.42925357510E+02  0.10718714300E+03  0.88016902990E+02  0.14526092095E+03  0.47000000000E+01 0.  1.
<mgrwt>
<rscale>  0 0.15153349E+03</rscale>
<asrwt>0</asrwt>
<pdfrwt beam="1">  1        5 0.27408248E-01 0.15153529E+03</pdfrwt>
<pdfrwt beam="2">  1       -5 0.27755135E-01 0.15153529E+03</pdfrwt>
<totfact> 0.11856266E+02</totfact>
</mgrwt>
</event>
<event>
 8    1  0.1865596E-007  0.1470108E+03  0.7546771E-02  0.1204202E+00
         -5   -1    0    0    0  501 -0.00000000000E+00  0.00000000000E+00  0.28633064464E+03  0.28636921633E+03  0.47000000000E+01 0.  1.
          5   -1    0    0  501    0  0.00000000000E+00 -0.00000000000E+00 -0.81740376771E+02  0.81875388211E+02  0.47000000000E+01 0.  1.
         25    2    1    2    0    0  0.76126727916E+02  0.13839331544E+02  0.15370827078E+03  0.21267742353E+03  0.12497459011E+03 0.  0.
         25    2    1    2    0    0 -0.76126727916E+02 -0.13839331544E+02  0.50881997083E+02  0.15556718100E+03  0.12500145750E+03 0.  0.
          5    1    4    4  502    0 -0.62081783289E+02  0.33615349099E+02  0.72548525783E+02  0.10133863086E+03  0.47000000000E+01 0.  1.
         -5    1    4    4    0  502 -0.14044944627E+02 -0.47454680643E+02 -0.21666528700E+02  0.54228550141E+02  0.47000000000E+01 0.  1.
          5    1    3    3  503    0 -0.53162406396E+01 -0.20404236293E+02  0.11342549876E+03  0.11546440595E+03  0.47000000000E+01 0. -1.
         -5    1    3    3    0  503  0.81442968556E+02  0.34243567837E+02  0.40282772025E+02  0.97213017582E+02  0.47000000000E+01 0. -1.
<mgrwt>
<rscale>  0 0.14700507E+03</rscale>
<asrwt>0</asrwt>
<pdfrwt beam="2">  1        5 0.12588795E-01 0.14701078E+03</pdfrwt>
<pdfrwt beam="1">  1       -5 0.44064221E-01 0.14701078E+03</pdfrwt>
<totfact> 0.19662725E+02</totfact>
</mgrwt>
</event>
<event>
 8    1  0.1865596E-007  0.1567025E+03  0.7546771E-02  0.1192471E+00
         -5   -1    0    0    0  501 -0.00000000000E+00  0.00000000000E+00  0.72413624151E+03  0.72415149400E+03  0.47000000000E+01 0. -1.
          5   -1    0    0  501    0  0.00000000000E+00 -0.00000000000E+00 -0.36074185653E+02  0.36379071876E+02  0.47000000000E+01 0. -1.
         25    2    1    2    0    0  0.27745845696E+02 -0.90331987615E+02  0.44049886692E+03  0.46754043600E+03  0.12500043037E+03 0.  0.
         25    2    1    2    0    0 -0.27745845696E+02  0.90331987615E+02  0.24756318894E+03  0.29299012988E+03  0.12500393495E+03 0.  0.
          5    1    4    4  502    0 -0.63954527284E+02  0.86024759883E+02  0.22647432684E+03  0.25060556975E+03  0.47000000000E+01 0. -1.
         -5    1    4    4    0  502  0.36208681588E+02  0.43072277319E+01  0.21088862100E+02  0.42384560134E+02  0.47000000000E+01 0. -1.
          5    1    3    3  503    0  0.29012617700E+02 -0.11785973511E+03  0.28909095199E+03  0.31357346454E+03  0.47000000000E+01 0.  1.
         -5    1    3    3    0  503 -0.12667720039E+01  0.27527747495E+02  0.15140791493E+03  0.15396697145E+03  0.47000000000E+01 0.  1.
<mgrwt>
<rscale>  0 0.15670183E+03</rscale>
<asrwt>0</asrwt>
<pdfrwt beam="2">  1        5 0.55745010E-02 0.15670253E+03</pdfrwt>
<pdfrwt beam="1">  1       -5 0.11143020E+00 0.15670253E+03</pdfrwt>
<totfact> 0.99718376E+01</totfact>
</mgrwt>
</event>
<event>
 8    1  0.1865596E-007  0.1283508E+03  0.7546771E-02  0.1229932E+00
          5   -1    0    0  501    0  0.00000000000E+00  0.00000000000E+00  0.23140710222E+02  0.23613184232E+02  0.47000000000E+01 0.  1.
         -5   -1    0    0    0  501 -0.00000000000E+00 -0.00000000000E+00 -0.70633473408E+03  0.70635037097E+03  0.47000000000E+01 0.  1.
         25    2    1    2    0    0  0.27167163012E+02  0.10508277749E+02 -0.36208257830E+03  0.38415075126E+03  0.12497810825E+03 0.  0.
         25    2    1    2    0    0 -0.27167163012E+02 -0.10508277749E+02 -0.32111144556E+03  0.34581280394E+03  0.12500182499E+03 0.  0.
          5    1    3    3  502    0  0.28485371465E+00 -0.56103862735E+02 -0.16374135294E+03  0.17315035436E+03  0.47000000000E+01 0. -1.
         -5    1    3    3    0  502  0.26882309298E+02  0.66612140484E+02 -0.19834122536E+03  0.21100039690E+03  0.47000000000E+01 0. -1.
          5    1    4    4  503    0 -0.30564525113E+02 -0.14012146442E+02 -0.33159597546E+03  0.33332943372E+03  0.47000000000E+01 0. -1.
         -5    1    4    4    0  503  0.33973621008E+01  0.35038686931E+01  0.10484529894E+02  0.12483370224E+02  0.47000000000E+01 0. -1.
<mgrwt>
<rscale>  0 0.12834505E+03</rscale>
<asrwt>0</asrwt>
<pdfrwt beam="1">  1        5 0.35976568E-02 0.12835083E+03</pdfrwt>
<pdfrwt beam="2">  1       -5 0.10870441E+00 0.12835083E+03</pdfrwt>
<totfact> 0.20495768E+02</totfact>
</mgrwt>
</event>
<event>
 8    1  0.1865596E-007  0.1517951E+03  0.7546771E-02  0.1198290E+00
          5   -1    0    0  501    0  0.00000000000E+00  0.00000000000E+00  0.20694905053E+03  0.20700241428E+03  0.47000000000E+01 0. -1.
         -5   -1    0    0    0  501 -0.00000000000E+00 -0.00000000000E+00 -0.19604460611E+03  0.19610093724E+03  0.47000000000E+01 0. -1.
         25    2    1    2    0    0 -0.51909629588E+02 -0.68698013640E+02 -0.12708891424E+03  0.19795969525E+03  0.12498968797E+03 0.  0.
         25    2    1    2    0    0  0.51909629588E+02  0.68698013640E+02  0.13799335865E+03  0.20514365627E+03  0.12501090333E+03 0.  0.
          5    1    3    3  502    0 -0.74418983335E+02 -0.91437010715E+02 -0.87787080266E+02  0.14706316150E+03  0.47000000000E+01 0. -1.
         -5    1    3    3    0  502  0.22509353747E+02  0.22738997076E+02 -0.39301833969E+02  0.50896533747E+02  0.47000000000E+01 0. -1.
          5    1    4    4  503    0 -0.83463344319E+01  0.14483028394E+02 -0.20620099727E+02  0.26957335229E+02  0.47000000000E+01 0. -1.
         -5    1    4    4    0  503  0.60255964020E+02  0.54214985246E+02  0.15861345838E+03  0.17818632104E+03  0.47000000000E+01 0. -1.
<mgrwt>
<rscale>  0 0.15179073E+03</rscale>
<asrwt>0</asrwt>
<pdfrwt beam="1">  1        5 0.31846753E-01 0.15179510E+03</pdfrwt>
<pdfrwt beam="2">  1       -5 0.30169147E-01 0.15179510E+03</pdfrwt>
<totfact> 0.75063550E+01</totfact>
</mgrwt>
</event>
<event>
 8    1  0.1865596E-007  0.1859770E+03  0.7546771E-02  0.1162142E+00
         -5   -1    0    0    0  501 -0.00000000000E+00  0.00000000000E+00  0.22320702963E+04  0.22320752446E+04  0.47000000000E+01 0. -1.
          5   -1    0    0  501    0  0.00000000000E+00 -0.00000000000E+00 -0.15851421647E+02  0.16533528608E+02  0.47000000000E+01 0. -1.
         25    2    1    2    0    0  0.11970132041E+03 -0.68071365410E+02  0.13422300186E+04  0.13550530853E+04  0.12500129701E+03 0.  0.
         25    2    1    2    0    0 -0.11970132041E+03  0.68071365410E+02  0.87398885610E+03  0.89355568797E+03  0.12499251986E+03 0.  0.
          5    1    3    3  502    0  0.46573082667E+02  0.21866534608E+02  0.73674320351E+03  0.73855252710E+03  0.47000000000E+01 0.  1.
         -5    1    3    3    0  502  0.73128237739E+02 -0.89937900018E+02  0.60548681506E+03  0.61650055817E+03  0.47000000000E+01 0.  1.
          5    1    4    4  503    0 -0.75337366485E+02  0.23796833512E+02  0.17883276431E+03  0.19556394265E+03  0.47000000000E+01 0. -1.
         -5    1    4    4    0  503 -0.44363953921E+02  0.44274531898E+02  0.69515609179E+03  0.69799174532E+03  0.47000000000E+01 0. -1.
<mgrwt>
<rscale>  0 0.18597552E+03</rscale>
<asrwt>0</asrwt>
<pdfrwt beam="2">  1        5 0.24915336E-02 0.18597699E+03</pdfrwt>
<pdfrwt beam="1">  1       -5 0.34344788E+00 0.18597699E+03</pdfrwt>
<totfact> 0.91417946E+00</totfact>
</mgrwt>
</event>
<event>
 8    1  0.1865596E-007  0.1263778E+03  0.7546771E-02  0.1232937E+00
          5   -1    0    0  501    0  0.00000000000E+00  0.00000000000E+00  0.44678114032E+03  0.44680586092E+03  0.47000000000E+01 0. -1.
         -5   -1    0    0    0  501 -0.00000000000E+00 -0.00000000000E+00 -0.11823923717E+03  0.11833261261E+03  0.47000000000E+01 0. -1.
         25    2    1    2    0    0  0.86745184248E+01 -0.16328402105E+02 -0.71784176552E+02  0.14534207703E+03  0.12501794818E+03 0.  0.
         25    2    1    2    0    0 -0.86745184248E+01  0.16328402105E+02  0.40032607970E+03  0.41979639649E+03  0.12500472165E+03 0.  0.
          5    1    4    4  502    0  0.17287437561E+02 -0.12059252998E+02  0.44771519582E+01  0.22054840057E+02  0.47000000000E+01 0. -1.
         -5    1    4    4    0  502 -0.25961955986E+02  0.28387655103E+02  0.39584892774E+03  0.39774155644E+03  0.47000000000E+01 0. -1.
          5    1    3    3  503    0 -0.15360614336E+02 -0.67279667491E+02 -0.31996067402E+02  0.76212469187E+02  0.47000000000E+01 0. -1.
         -5    1    3    3    0  503  0.24035132761E+02  0.50951265386E+02 -0.39788109150E+02  0.69129607846E+02  0.47000000000E+01 0. -1.
<mgrwt>
<rscale>  0 0.12637454E+03</rscale>
<asrwt>0</asrwt>
<pdfrwt beam="1">  1        5 0.68744644E-01 0.12637781E+03</pdfrwt>
<pdfrwt beam="2">  1       -5 0.18199736E-01 0.12637781E+03</pdfrwt>
<totfact> 0.36793313E+01</totfact>
</mgrwt>
</event>
<event>
 8    1  0.1865596E-007  0.2209366E+03  0.7546771E-02  0.1133187E+00
          5   -1    0    0  501    0  0.00000000000E+00  0.00000000000E+00  0.66260289608E+03  0.66261956498E+03  0.47000000000E+01 0. -1.
         -5   -1    0    0    0  501 -0.00000000000E+00 -0.00000000000E+00 -0.73661902308E+02  0.73811691835E+02  0.47000000000E+01 0. -1.
         25    2    1    2    0    0 -0.18181000326E+03  0.11526102193E+02  0.30707170233E+03  0.37829263139E+03  0.12499822511E+03 0.  0.
         25    2    1    2    0    0  0.18181000326E+03 -0.11526102193E+02  0.28186929145E+03  0.35813862543E+03  0.12500099697E+03 0.  0.
          5    1    3    3  502    0 -0.24792190782E+02  0.40063469608E+02  0.23488948514E+02  0.52854091829E+02  0.47000000000E+01 0.  1.
         -5    1    3    3    0  502 -0.15701781248E+03 -0.28537367415E+02  0.28358275381E+03  0.32543853956E+03  0.47000000000E+01 0.  1.
          5    1    4    4  503    0  0.43040390510E+01  0.29433685361E+02  0.83533336347E+02  0.88796254805E+02  0.47000000000E+01 0.  1.
         -5    1    4    4    0  503  0.17750596421E+03 -0.40959787554E+02  0.19833595510E+03  0.26934237062E+03  0.47000000000E+01 0.  1.
<mgrwt>
<rscale>  0 0.22093620E+03</rscale>
<asrwt>0</asrwt>
<pdfrwt beam="1">  1        5 0.10195171E+00 0.22093659E+03</pdfrwt>
<pdfrwt beam="2">  1       -5 0.11345404E-01 0.22093659E+03</pdfrwt>
<totfact> 0.40100557E+01</totfact>
</mgrwt>
</event>
<event>
 8    1  0.1865596E-007  0.1437242E+03  0.7546771E-02  0.1208405E+00
         -5   -1    0    0    0  501 -0.00000000000E+00  0.00000000000E+00  0.24926430666E+03  0.24930861312E+03  0.47000000000E+01 0.  1.
          5   -1    0    0  501    0  0.00000000000E+00 -0.00000000000E+00 -0.86682865007E+02  0.86810189988E+02  0.47000000000E+01 0.  1.
         25    2    1    2    0    0  0.52465764618E+02  0.47707214891E+02  0.11704998150E+03  0.18535490798E+03  0.12500843545E+03 0.  0.
         25    2    1    2    0    0 -0.52465764618E+02 -0.47707214891E+02  0.45531460159E+02  0.15076389513E+03  0.12501201303E+03 0.  0.
          5    1    4    4  502    0 -0.14032863417E+02 -0.92615787810E+01  0.82842947831E+02  0.84662518877E+02  0.47000000000E+01 0. -1.
         -5    1    4    4    0  502 -0.38432901201E+02 -0.38445636110E+02 -0.37311487673E+02  0.66101376256E+02  0.47000000000E+01 0. -1.
          5    1    3    3  503    0 -0.18781221243E+02  0.20319745511E+02  0.10406861467E+03  0.10778679366E+03  0.47000000000E+01 0. -1.
         -5    1    3    3    0  503  0.71246985861E+02  0.27387469380E+02  0.12981366827E+02  0.77568114313E+02  0.47000000000E+01 0. -1.
<mgrwt>
<rscale>  0 0.14372340E+03</rscale>
<asrwt>0</asrwt>
<pdfrwt beam="2">  1        5 0.13349028E-01 0.14372417E+03</pdfrwt>
<pdfrwt beam="1">  1       -5 0.38361557E-01 0.14372417E+03</pdfrwt>
<totfact> 0.23368550E+02</totfact>
</mgrwt>
</event>
<event>
 8    1  0.1865596E-007  0.1589874E+03  0.7546771E-02  0.1189847E+00
          5   -1    0    0  501    0  0.00000000000E+00  0.00000000000E+00  0.22721069622E+04  0.22721118233E+04  0.47000000000E+01 0. -1.
         -5   -1    0    0    0  501 -0.00000000000E+00 -0.00000000000E+00 -0.10850633803E+02  0.11824815175E+02  0.47000000000E+01 0. -1.
         25    2    1    2    0    0 -0.34246362544E+02 -0.92082951769E+02  0.12890295097E+04  0.12987971656E+04  0.12499966806E+03 0.  0.
         25    2    1    2    0    0  0.34246362544E+02  0.92082951769E+02  0.97222681869E+03  0.98513947294E+03  0.12499084289E+03 0.  0.
          5    1    4    4  502    0 -0.69820882168E+01  0.48080332007E+02  0.81832761043E+03  0.81978206609E+03  0.47000000000E+01 0. -1.
         -5    1    4    4    0  502  0.41228450761E+02  0.44002619762E+02  0.15389920826E+03  0.16535740685E+03  0.47000000000E+01 0. -1.
          5    1    3    3  503    0 -0.29368451338E+02  0.11001226786E+02  0.91879491900E+02  0.97198065601E+02  0.47000000000E+01 0. -1.
         -5    1    3    3    0  503 -0.48779112064E+01 -0.10308417855E+03  0.11971500178E+04  0.12015990999E+04  0.47000000000E+01 0. -1.
<mgrwt>
<rscale>  0 0.15898569E+03</rscale>
<asrwt>0</asrwt>
<pdfrwt beam="1">  1        5 0.34962993E+00 0.15898742E+03</pdfrwt>
<pdfrwt beam="2">  1       -5 0.17446407E-02 0.15898742E+03</pdfrwt>
<totfact> 0.14258525E+01</totfact>
</mgrwt>
</event>
<event>
 8    1  0.1865596E-007  0.1457246E+03  0.7546771E-02  0.1205833E+00
         -5   -1    0    0    0  501 -0.00000000000E+00  0.00000000000E+00  0.66327976596E+02  0.66494289073E+02  0.47000000000E+01 0. -1.
          5   -1    0    0  501    0  0.00000000000E+00 -0.00000000000E+00 -0.32714871523E+03  0.32718247489E+03  0.47000000000E+01 0. -1.
         25    2    1    2    0    0 -0.52468254470E+02  0.53407309009E+02 -0.10038752065E+03  0.17694080472E+03  0.12500054277E+03 0.  0.
         25    2    1    2    0    0  0.52468254470E+02 -0.53407309009E+02 -0.16043321799E+03  0.21673595924E+03  0.12502159898E+03 0.  0.
          5    1    3    3  502    0 -0.24000841384E+02  0.37599188148E+02 -0.12696015049E+03  0.13465032176E+03  0.47000000000E+01 0. -1.
         -5    1    3    3    0  502 -0.28467413087E+02  0.15808120861E+02  0.26572629842E+02  0.42290482969E+02  0.47000000000E+01 0. -1.
          5    1    4    4  503    0  0.77836150171E+02 -0.72694002450E+02 -0.90881616049E+02  0.14008726709E+03  0.47000000000E+01 0. -1.
         -5    1    4    4    0  503 -0.25367895700E+02  0.19286693441E+02 -0.69551601938E+02  0.76648692150E+02  0.47000000000E+01 0. -1.
<mgrwt>
<rscale>  0 0.14572008E+03</rscale>
<asrwt>0</asrwt>
<pdfrwt beam="2">  1        5 0.50345961E-01 0.14572460E+03</pdfrwt>
<pdfrwt beam="1">  1       -5 0.10219694E-01 0.14572460E+03</pdfrwt>
<totfact> 0.21411256E+02</totfact>
</mgrwt>
</event>
<event>
 8    1  0.1865596E-007  0.1299483E+03  0.7546771E-02  0.1227536E+00
         -5   -1    0    0    0  501 -0.00000000000E+00  0.00000000000E+00  0.88075673373E+01  0.99831479204E+01  0.47000000000E+01 0.  1.
          5   -1    0    0  501    0  0.00000000000E+00 -0.00000000000E+00 -0.18333250914E+04  0.18333311159E+04  0.47000000000E+01 0.  1.
         25    2    1    2    0    0 -0.16390837423E+02 -0.31534027212E+02 -0.78084747615E+03  0.79158659942E+03  0.12499403563E+03 0.  0.
         25    2    1    2    0    0  0.16390837423E+02  0.31534027212E+02 -0.10436700479E+04  0.10517276644E+04  0.12498342637E+03 0.  0.
          5    1    3    3  502    0  0.24198260127E+02 -0.30166983213E+02 -0.69911252289E+03  0.70019712391E+03  0.47000000000E+01 0. -1.
         -5    1    3    3    0  502 -0.40589097550E+02 -0.13670439986E+01 -0.81734953259E+02  0.91389475507E+02  0.47000000000E+01 0. -1.
          5    1    4    4  503    0  0.59100305192E+02  0.52487271882E+02 -0.75313865407E+03  0.75728969493E+03  0.47000000000E+01 0. -1.
         -5    1    4    4    0  503 -0.42709467769E+02 -0.20953244670E+02 -0.29053139379E+03  0.29443796949E+03  0.47000000000E+01 0. -1.
<mgrwt>
<rscale>  0 0.12994576E+03</rscale>
<asrwt>0</asrwt>
<pdfrwt beam="2">  1        5 0.28214062E+00 0.12994831E+03</pdfrwt>
<pdfrwt beam="1">  1       -5 0.14459045E-02 0.12994831E+03</pdfrwt>
<totfact> 0.49471688E+01</totfact>
</mgrwt>
</event>
<event>
 8    1  0.1865596E-007  0.1309322E+03  0.7546771E-02  0.1226091E+00
          5   -1    0    0  501    0  0.00000000000E+00  0.00000000000E+00  0.50181114084E+02  0.50400736212E+02  0.47000000000E+01 0. -1.
         -5   -1    0    0    0  501 -0.00000000000E+00 -0.00000000000E+00 -0.37082657231E+03  0.37085635592E+03  0.47000000000E+01 0. -1.
         25    2    1    2    0    0 -0.33096114247E+02  0.20523742007E+02 -0.22049114845E+03  0.25643630318E+03  0.12500661694E+03 0.  0.
         25    2    1    2    0    0  0.33096114247E+02 -0.20523742007E+02 -0.10015430977E+03  0.16482078896E+03  0.12497371700E+03 0.  0.
          5    1    4    4  502    0 -0.25048992264E+02  0.26062951081E+01  0.17811558907E+02  0.31202346359E+02  0.47000000000E+01 0.  1.
         -5    1    4    4    0  502  0.58145106511E+02 -0.23130037115E+02 -0.11796586868E+03  0.13361844260E+03  0.47000000000E+01 0.  1.
          5    1    3    3  503    0  0.46078681740E+02 -0.72773687757E+01 -0.79364662063E+02  0.92179415227E+02  0.47000000000E+01 0. -1.
         -5    1    3    3    0  503 -0.79174795987E+02  0.27801110783E+02 -0.14112648638E+03  0.16425688795E+03  0.47000000000E+01 0. -1.
<mgrwt>
<rscale>  0 0.13092431E+03</rscale>
<asrwt>0</asrwt>
<pdfrwt beam="1">  1        5 0.77393567E-02 0.13093216E+03</pdfrwt>
<pdfrwt beam="2">  1       -5 0.57069425E-01 0.13093216E+03</pdfrwt>
<totfact> 0.25519902E+02</totfact>
</mgrwt>
</event>
<event>
 8    1  0.1865596E-007  0.1391856E+03  0.7546771E-02  0.1214431E+00
         -5   -1    0    0    0  501 -0.00000000000E+00  0.00000000000E+00  0.54892137557E+02  0.55092982907E+02  0.47000000000E+01 0.  1.
          5   -1    0    0  501    0  0.00000000000E+00 -0.00000000000E+00 -0.36412146677E+03  0.36415179879E+03  0.47000000000E+01 0.  1.
         25    2    1    2    0    0  0.59252481098E+02 -0.15337377290E+02 -0.11645381999E+03  0.18147760526E+03  0.12500614929E+03 0.  0.
         25    2    1    2    0    0 -0.59252481098E+02  0.15337377290E+02 -0.19277550922E+03  0.23776717644E+03  0.12499896631E+03 0.  0.
          5    1    3    3  502    0 -0.18266145707E+02  0.35887790263E+02 -0.13534480051E+02  0.42741756155E+02  0.47000000000E+01 0. -1.
         -5    1    3    3    0  502  0.77518626806E+02 -0.51225167553E+02 -0.10291933994E+03  0.13873584910E+03  0.47000000000E+01 0. -1.
          5    1    4    4  503    0 -0.56742542565E+02 -0.38169902749E+02 -0.48984984089E+02  0.84251268707E+02  0.47000000000E+01 0. -1.
         -5    1    4    4    0  503 -0.25099385338E+01  0.53507280039E+02 -0.14379052513E+03  0.15351590773E+03  0.47000000000E+01 0. -1.
<mgrwt>
<rscale>  0 0.13918398E+03</rscale>
<asrwt>0</asrwt>
<pdfrwt beam="2">  1        5 0.56036468E-01 0.13918559E+03</pdfrwt>
<pdfrwt beam="1">  1       -5 0.84627274E-02 0.13918559E+03</pdfrwt>
<totfact> 0.23257322E+02</totfact>
</mgrwt>
</event>
<event>
 8    1  0.1865596E-007  0.1469848E+03  0.7546771E-02  0.1204228E+00
          5   -1    0    0  501    0  0.00000000000E+00  0.00000000000E+00  0.64332180997E+02  0.64503639524E+02  0.47000000000E+01 0. -1.
         -5   -1    0    0    0  501 -0.00000000000E+00 -0.00000000000E+00 -0.33523672423E+03  0.33526966948E+03  0.47000000000E+01 0. -1.
         25    2    1    2    0    0 -0.69774122620E+02  0.33329822473E+02 -0.13776968579E+03  0.20145684647E+03  0.12500027766E+03 0.  0.
         25    2    1    2    0    0  0.69774122620E+02 -0.33329822473E+02 -0.13313485745E+03  0.19831646253E+03  0.12500089516E+03 0.  0.
          5    1    4    4  502    0 -0.36479980650E+02 -0.76964831237E+01 -0.33457369564E+02  0.50314117491E+02  0.47000000000E+01 0.  1.
         -5    1    4    4    0  502  0.10625410327E+03 -0.25633339349E+02 -0.99677487881E+02  0.14800234504E+03  0.47000000000E+01 0.  1.
          5    1    3    3  503    0 -0.67541395282E+02  0.60636599707E+02 -0.39092838227E+02  0.98939260667E+02  0.47000000000E+01 0. -1.
         -5    1    3    3    0  503 -0.22327273375E+01 -0.27306777234E+02 -0.98676847565E+02  0.10251758581E+03  0.47000000000E+01 0. -1.
<mgrwt>
<rscale>  0 0.14698466E+03</rscale>
<asrwt>0</asrwt>
<pdfrwt beam="1">  1        5 0.99129822E-02 0.14698479E+03</pdfrwt>
<pdfrwt beam="2">  1       -5 0.51590603E-01 0.14698479E+03</pdfrwt>
<totfact> 0.21499858E+02</totfact>
</mgrwt>
</event>
<event>
 8    1  0.1865596E-007  0.1307328E+03  0.7546771E-02  0.1226376E+00
          5   -1    0    0  501    0  0.00000000000E+00  0.00000000000E+00  0.40674649395E+03  0.40677364755E+03  0.47000000000E+01 0. -1.
         -5   -1    0    0    0  501 -0.00000000000E+00 -0.00000000000E+00 -0.41906043707E+02  0.42168785839E+02  0.47000000000E+01 0. -1.
         25    2    1    2    0    0  0.37993635955E+02 -0.46702641829E+01  0.17468796449E+03  0.21819017454E+03  0.12500295833E+03 0.  0.
         25    2    1    2    0    0 -0.37993635955E+02  0.46702641829E+01  0.19015248576E+03  0.23075225884E+03  0.12499323734E+03 0.  0.
          5    1    4    4  502    0  0.35266561388E+02  0.11900351703E+02  0.14466677076E+02  0.40208499952E+02  0.47000000000E+01 0. -1.
         -5    1    4    4    0  502 -0.73260197342E+02 -0.72300875201E+01  0.17568580868E+03  0.19054375889E+03  0.47000000000E+01 0. -1.
          5    1    3    3  503    0 -0.25411240634E+02  0.16796796498E+02 -0.25089170732E+00  0.30822337189E+02  0.47000000000E+01 0. -1.
         -5    1    3    3    0  503  0.63404876588E+02 -0.21467060681E+02  0.17493885619E+03  0.18736783736E+03  0.47000000000E+01 0. -1.
<mgrwt>
<rscale>  0 0.13073049E+03</rscale>
<asrwt>0</asrwt>
<pdfrwt beam="1">  1        5 0.62598681E-01 0.13073281E+03</pdfrwt>
<pdfrwt beam="2">  1       -5 0.64693835E-02 0.13073281E+03</pdfrwt>
<totfact> 0.28253959E+02</totfact>
</mgrwt>
</event>
<event>
 8    1  0.1865596E-007  0.1372171E+03  0.7546771E-02  0.1217125E+00
          5   -1    0    0  501    0  0.00000000000E+00  0.00000000000E+00  0.12546750678E+03  0.12555550668E+03  0.47000000000E+01 0. -1.
         -5   -1    0    0    0  501 -0.00000000000E+00 -0.00000000000E+00 -0.15962472287E+03  0.15969390142E+03  0.47000000000E+01 0. -1.
         25    2    1    2    0    0 -0.37618370732E+02  0.42271803120E+02 -0.52291640662E+02  0.14683918537E+03  0.12500113408E+03 0.  0.
         25    2    1    2    0    0  0.37618370732E+02 -0.42271803120E+02  0.18134424573E+02  0.13841022273E+03  0.12500594084E+03 0.  0.
          5    1    3    3  502    0 -0.77795964974E+02  0.19118981604E+02 -0.59198872458E+02  0.99721332342E+02  0.47000000000E+01 0. -1.
         -5    1    3    3    0  502  0.40177594242E+02  0.23152821516E+02  0.69072317959E+01  0.47117853031E+02  0.47000000000E+01 0. -1.
          5    1    4    4  503    0 -0.30678740081E+02  0.42903129140E+01  0.41858231803E+02  0.52285690658E+02  0.47000000000E+01 0. -1.
         -5    1    4    4    0  503  0.68297110814E+02 -0.46562116034E+02 -0.23723807230E+02  0.86124532072E+02  0.47000000000E+01 0. -1.
<mgrwt>
<rscale>  0 0.13721600E+03</rscale>
<asrwt>0</asrwt>
<pdfrwt beam="1">  1        5 0.19314784E-01 0.13721710E+03</pdfrwt>
<pdfrwt beam="2">  1       -5 0.24569740E-01 0.13721710E+03</pdfrwt>
<totfact> 0.28212223E+02</totfact>
</mgrwt>
</event>
<event>
 8    1  0.1865596E-007  0.1517998E+03  0.7546771E-02  0.1198279E+00
          5   -1    0    0  501    0  0.00000000000E+00  0.00000000000E+00  0.12917637292E+04  0.12917722795E+04  0.47000000000E+01 0. -1.
         -5   -1    0    0    0  501 -0.00000000000E+00 -0.00000000000E+00 -0.32176540404E+02  0.32517991211E+02  0.47000000000E+01 0. -1.
         25    2    1    2    0    0 -0.79037113610E+02  0.34200889720E+02  0.18626212719E+03  0.24028388125E+03  0.12500478942E+03 0.  0.
         25    2    1    2    0    0  0.79037113610E+02 -0.34200889720E+02  0.10733250616E+04  0.10840063894E+04  0.12500639315E+03 0.  0.
          5    1    4    4  502    0 -0.22254597289E+02 -0.44012092021E+02  0.31598104327E+03  0.31984127478E+03  0.47000000000E+01 0.  1.
         -5    1    4    4    0  502  0.10129171090E+03  0.98112023000E+01  0.75734401830E+03  0.76416511465E+03  0.47000000000E+01 0.  1.
          5    1    3    3  503    0  0.16212349221E+02 -0.20539761345E+02  0.90982119480E+02  0.94786909057E+02  0.47000000000E+01 0. -1.
         -5    1    3    3    0  503 -0.95249462831E+02  0.54740651065E+02  0.95280007712E+02  0.14549697220E+03  0.47000000000E+01 0. -1.
<mgrwt>
<rscale>  0 0.15179942E+03</rscale>
<asrwt>0</asrwt>
<pdfrwt beam="1">  1        5 0.19875976E+00 0.15179975E+03</pdfrwt>
<pdfrwt beam="2">  1       -5 0.49771611E-02 0.15179975E+03</pdfrwt>
<totfact> 0.24232128E+01</totfact>
</mgrwt>
</event>
<event>
 8    1  0.1865596E-007  0.1833483E+03  0.7546771E-02  0.1164603E+00
         -5   -1    0    0    0  501 -0.00000000000E+00  0.00000000000E+00  0.92637194756E+02  0.92756346695E+02  0.47000000000E+01 0. -1.
          5   -1    0    0  501    0  0.00000000000E+00 -0.00000000000E+00 -0.40321044083E+03  0.40323783254E+03  0.47000000000E+01 0. -1.
         25    2    1    2    0    0  0.10169616583E+03  0.87444908917E+02 -0.76501088844E+02  0.19866205724E+03  0.12500189660E+03 0.  0.
         25    2    1    2    0    0 -0.10169616583E+03 -0.87444908917E+02 -0.23407215723E+03  0.29733212200E+03  0.12501157443E+03 0.  0.
          5    1    4    4  502    0 -0.61497401700E+02 -0.11638144781E+03 -0.18781805132E+03  0.22939983045E+03  0.47000000000E+01 0. -1.
         -5    1    4    4    0  502 -0.40198764125E+02  0.28936538898E+02 -0.46254105909E+02  0.67932291541E+02  0.47000000000E+01 0. -1.
          5    1    3    3  503    0 -0.10079731496E+02  0.30355236135E+02  0.21949788715E+02  0.39075882236E+02  0.47000000000E+01 0.  1.
         -5    1    3    3    0  503  0.11177589732E+03  0.57089672782E+02 -0.98450877559E+02  0.15958617500E+03  0.47000000000E+01 0.  1.
<mgrwt>
<rscale>  0 0.18334670E+03</rscale>
<asrwt>0</asrwt>
<pdfrwt beam="2">  1        5 0.62043647E-01 0.18334835E+03</pdfrwt>
<pdfrwt beam="1">  1       -5 0.14263149E-01 0.18334835E+03</pdfrwt>
<totfact> 0.80700805E+01</totfact>
</mgrwt>
</event>
<event>
 8    1  0.1865596E-007  0.1812136E+03  0.7546771E-02  0.1166637E+00
         -5   -1    0    0    0  501 -0.00000000000E+00  0.00000000000E+00  0.33348191907E+03  0.33351503766E+03  0.47000000000E+01 0. -1.
          5   -1    0    0  501    0  0.00000000000E+00 -0.00000000000E+00 -0.15256538794E+03  0.15263776596E+03  0.47000000000E+01 0. -1.
         25    2    1    2    0    0  0.10603682797E+03 -0.77233253982E+02  0.23527552580E+03  0.29697293614E+03  0.12501826807E+03 0.  0.
         25    2    1    2    0    0 -0.10603682797E+03  0.77233253982E+02 -0.54358994667E+02  0.18917986748E+03  0.12500135019E+03 0.  0.
          5    1    4    4  502    0 -0.48163632142E+02  0.15295784987E+02 -0.84935610339E+02  0.98943642560E+02  0.47000000000E+01 0. -1.
         -5    1    4    4    0  502 -0.57873195833E+02  0.61937468995E+02  0.30576615672E+02  0.90236224918E+02  0.47000000000E+01 0. -1.
          5    1    3    3  503    0  0.70950824250E+02 -0.77602580339E+02  0.23922124832E+03  0.26135239732E+03  0.47000000000E+01 0. -1.
         -5    1    3    3    0  503  0.35086003724E+02  0.36932635751E+00 -0.39457225227E+01  0.35620538816E+02  0.47000000000E+01 0. -1.
<mgrwt>
<rscale>  0 0.18121064E+03</rscale>
<asrwt>0</asrwt>
<pdfrwt beam="2">  1        5 0.23479714E-01 0.18121355E+03</pdfrwt>
<pdfrwt beam="1">  1       -5 0.51313025E-01 0.18121355E+03</pdfrwt>
<totfact> 0.48154212E+01</totfact>
</mgrwt>
</event>
<event>
 8    1  0.1865596E-007  0.1663074E+03  0.7546771E-02  0.1181755E+00
         -5   -1    0    0    0  501 -0.00000000000E+00  0.00000000000E+00  0.13312149635E+03  0.13320443983E+03  0.47000000000E+01 0. -1.
          5   -1    0    0  501    0  0.00000000000E+00 -0.00000000000E+00 -0.24198209505E+03  0.24202773462E+03  0.47000000000E+01 0. -1.
         25    2    1    2    0    0 -0.94660825406E+01  0.10928557100E+03  0.16280584747E+02  0.16710129459E+03  0.12499936987E+03 0.  0.
         25    2    1    2    0    0  0.94660825406E+01 -0.10928557100E+03 -0.12514118345E+03  0.20813087985E+03  0.12500081841E+03 0.  0.
          5    1    4    4  502    0 -0.28486130868E+02 -0.11900969574E+03 -0.72400191035E+02  0.14226259169E+03  0.47000000000E+01 0. -1.
         -5    1    4    4    0  502  0.37952213408E+02  0.97241247381E+01 -0.52740992415E+02  0.65868288162E+02  0.47000000000E+01 0. -1.
          5    1    3    3  503    0 -0.39516525866E+02 -0.28086119145E+01  0.30320252172E+02  0.50108400585E+02  0.47000000000E+01 0.  1.
         -5    1    3    3    0  503  0.30050443326E+02  0.11209418291E+03 -0.14039667425E+02  0.11699289401E+03  0.47000000000E+01 0.  1.
<mgrwt>
<rscale>  0 0.16630712E+03</rscale>
<asrwt>0</asrwt>
<pdfrwt beam="2">  1        5 0.37237906E-01 0.16630739E+03</pdfrwt>
<pdfrwt beam="1">  1       -5 0.20490121E-01 0.16630739E+03</pdfrwt>
<totfact> 0.11859339E+02</totfact>
</mgrwt>
</event>
<event>
 8    1  0.1865596E-007  0.1524627E+03  0.7546771E-02  0.1197481E+00
         -5   -1    0    0    0  501 -0.00000000000E+00  0.00000000000E+00  0.29153710677E+03  0.29157498971E+03  0.47000000000E+01 0.  1.
          5   -1    0    0  501    0  0.00000000000E+00 -0.00000000000E+00 -0.87671989836E+02  0.87797880395E+02  0.47000000000E+01 0.  1.
         25    2    1    2    0    0 -0.64815393403E+01 -0.87043760172E+02  0.15937327855E+03  0.22055095109E+03  0.12499701427E+03 0.  0.
         25    2    1    2    0    0  0.64815393403E+01  0.87043760172E+02  0.44491838383E+02  0.15882191901E+03  0.12500500685E+03 0.  0.
          5    1    4    4  502    0 -0.90080927145E+01 -0.11300691501E+02 -0.30510860472E+02  0.34085979075E+02  0.47000000000E+01 0.  1.
         -5    1    4    4    0  502  0.15489632055E+02  0.98344451672E+02  0.75002698855E+02  0.12473593993E+03  0.47000000000E+01 0.  1.
          5    1    3    3  503    0  0.57124444086E+02 -0.57224965001E+02  0.98111937897E+02  0.12722398001E+03  0.47000000000E+01 0. -1.
         -5    1    3    3    0  503 -0.63605983427E+02 -0.29818795170E+02  0.61261340650E+02  0.93326971082E+02  0.47000000000E+01 0. -1.
<mgrwt>
<rscale>  0 0.15246107E+03</rscale>
<asrwt>0</asrwt>
<pdfrwt beam="2">  1        5 0.13500596E-01 0.15246271E+03</pdfrwt>
<pdfrwt beam="1">  1       -5 0.44864461E-01 0.15246271E+03</pdfrwt>
<totfact> 0.16913057E+02</totfact>
</mgrwt>
</event>
<event>
 8    1  0.1865596E-007  0.1504910E+03  0.7546771E-02  0.1199873E+00
         -5   -1    0    0    0  501 -0.00000000000E+00  0.00000000000E+00  0.67991789706E+03  0.67993414148E+03  0.47000000000E+01 0. -1.
          5   -1    0    0  501    0  0.00000000000E+00 -0.00000000000E+00 -0.37944376620E+02  0.38234352578E+02  0.47000000000E+01 0. -1.
         25    2    1    2    0    0  0.58175568388E+01  0.83591021956E+02  0.44840342181E+03  0.47298098673E+03  0.12499632873E+03 0.  0.
         25    2    1    2    0    0 -0.58175568388E+01 -0.83591021956E+02  0.19357009863E+03  0.24518750733E+03  0.12500491089E+03 0.  0.
          5    1    3    3  502    0  0.15799850942E+02 -0.81066844850E+01  0.36369779790E+01  0.18726217770E+02  0.47000000000E+01 0. -1.
         -5    1    3    3    0  502 -0.99822941035E+01  0.91697706441E+02  0.44476644383E+03  0.45425476896E+03  0.47000000000E+01 0. -1.
          5    1    4    4  503    0  0.27172185949E+02 -0.48805013638E+02  0.11987649854E+02  0.57324085640E+02  0.47000000000E+01 0.  1.
         -5    1    4    4    0  503 -0.32989742788E+02 -0.34786008318E+02  0.18158244878E+03  0.18786342169E+03  0.47000000000E+01 0.  1.
<mgrwt>
<rscale>  0 0.15048918E+03</rscale>
<asrwt>0</asrwt>
<pdfrwt beam="2">  1        5 0.58611518E-02 0.15049097E+03</pdfrwt>
<pdfrwt beam="1">  1       -5 0.10462631E+00 0.15049097E+03</pdfrwt>
<totfact> 0.10587841E+02</totfact>
</mgrwt>
</event>
<event>
 8    1  0.1865596E-007  0.1803037E+03  0.7546771E-02  0.1167510E+00
         -5   -1    0    0    0  501 -0.00000000000E+00  0.00000000000E+00  0.33644766065E+02  0.33971462782E+02  0.47000000000E+01 0.  1.
          5   -1    0    0  501    0  0.00000000000E+00 -0.00000000000E+00 -0.96273958378E+03  0.96275105618E+03  0.47000000000E+01 0.  1.
         25    2    1    2    0    0 -0.59047329541E+02 -0.11573802357E+03 -0.48426054389E+03  0.51673755965E+03  0.12501021541E+03 0.  0.
         25    2    1    2    0    0  0.59047329541E+02  0.11573802357E+03 -0.44483427382E+03  0.47998495931E+03  0.12500461100E+03 0.  0.
          5    1    3    3  502    0 -0.95244621770E+02 -0.10298658016E+03 -0.40312903819E+03  0.42686401242E+03  0.47000000000E+01 0.  1.
         -5    1    3    3    0  502  0.36197292229E+02 -0.12751443411E+02 -0.81131505705E+02  0.89873547231E+02  0.47000000000E+01 0.  1.
          5    1    4    4  503    0  0.21693411759E+02  0.31815020248E+02 -0.33269074596E+03  0.33494480452E+03  0.47000000000E+01 0.  1.
         -5    1    4    4    0  503  0.37353917782E+02  0.83923003325E+02 -0.11214352786E+03  0.14504015479E+03  0.47000000000E+01 0.  1.
<mgrwt>
<rscale>  0 0.18030275E+03</rscale>
<asrwt>0</asrwt>
<pdfrwt beam="2">  1        5 0.14813977E+00 0.18030372E+03</pdfrwt>
<pdfrwt beam="1">  1       -5 0.52021316E-02 0.18030372E+03</pdfrwt>
<totfact> 0.55348411E+01</totfact>
</mgrwt>
</event>
<event>
 8    1  0.1865596E-007  0.1298738E+03  0.7546771E-02  0.1227644E+00
         -5   -1    0    0    0  501 -0.00000000000E+00  0.00000000000E+00  0.52133234952E+02  0.52344667222E+02  0.47000000000E+01 0. -1.
          5   -1    0    0  501    0  0.00000000000E+00 -0.00000000000E+00 -0.37580448302E+03  0.37583387215E+03  0.47000000000E+01 0. -1.
         25    2    1    2    0    0 -0.17649472528E+02  0.30509311917E+02 -0.81347863979E+02  0.15324614276E+03  0.12499833320E+03 0.  0.
         25    2    1    2    0    0  0.17649472528E+02 -0.30509311917E+02 -0.24232338408E+03  0.27493239661E+03  0.12499951294E+03 0.  0.
          5    1    3    3  502    0  0.12487691185E+02  0.29547977579E+02  0.26054391545E+02  0.41592628300E+02  0.47000000000E+01 0.  1.
         -5    1    3    3    0  502 -0.30137163712E+02  0.96133433812E+00 -0.10740225552E+03  0.11165351446E+03  0.47000000000E+01 0.  1.
          5    1    4    4  503    0 -0.51819164994E+02 -0.30142488563E+02 -0.10658893925E+03  0.12238091129E+03  0.47000000000E+01 0. -1.
         -5    1    4    4    0  503  0.69468637521E+02 -0.36682335419E+00 -0.13573444483E+03  0.15255148531E+03  0.47000000000E+01 0. -1.
<mgrwt>
<rscale>  0 0.12987350E+03</rscale>
<asrwt>0</asrwt>
<pdfrwt beam="2">  1        5 0.57834597E-01 0.12987379E+03</pdfrwt>
<pdfrwt beam="1">  1       -5 0.80390227E-02 0.12987379E+03</pdfrwt>
<totfact> 0.23165328E+02</totfact>
</mgrwt>
</event>
<event>
 8    1  0.1865596E-007  0.1267019E+03  0.7546771E-02  0.1232441E+00
          5   -1    0    0  501    0  0.00000000000E+00  0.00000000000E+00  0.25732576216E+02  0.26158277441E+02  0.47000000000E+01 0. -1.
         -5   -1    0    0    0  501 -0.00000000000E+00 -0.00000000000E+00 -0.69798442381E+03  0.69800024777E+03  0.47000000000E+01 0. -1.
         25    2    1    2    0    0 -0.37068636522E+01  0.20238033077E+02 -0.45852890819E+03  0.47571223335E+03  0.12502020034E+03 0.  0.
         25    2    1    2    0    0  0.37068636522E+01 -0.20238033077E+02 -0.21372293941E+03  0.24844629186E+03  0.12499898515E+03 0.  0.
          5    1    4    4  502    0 -0.51998903658E+02  0.21805018714E+02 -0.89571231132E+02  0.10594545894E+03  0.47000000000E+01 0.  1.
         -5    1    4    4    0  502  0.55705767311E+02 -0.42043051791E+02 -0.12415170827E+03  0.14250083292E+03  0.47000000000E+01 0.  1.
          5    1    3    3  503    0 -0.21013160676E+02  0.68546048125E+02 -0.21164081752E+03  0.22350400282E+03  0.47000000000E+01 0. -1.
         -5    1    3    3    0  503  0.17306297024E+02 -0.48308015047E+02 -0.24688809067E+03  0.25220823053E+03  0.47000000000E+01 0. -1.
<mgrwt>
<rscale>  0 0.12669666E+03</rscale>
<asrwt>0</asrwt>
<pdfrwt beam="1">  1        5 0.39928219E-02 0.12670189E+03</pdfrwt>
<pdfrwt beam="2">  1       -5 0.10741617E+00 0.12670189E+03</pdfrwt>
<totfact> 0.17726787E+02</totfact>
</mgrwt>
</event>
<event>
 8    1  0.1865596E-007  0.1250711E+03  0.7546771E-02  0.1234962E+00
         -5   -1    0    0    0  501 -0.00000000000E+00  0.00000000000E+00  0.12897754885E+03  0.12906315550E+03  0.47000000000E+01 0.  1.
          5   -1    0    0  501    0  0.00000000000E+00 -0.00000000000E+00 -0.12224722141E+03  0.12233753775E+03  0.47000000000E+01 0.  1.
         25    2    1    2    0    0  0.32507039562E+01  0.24813903510E+01  0.15523174521E+02  0.12602092351E+03  0.12499431924E+03 0.  0.
         25    2    1    2    0    0 -0.32507039562E+01 -0.24813903510E+01 -0.87928470773E+01  0.12537976974E+03  0.12500419244E+03 0.  0.
          5    1    4    4  502    0 -0.41486371030E+02  0.46614089730E+02 -0.20626010027E+01  0.62612591908E+02  0.47000000000E+01 0. -1.
         -5    1    4    4    0  502  0.38235667074E+02 -0.49095480081E+02 -0.67302460746E+01  0.62767177834E+02  0.47000000000E+01 0. -1.
          5    1    3    3  503    0 -0.50611543292E+02 -0.10556086284E+02  0.39722564713E+02  0.65367663408E+02  0.47000000000E+01 0.  1.
         -5    1    3    3    0  503  0.53862247248E+02  0.13037476635E+02 -0.24199390192E+02  0.60653260104E+02  0.47000000000E+01 0.  1.
<mgrwt>
<rscale>  0 0.12506860E+03</rscale>
<asrwt>0</asrwt>
<pdfrwt beam="2">  1        5 0.18820797E-01 0.12507107E+03</pdfrwt>
<pdfrwt beam="1">  1       -5 0.19856232E-01 0.12507107E+03</pdfrwt>
<totfact> 0.42786120E+02</totfact>
</mgrwt>
</event>
<event>
 8    1  0.1865596E-007  0.1378125E+03  0.7546771E-02  0.1216308E+00
          5   -1    0    0  501    0  0.00000000000E+00  0.00000000000E+00  0.83407569183E+03  0.83408893392E+03  0.47000000000E+01 0.  1.
         -5   -1    0    0    0  501 -0.00000000000E+00 -0.00000000000E+00 -0.22967949556E+02  0.23443905536E+02  0.47000000000E+01 0.  1.
         25    2    1    2    0    0 -0.36653882612E+02 -0.44946505111E+02  0.34578962679E+03  0.37224017475E+03  0.12501434427E+03 0.  0.
         25    2    1    2    0    0  0.36653882612E+02  0.44946505111E+02  0.46531811548E+03  0.48529266471E+03  0.12499730553E+03 0.  0.
          5    1    4    4  502    0 -0.37339956194E+02  0.50672860641E+02  0.23002227531E+03  0.23852536190E+03  0.47000000000E+01 0.  1.
         -5    1    4    4    0  502  0.73993838806E+02 -0.57263555301E+01  0.23529584018E+03  0.24676730280E+03  0.47000000000E+01 0.  1.
          5    1    3    3  503    0 -0.44063499710E+02  0.11039284255E+02  0.38388556766E+02  0.59659275005E+02  0.47000000000E+01 0.  1.
         -5    1    3    3    0  503  0.74096170985E+01 -0.55985789366E+02  0.30740107002E+03  0.31258089975E+03  0.47000000000E+01 0.  1.
<mgrwt>
<rscale>  0 0.13780862E+03</rscale>
<asrwt>0</asrwt>
<pdfrwt beam="1">  1        5 0.12835697E+00 0.13781249E+03</pdfrwt>
<pdfrwt beam="2">  1       -5 0.35711613E-02 0.13781249E+03</pdfrwt>
<totfact> 0.13944692E+02</totfact>
</mgrwt>
</event>
<event>
 8    1  0.1865596E-007  0.1267757E+03  0.7546771E-02  0.1232323E+00
          5   -1    0    0  501    0  0.00000000000E+00  0.00000000000E+00  0.19058658044E+04  0.19058715996E+04  0.47000000000E+01 0. -1.
         -5   -1    0    0    0  501 -0.00000000000E+00 -0.00000000000E+00 -0.81935093587E+01  0.94458242420E+01  0.47000000000E+01 0. -1.
         25    2    1    2    0    0 -0.63283769581E+01 -0.20139324298E+02  0.74670317079E+03  0.75738736817E+03  0.12499743777E+03 0.  0.
         25    2    1    2    0    0  0.63283769581E+01  0.20139324298E+02  0.11509691242E+04  0.11579300557E+04  0.12500579290E+03 0.  0.
          5    1    3    3  502    0  0.47648305354E+01  0.48647040454E+02  0.18681795208E+03  0.19316385628E+03  0.47000000000E+01 0. -1.
         -5    1    3    3    0  502 -0.11093207494E+02 -0.68786364752E+02  0.55988521872E+03  0.56422351189E+03  0.47000000000E+01 0. -1.
          5    1    4    4  503    0  0.25905247922E+02  0.28621219464E+02  0.10896029635E+03  0.11569223074E+03  0.47000000000E+01 0. -1.
         -5    1    4    4    0  503 -0.19576870964E+02 -0.84818951662E+01  0.10420088279E+04  0.10422378250E+04  0.47000000000E+01 0. -1.
<mgrwt>
<rscale>  0 0.12677368E+03</rscale>
<asrwt>0</asrwt>
<pdfrwt beam="1">  1        5 0.29330713E+00 0.12677574E+03</pdfrwt>
<pdfrwt beam="2">  1       -5 0.13573166E-02 0.12677574E+03</pdfrwt>
<totfact> 0.46148817E+01</totfact>
</mgrwt>
</event>
<event>
 8    1  0.1865596E-007  0.1690069E+03  0.7546771E-02  0.1178894E+00
         -5   -1    0    0    0  501 -0.00000000000E+00  0.00000000000E+00  0.32633430395E+03  0.32636814785E+03  0.47000000000E+01 0.  1.
          5   -1    0    0  501    0  0.00000000000E+00 -0.00000000000E+00 -0.16307705334E+03  0.16314476800E+03  0.47000000000E+01 0.  1.
         25    2    1    2    0    0 -0.85567936870E+02 -0.74941184659E+02  0.24827531201E+03  0.30032677242E+03  0.12496994318E+03 0.  0.
         25    2    1    2    0    0  0.85567936870E+02  0.74941184659E+02 -0.85018061405E+02  0.18918614344E+03  0.12500109250E+03 0.  0.
          5    1    4    4  502    0  0.75072273306E+02  0.50116706638E+02  0.94101120483E+01  0.90874477783E+02  0.47000000000E+01 0.  1.
         -5    1    4    4    0  502  0.10495663564E+02  0.24824478021E+02 -0.94428173454E+02  0.98311665658E+02  0.47000000000E+01 0.  1.
          5    1    3    3  503    0  0.21074064279E+02 -0.49004625108E+02  0.48054780229E+02  0.71950826055E+02  0.47000000000E+01 0.  1.
         -5    1    3    3    0  503 -0.10664200115E+03 -0.25936559552E+02  0.20022053178E+03  0.22837594636E+03  0.47000000000E+01 0.  1.
<mgrwt>
<rscale>  0 0.16900112E+03</rscale>
<asrwt>0</asrwt>
<pdfrwt beam="2">  1        5 0.25096590E-01 0.16900688E+03</pdfrwt>
<pdfrwt beam="1">  1       -5 0.50213089E-01 0.16900688E+03</pdfrwt>
<totfact> 0.43535991E+01</totfact>
</mgrwt>
</event>
<event>
 8    1  0.1865596E-007  0.1325630E+03  0.7546771E-02  0.1223702E+00
          5   -1    0    0  501    0  0.00000000000E+00  0.00000000000E+00  0.56273485305E+02  0.56469417815E+02  0.47000000000E+01 0.  1.
         -5   -1    0    0    0  501 -0.00000000000E+00 -0.00000000000E+00 -0.38773879090E+03  0.38776727553E+03  0.47000000000E+01 0.  1.
         25    2    1    2    0    0  0.32594803297E+02 -0.29767352249E+02 -0.26418350373E+03  0.29557672470E+03  0.12499664026E+03 0.  0.
         25    2    1    2    0    0 -0.32594803297E+02  0.29767352249E+02 -0.67281801863E+02  0.14865996864E+03  0.12499771579E+03 0.  0.
          5    1    3    3  502    0  0.58995854542E+02 -0.17337032374E+02 -0.50080730106E+02  0.79443395400E+02  0.47000000000E+01 0.  1.
         -5    1    3    3    0  502 -0.26401051245E+02 -0.12430319875E+02 -0.21410277363E+03  0.21613332930E+03  0.47000000000E+01 0.  1.
          5    1    4    4  503    0  0.31363109727E+01 -0.39857689288E+02  0.67646552107E+01  0.40820612465E+02  0.47000000000E+01 0.  1.
         -5    1    4    4    0  503 -0.35731114269E+02  0.69625041537E+02 -0.74046457074E+02  0.10783935618E+03  0.47000000000E+01 0.  1.
<mgrwt>
<rscale>  0 0.13256273E+03</rscale>
<asrwt>0</asrwt>
<pdfrwt beam="1">  1        5 0.86747224E-02 0.13256299E+03</pdfrwt>
<pdfrwt beam="2">  1       -5 0.59669383E-01 0.13256299E+03</pdfrwt>
<totfact> 0.19127420E+02</totfact>
</mgrwt>
</event>
<event>
 8    1  0.1865596E-007  0.2378697E+03  0.7546771E-02  0.1121221E+00
         -5   -1    0    0    0  501 -0.00000000000E+00  0.00000000000E+00  0.11310178437E+04  0.11310276092E+04  0.47000000000E+01 0.  1.
          5   -1    0    0  501    0  0.00000000000E+00 -0.00000000000E+00 -0.56722347377E+02  0.56916734727E+02  0.47000000000E+01 0.  1.
         25    2    1    2    0    0 -0.19919445285E+03  0.35741428240E+02  0.74264755311E+03  0.77981156087E+03  0.12499921035E+03 0.  0.
         25    2    1    2    0    0  0.19919445285E+03 -0.35741428240E+02  0.33164794326E+03  0.40813278310E+03  0.12500452246E+03 0.  0.
          5    1    3    3  502    0 -0.10764527225E+03  0.37947454145E+02  0.20751711721E+03  0.23688173810E+03  0.47000000000E+01 0. -1.
         -5    1    3    3    0  502 -0.91549180599E+02 -0.22060259054E+01  0.53513043590E+03  0.54292982277E+03  0.47000000000E+01 0. -1.
          5    1    4    4  503    0  0.12805631904E+03 -0.51612931395E+02  0.11579593886E+03  0.18025843944E+03  0.47000000000E+01 0. -1.
         -5    1    4    4    0  503  0.71138133804E+02  0.15871503155E+02  0.21585200440E+03  0.22787434365E+03  0.47000000000E+01 0. -1.
<mgrwt>
<rscale>  0 0.23786904E+03</rscale>
<asrwt>0</asrwt>
<pdfrwt beam="2">  1        5 0.87422195E-02 0.23786973E+03</pdfrwt>
<pdfrwt beam="1">  1       -5 0.17401844E+00 0.23786973E+03</pdfrwt>
<totfact> 0.15427978E+01</totfact>
</mgrwt>
</event>
<event>
 8    1  0.1865596E-007  0.1312088E+03  0.7546771E-02  0.1225680E+00
         -5   -1    0    0    0  501 -0.00000000000E+00  0.00000000000E+00  0.14714906573E+03  0.14722410653E+03  0.47000000000E+01 0.  1.
          5   -1    0    0  501    0  0.00000000000E+00 -0.00000000000E+00 -0.13966345990E+03  0.13974252049E+03  0.47000000000E+01 0.  1.
         25    2    1    2    0    0  0.27774374546E+02  0.28526124845E+02  0.61728726914E+02  0.14498753343E+03  0.12500317373E+03 0.  0.
         25    2    1    2    0    0 -0.27774374546E+02 -0.28526124845E+02 -0.54243121092E+02  0.14197909359E+03  0.12502236260E+03 0.  0.
          5    1    4    4  502    0  0.43414469650E+02 -0.25661489760E+02 -0.48859345797E+02  0.70375094340E+02  0.47000000000E+01 0.  1.
         -5    1    4    4    0  502 -0.71188844196E+02 -0.28646350848E+01 -0.53837752952E+01  0.71603999250E+02  0.47000000000E+01 0.  1.
          5    1    3    3  503    0 -0.10363101812E+02 -0.36017416813E+02 -0.12100777771E+02  0.39663169512E+02  0.47000000000E+01 0. -1.
         -5    1    3    3    0  503  0.38137476358E+02  0.64543541659E+02  0.73829504685E+02  0.10532436392E+03  0.47000000000E+01 0. -1.
<mgrwt>
<rscale>  0 0.13120422E+03</rscale>
<asrwt>0</asrwt>
<pdfrwt beam="2">  1        5 0.21498540E-01 0.13120879E+03</pdfrwt>
<pdfrwt beam="1">  1       -5 0.22650172E-01 0.13120879E+03</pdfrwt>
<totfact> 0.26540637E+02</totfact>
</mgrwt>
</event>
<event>
 8    1  0.1865596E-007  0.1700188E+03  0.7546771E-02  0.1177829E+00
         -5   -1    0    0    0  501 -0.00000000000E+00  0.00000000000E+00  0.10926811318E+03  0.10936914811E+03  0.47000000000E+01 0. -1.
          5   -1    0    0  501    0  0.00000000000E+00 -0.00000000000E+00 -0.26461761382E+03  0.26465935000E+03  0.47000000000E+01 0. -1.
         25    2    1    2    0    0 -0.10369605825E+03 -0.50287969113E+02 -0.71186231589E+02  0.18432000043E+03  0.12499852261E+03 0.  0.
         25    2    1    2    0    0  0.10369605825E+03  0.50287969113E+02 -0.84163269053E+02  0.18970849768E+03  0.12499642355E+03 0.  0.
          5    1    4    4  502    0  0.57658216047E+02 -0.53912489507E-01 -0.10356702549E+03  0.11862837583E+03  0.47000000000E+01 0.  1.
         -5    1    4    4    0  502  0.46037842203E+02  0.50341881603E+02  0.19403756436E+02  0.71080121847E+02  0.47000000000E+01 0.  1.
          5    1    3    3  503    0 -0.15115640942E+02 -0.68881922247E+02 -0.27136319876E+01  0.70729453639E+02  0.47000000000E+01 0.  1.
         -5    1    3    3    0  503 -0.88580417307E+02  0.18593953134E+02 -0.68472599602E+02  0.11359054679E+03  0.47000000000E+01 0.  1.
<mgrwt>
<rscale>  0 0.17001839E+03</rscale>
<asrwt>0</asrwt>
<pdfrwt beam="2">  1        5 0.40721384E-01 0.17001877E+03</pdfrwt>
<pdfrwt beam="1">  1       -5 0.16821461E-01 0.17001877E+03</pdfrwt>
<totfact> 0.14344770E+02</totfact>
</mgrwt>
</event>
<event>
 8    1  0.1865596E-007  0.1599460E+03  0.7546771E-02  0.1188758E+00
         -5   -1    0    0    0  501 -0.00000000000E+00  0.00000000000E+00  0.14257710140E+03  0.14265454723E+03  0.47000000000E+01 0. -1.
          5   -1    0    0  501    0  0.00000000000E+00 -0.00000000000E+00 -0.17929464095E+03  0.17935623288E+03  0.47000000000E+01 0. -1.
         25    2    1    2    0    0 -0.45650747739E+01  0.99669588305E+02 -0.20134199441E+02  0.16120738717E+03  0.12501027538E+03 0.  0.
         25    2    1    2    0    0  0.45650747739E+01 -0.99669588305E+02 -0.16583340108E+02  0.16080339294E+03  0.12501142856E+03 0.  0.
          5    1    4    4  502    0 -0.19816453260E+02 -0.72873392232E+02  0.45845628872E+02  0.88471095855E+02  0.47000000000E+01 0. -1.
         -5    1    4    4    0  502  0.24381528034E+02 -0.26796196073E+02 -0.62428968980E+02  0.72332297082E+02  0.47000000000E+01 0. -1.
          5    1    3    3  503    0 -0.43039361460E+02 -0.61802004842E+01  0.92838576537E+01  0.44708629210E+02  0.47000000000E+01 0. -1.
         -5    1    3    3    0  503  0.38474286687E+02  0.10584978879E+03 -0.29418057095E+02  0.11649875796E+03  0.47000000000E+01 0. -1.
<mgrwt>
<rscale>  0 0.15994578E+03</rscale>
<asrwt>0</asrwt>
<pdfrwt beam="2">  1        5 0.27594486E-01 0.15994600E+03</pdfrwt>
<pdfrwt beam="1">  1       -5 0.21945634E-01 0.15994600E+03</pdfrwt>
<totfact> 0.18680073E+02</totfact>
</mgrwt>
</event>
<event>
 8    1  0.1865596E-007  0.1433009E+03  0.7546771E-02  0.1208957E+00
          5   -1    0    0  501    0  0.00000000000E+00  0.00000000000E+00  0.21671102449E+03  0.21676198499E+03  0.47000000000E+01 0. -1.
         -5   -1    0    0    0  501 -0.00000000000E+00 -0.00000000000E+00 -0.95505411933E+02  0.95620989895E+02  0.47000000000E+01 0. -1.
         25    2    1    2    0    0 -0.69837034576E+02  0.56112730050E+01  0.45701845660E+02  0.15040776147E+03  0.12500055292E+03 0.  0.
         25    2    1    2    0    0  0.69837034576E+02 -0.56112730050E+01  0.75503766897E+02  0.16197521341E+03  0.12500581251E+03 0.  0.
          5    1    3    3  502    0 -0.49862073097E+02  0.22677242195E+02 -0.35157064714E+02  0.65257894898E+02  0.47000000000E+01 0. -1.
         -5    1    3    3    0  502 -0.19974961479E+02 -0.17065969190E+02  0.80858910374E+02  0.85149866573E+02  0.47000000000E+01 0. -1.
          5    1    4    4  503    0 -0.18243101236E+02  0.23572088964E+02 -0.13733081406E+02  0.33153305200E+02  0.47000000000E+01 0. -1.
         -5    1    4    4    0  503  0.88080135812E+02 -0.29183361969E+02  0.89236848303E+02  0.12882190821E+03  0.47000000000E+01 0. -1.
<mgrwt>
<rscale>  0 0.14329976E+03</rscale>
<asrwt>0</asrwt>
<pdfrwt beam="1">  1        5 0.33352968E-01 0.14330091E+03</pdfrwt>
<pdfrwt beam="2">  1       -5 0.14705951E-01 0.14330091E+03</pdfrwt>
<totfact> 0.25991272E+02</totfact>
</mgrwt>
</event>
<event>
 8    1  0.1865596E-007  0.1523364E+03  0.7546771E-02  0.1197645E+00
         -5   -1    0    0    0  501 -0.00000000000E+00  0.00000000000E+00  0.11862021964E+03  0.11871329542E+03  0.47000000000E+01 0.  1.
          5   -1    0    0  501    0  0.00000000000E+00 -0.00000000000E+00 -0.20817010182E+03  0.20822315263E+03  0.47000000000E+01 0.  1.
         25    2    1    2    0    0  0.34289230175E+02 -0.80035681643E+02 -0.42716761455E+01  0.15239623304E+03  0.12499961194E+03 0.  0.
         25    2    1    2    0    0 -0.34289230175E+02  0.80035681643E+02 -0.85278206031E+02  0.17454021501E+03  0.12494179681E+03 0.  0.
          5    1    4    4  502    0  0.12267359302E+02 -0.10867299580E+02  0.21012434970E+02  0.27059170863E+02  0.47000000000E+01 0.  1.
         -5    1    4    4    0  502 -0.46556589477E+02  0.90902981223E+02 -0.10629064100E+03  0.14748104415E+03  0.47000000000E+01 0.  1.
          5    1    3    3  503    0 -0.25812009604E+02  0.20516524281E+02  0.87505872177E+01  0.34436178432E+02  0.47000000000E+01 0. -1.
         -5    1    3    3    0  503  0.60101239779E+02 -0.10055220592E+03 -0.13022263363E+02  0.11796005460E+03  0.47000000000E+01 0. -1.
<mgrwt>
<rscale>  0 0.15232449E+03</rscale>
<asrwt>0</asrwt>
<pdfrwt beam="2">  1        5 0.32037410E-01 0.15233635E+03</pdfrwt>
<pdfrwt beam="1">  1       -5 0.18260505E-01 0.15233635E+03</pdfrwt>
<totfact> 0.19339856E+02</totfact>
</mgrwt>
</event>
<event>
 8    1  0.1865596E-007  0.1277319E+03  0.7546771E-02  0.1230863E+00
          5   -1    0    0  501    0  0.00000000000E+00  0.00000000000E+00  0.22747567525E+03  0.22752422471E+03  0.47000000000E+01 0. -1.
         -5   -1    0    0    0  501 -0.00000000000E+00 -0.00000000000E+00 -0.87673045713E+02  0.87798934758E+02  0.47000000000E+01 0. -1.
         25    2    1    2    0    0 -0.26295831103E+02 -0.48415194173E+00  0.24406207095E+01  0.12774982090E+03  0.12498941945E+03 0.  0.
         25    2    1    2    0    0  0.26295831103E+02  0.48415194173E+00  0.13736200883E+03  0.18757333857E+03  0.12499492284E+03 0.  0.
          5    1    4    4  502    0  0.98860261481E+01 -0.43486675348E+02  0.13282174452E+03  0.14018748254E+03  0.47000000000E+01 0.  1.
         -5    1    4    4    0  502  0.16409804955E+02  0.43970827290E+02  0.45402643139E+01  0.47385856026E+02  0.47000000000E+01 0.  1.
          5    1    3    3  503    0 -0.41061117897E+02  0.55598700116E+02  0.54250854777E+01  0.69489225136E+02  0.47000000000E+01 0. -1.
         -5    1    3    3    0  503  0.14765286794E+02 -0.56082852057E+02 -0.29844647683E+01  0.58260595765E+02  0.47000000000E+01 0. -1.
<mgrwt>
<rscale>  0 0.12773054E+03</rscale>
<asrwt>0</asrwt>
<pdfrwt beam="1">  1        5 0.35009676E-01 0.12773189E+03</pdfrwt>
<pdfrwt beam="2">  1       -5 0.13501579E-01 0.12773189E+03</pdfrwt>
<totfact> 0.26436823E+02</totfact>
</mgrwt>
</event>
<event>
 8    1  0.1865596E-007  0.1452040E+03  0.7546771E-02  0.1206494E+00
         -5   -1    0    0    0  501 -0.00000000000E+00  0.00000000000E+00  0.61742158710E+03  0.61743947575E+03  0.47000000000E+01 0. -1.
          5   -1    0    0  501    0  0.00000000000E+00 -0.00000000000E+00 -0.37313899119E+02  0.37608736584E+02  0.47000000000E+01 0. -1.
         25    2    1    2    0    0 -0.25930102465E+02 -0.69183295213E+02  0.38770501665E+03  0.41400408683E+03  0.12500202166E+03 0.  0.
         25    2    1    2    0    0  0.25930102465E+02  0.69183295213E+02  0.19240267133E+03  0.24104412551E+03  0.12499913583E+03 0.  0.
          5    1    3    3  502    0 -0.18294435199E+02 -0.91639112848E+02  0.37537851702E+03  0.38686371554E+03  0.47000000000E+01 0.  1.
         -5    1    3    3    0  502 -0.76356672659E+01  0.22455817635E+02  0.12326499634E+02  0.27140371285E+02  0.47000000000E+01 0.  1.
          5    1    4    4  503    0  0.67031399719E+02  0.28269852198E+02  0.53432143591E+02  0.90385159514E+02  0.47000000000E+01 0. -1.
         -5    1    4    4    0  503 -0.41101297254E+02  0.40913443016E+02  0.13897052773E+03  0.15065896599E+03  0.47000000000E+01 0. -1.
<mgrwt>
<rscale>  0 0.14520339E+03</rscale>
<asrwt>0</asrwt>
<pdfrwt beam="2">  1        5 0.57646559E-02 0.14520401E+03</pdfrwt>
<pdfrwt beam="1">  1       -5 0.95011990E-01 0.14520401E+03</pdfrwt>
<totfact> 0.13615642E+02</totfact>
</mgrwt>
</event>
<event>
 8    1  0.1865596E-007  0.1255970E+03  0.7546771E-02  0.1234142E+00
          5   -1    0    0  501    0  0.00000000000E+00  0.00000000000E+00  0.57446119150E+02  0.57638065594E+02  0.47000000000E+01 0. -1.
         -5   -1    0    0    0  501 -0.00000000000E+00 -0.00000000000E+00 -0.27838008273E+03  0.27841975587E+03  0.47000000000E+01 0. -1.
         25    2    1    2    0    0 -0.75200153862E+01  0.96266573308E+01 -0.13173555743E+03  0.18200928239E+03  0.12499559440E+03 0.  0.
         25    2    1    2    0    0  0.75200153862E+01 -0.96266573308E+01 -0.89198406142E+02  0.15404853908E+03  0.12500149428E+03 0.  0.
          5    1    4    4  502    0  0.63160828699E+02 -0.92258020546E+01 -0.70360510317E+02  0.95116229517E+02  0.47000000000E+01 0. -1.
         -5    1    4    4    0  502 -0.55640813313E+02 -0.40085527618E+00 -0.18837895825E+02  0.58932309561E+02  0.47000000000E+01 0. -1.
          5    1    3    3  503    0 -0.61439816572E+02  0.10178621488E+02 -0.10369444825E+03  0.12104992356E+03  0.47000000000E+01 0. -1.
         -5    1    3    3    0  503  0.53919801186E+02 -0.55196415733E+00 -0.28041109184E+02  0.60959358827E+02  0.47000000000E+01 0. -1.
<mgrwt>
<rscale>  0 0.12559549E+03</rscale>
<asrwt>0</asrwt>
<pdfrwt beam="1">  1        5 0.88556815E-02 0.12559696E+03</pdfrwt>
<pdfrwt beam="2">  1       -5 0.42845521E-01 0.12559696E+03</pdfrwt>
<totfact> 0.36554684E+02</totfact>
</mgrwt>
</event>
<event>
 8    1  0.1865596E-007  0.1264024E+03  0.7546771E-02  0.1232920E+00
          5   -1    0    0  501    0  0.00000000000E+00  0.00000000000E+00  0.97733464858E+03  0.97734594966E+03  0.47000000000E+01 0. -1.
         -5   -1    0    0    0  501 -0.00000000000E+00 -0.00000000000E+00 -0.22089895348E+02  0.22584363539E+02  0.47000000000E+01 0. -1.
         25    2    1    2    0    0  0.81260923190E+00  0.18759411467E+02  0.21826847422E+03  0.25219265150E+03  0.12492970336E+03 0.  0.
         25    2    1    2    0    0 -0.81260923190E+00 -0.18759411467E+02  0.73697627902E+03  0.74773766170E+03  0.12499999615E+03 0.  0.
          5    1    4    4  502    0 -0.28694227768E+02  0.28982393038E+02  0.96597705875E+02  0.10495972844E+03  0.47000000000E+01 0.  1.
         -5    1    4    4    0  502  0.27881618536E+02 -0.47741804504E+02  0.64037857315E+03  0.64277793327E+03  0.47000000000E+01 0.  1.
          5    1    3    3  503    0 -0.24350700496E+01 -0.36414302215E+02  0.18254275097E+03  0.18621459906E+03  0.47000000000E+01 0.  1.
         -5    1    3    3    0  503  0.32476792815E+01  0.55173713682E+02  0.35725723250E+02  0.65978052441E+02  0.47000000000E+01 0.  1.
<mgrwt>
<rscale>  0 0.12638505E+03</rscale>
<asrwt>0</asrwt>
<pdfrwt beam="1">  1        5 0.15039808E+00 0.12640243E+03</pdfrwt>
<pdfrwt beam="2">  1       -5 0.34373508E-02 0.12640243E+03</pdfrwt>
<totfact> 0.94709262E+01</totfact>
</mgrwt>
</event>
<event>
 8    1  0.1865596E-007  0.2100238E+03  0.7546771E-02  0.1141547E+00
          5   -1    0    0  501    0  0.00000000000E+00  0.00000000000E+00  0.96626100066E+03  0.96627243125E+03  0.47000000000E+01 0. -1.
         -5   -1    0    0    0  501 -0.00000000000E+00 -0.00000000000E+00 -0.53325068088E+02  0.53531793231E+02  0.47000000000E+01 0. -1.
         25    2    1    2    0    0 -0.15330411442E+03 -0.70587883413E+02  0.26178557056E+03  0.33562093744E+03  0.12499971163E+03 0.  0.
         25    2    1    2    0    0  0.15330411442E+03  0.70587883413E+02  0.65115036201E+03  0.68418328704E+03  0.12500070218E+03 0.  0.
          5    1    4    4  502    0  0.97583020829E+02  0.28370436527E+02  0.56025997504E+03  0.56942133544E+03  0.47000000000E+01 0. -1.
         -5    1    4    4    0  502  0.55721093592E+02  0.42217446886E+02  0.90890386963E+02  0.11476195160E+03  0.47000000000E+01 0. -1.
          5    1    3    3  503    0 -0.14041476690E+03 -0.51249677288E+02  0.27152731466E+03  0.30998711069E+03  0.47000000000E+01 0. -1.
         -5    1    3    3    0  503 -0.12889347521E+02 -0.19338206124E+02 -0.97417440987E+01  0.25633826748E+02  0.47000000000E+01 0. -1.
<mgrwt>
<rscale>  0 0.21002360E+03</rscale>
<asrwt>0</asrwt>
<pdfrwt beam="1">  1        5 0.14867231E+00 0.21002375E+03</pdfrwt>
<pdfrwt beam="2">  1       -5 0.82206383E-02 0.21002375E+03</pdfrwt>
<totfact> 0.26142110E+01</totfact>
</mgrwt>
</event>
<event>
 8    1  0.1865596E-007  0.1976835E+03  0.7546771E-02  0.1151709E+00
          5   -1    0    0  501    0  0.00000000000E+00  0.00000000000E+00  0.26491962001E+02  0.26905650905E+02  0.47000000000E+01 0. -1.
         -5   -1    0    0    0  501 -0.00000000000E+00 -0.00000000000E+00 -0.15220169387E+04  0.15220241955E+04  0.47000000000E+01 0. -1.
         25    2    1    2    0    0 -0.10313437936E+03 -0.11320719252E+03 -0.89992296930E+03  0.92137863866E+03  0.12499870586E+03 0.  0.
         25    2    1    2    0    0  0.10313437936E+03  0.11320719252E+03 -0.59560200739E+03  0.62755120773E+03  0.12500479381E+03 0.  0.
          5    1    3    3  502    0  0.27872500183E+02 -0.29196640278E+02 -0.23339912657E+03  0.23691045218E+03  0.47000000000E+01 0. -1.
         -5    1    3    3    0  502 -0.13100687955E+03 -0.84010552237E+02 -0.66652384273E+03  0.68446818648E+03  0.47000000000E+01 0. -1.
          5    1    4    4  503    0  0.74126066194E+02  0.18382634583E+02 -0.40988919398E+03  0.41696982659E+03  0.47000000000E+01 0.  1.
         -5    1    4    4    0  503  0.29008313171E+02  0.94824557932E+02 -0.18571281341E+03  0.21058138114E+03  0.47000000000E+01 0.  1.
<mgrwt>
<rscale>  0 0.19768254E+03</rscale>
<asrwt>0</asrwt>
<pdfrwt beam="1">  1        5 0.41080681E-02 0.19768350E+03</pdfrwt>
<pdfrwt beam="2">  1       -5 0.23418877E+00 0.19768350E+03</pdfrwt>
<totfact> 0.20665933E+01</totfact>
</mgrwt>
</event>
<event>
 8    1  0.1865596E-007  0.1263710E+03  0.7546771E-02  0.1232945E+00
         -5   -1    0    0    0  501 -0.00000000000E+00  0.00000000000E+00  0.45216054029E+02  0.45459669400E+02  0.47000000000E+01 0. -1.
          5   -1    0    0  501    0  0.00000000000E+00 -0.00000000000E+00 -0.58701886561E+03  0.58703768071E+03  0.47000000000E+01 0. -1.
         25    2    1    2    0    0  0.53140687079E+01 -0.17742431767E+02 -0.70830191126E+02  0.14486731886E+03  0.12500636339E+03 0.  0.
         25    2    1    2    0    0 -0.53140687079E+01  0.17742431767E+02 -0.47097262045E+03  0.48763003125E+03  0.12499921982E+03 0.  0.
          5    1    3    3  502    0 -0.11996017307E+02 -0.67439872309E+02 -0.19908540134E+02  0.71487626751E+02  0.47000000000E+01 0.  1.
         -5    1    3    3    0  502  0.17310086015E+02  0.49697440541E+02 -0.50921650992E+02  0.73379692109E+02  0.47000000000E+01 0.  1.
          5    1    4    4  503    0  0.53729241838E+02 -0.18358754563E+02 -0.20751712493E+03  0.21519600935E+03  0.47000000000E+01 0. -1.
         -5    1    4    4    0  503 -0.59043310546E+02  0.36101186330E+02 -0.26345549552E+03  0.27243402191E+03  0.47000000000E+01 0. -1.
<mgrwt>
<rscale>  0 0.12636921E+03</rscale>
<asrwt>0</asrwt>
<pdfrwt beam="2">  1        5 0.90330776E-01 0.12637098E+03</pdfrwt>
<pdfrwt beam="1">  1       -5 0.69765034E-02 0.12637098E+03</pdfrwt>
<totfact> 0.10638151E+02</totfact>
</mgrwt>
</event>
<event>
 8    1  0.1865596E-007  0.1529176E+03  0.7546771E-02  0.1196934E+00
         -5   -1    0    0    0  501 -0.00000000000E+00  0.00000000000E+00  0.10152270993E+03  0.10163144510E+03  0.47000000000E+01 0. -1.
          5   -1    0    0  501    0  0.00000000000E+00 -0.00000000000E+00 -0.25017875774E+03  0.25022290228E+03  0.47000000000E+01 0. -1.
         25    2    1    2    0    0 -0.15680328060E+02 -0.86674146540E+02 -0.24465869626E+02  0.15486243586E+03  0.12500205957E+03 0.  0.
         25    2    1    2    0    0  0.15680328060E+02  0.86674146540E+02 -0.12419017818E+03  0.19699191152E+03  0.12499732989E+03 0.  0.
          5    1    3    3  502    0 -0.34997360408E+01  0.21556370898E+02 -0.38938083625E+02  0.44890863603E+02  0.47000000000E+01 0.  1.
         -5    1    3    3    0  502 -0.12180592020E+02 -0.10823051744E+03  0.14472213999E+02  0.10997157226E+03  0.47000000000E+01 0.  1.
          5    1    4    4  503    0 -0.54934329424E+02  0.38988972194E+02 -0.52390702282E+02  0.85468100409E+02  0.47000000000E+01 0.  1.
         -5    1    4    4    0  503  0.70614657485E+02  0.47685174345E+02 -0.71799475901E+02  0.11152381111E+03  0.47000000000E+01 0.  1.
<mgrwt>
<rscale>  0 0.15291664E+03</rscale>
<asrwt>0</asrwt>
<pdfrwt beam="2">  1        5 0.38500800E-01 0.15291761E+03</pdfrwt>
<pdfrwt beam="1">  1       -5 0.15630638E-01 0.15291761E+03</pdfrwt>
<totfact> 0.17805527E+02</totfact>
</mgrwt>
</event>
<event>
 8    1  0.1865596E-007  0.1293106E+03  0.7546771E-02  0.1228485E+00
          5   -1    0    0  501    0  0.00000000000E+00  0.00000000000E+00  0.16556502401E+03  0.16563172152E+03  0.47000000000E+01 0.  1.
         -5   -1    0    0    0  501 -0.00000000000E+00 -0.00000000000E+00 -0.10102571946E+03  0.10113498896E+03  0.47000000000E+01 0.  1.
         25    2    1    2    0    0 -0.12013952046E+02 -0.30811200300E+02  0.37866430084E+02  0.13473385000E+03  0.12500271477E+03 0.  0.
         25    2    1    2    0    0  0.12013952046E+02  0.30811200300E+02  0.26672874464E+02  0.13203286049E+03  0.12501027521E+03 0.  0.
          5    1    4    4  502    0  0.51756285664E+02  0.24750097700E+02  0.57342586740E+02  0.81249878128E+02  0.47000000000E+01 0. -1.
         -5    1    4    4    0  502 -0.39742333618E+02  0.60611025994E+01 -0.30669712275E+02  0.50782982358E+02  0.47000000000E+01 0. -1.
          5    1    3    3  503    0 -0.46226416113E+02 -0.57582892133E+02  0.50100564802E+02  0.89357862589E+02  0.47000000000E+01 0. -1.
         -5    1    3    3    0  503  0.34212464067E+02  0.26771691833E+02 -0.12234134718E+02  0.45375987410E+02  0.47000000000E+01 0. -1.
<mgrwt>
<rscale>  0 0.12930878E+03</rscale>
<asrwt>0</asrwt>
<pdfrwt beam="1">  1        5 0.25485078E-01 0.12931061E+03</pdfrwt>
<pdfrwt beam="2">  1       -5 0.15555955E-01 0.12931061E+03</pdfrwt>
<totfact> 0.38324963E+02</totfact>
</mgrwt>
</event>
<event>
 8    1  0.1865596E-007  0.2086127E+03  0.7546771E-02  0.1142669E+00
          5   -1    0    0  501    0  0.00000000000E+00  0.00000000000E+00  0.11807989143E+04  0.11808082681E+04  0.47000000000E+01 0. -1.
         -5   -1    0    0    0  501 -0.00000000000E+00 -0.00000000000E+00 -0.41523931597E+02  0.41789076267E+02  0.47000000000E+01 0. -1.
         25    2    1    2    0    0  0.21577677638E+02 -0.16561117319E+03  0.36193217346E+03  0.41774892278E+03  0.12500642961E+03 0.  0.
         25    2    1    2    0    0 -0.21577677638E+02  0.16561117319E+03  0.77734280920E+03  0.80484842154E+03  0.12500592700E+03 0.  0.
          5    1    4    4  502    0 -0.31405450761E+02  0.16808846796E+03  0.52308702117E+03  0.55034730591E+03  0.47000000000E+01 0. -1.
         -5    1    4    4    0  502  0.98277731227E+01 -0.24772947721E+01  0.25425578803E+03  0.25450111564E+03  0.47000000000E+01 0. -1.
          5    1    3    3  503    0 -0.10445572883E+02 -0.17141066236E+03  0.26905757281E+03  0.31922530077E+03  0.47000000000E+01 0.  1.
         -5    1    3    3    0  503  0.32023250521E+02  0.57994891746E+01  0.92874600652E+02  0.98523622014E+02  0.47000000000E+01 0.  1.
<mgrwt>
<rscale>  0 0.20861264E+03</rscale>
<asrwt>0</asrwt>
<pdfrwt beam="1">  1        5 0.18168248E+00 0.20861271E+03</pdfrwt>
<pdfrwt beam="2">  1       -5 0.64094128E-02 0.20861271E+03</pdfrwt>
<totfact> 0.22501223E+01</totfact>
</mgrwt>
</event>
<event>
 8    1  0.1865596E-007  0.2009241E+03  0.7546771E-02  0.1148962E+00
         -5   -1    0    0    0  501 -0.00000000000E+00  0.00000000000E+00  0.40054437551E+03  0.40057194953E+03  0.47000000000E+01 0. -1.
          5   -1    0    0  501    0  0.00000000000E+00 -0.00000000000E+00 -0.10070773361E+03  0.10081734775E+03  0.47000000000E+01 0. -1.
         25    2    1    2    0    0 -0.15200333400E+03  0.40498620050E+02  0.15175048116E+03  0.25178957803E+03  0.12499852518E+03 0.  0.
         25    2    1    2    0    0  0.15200333400E+03 -0.40498620050E+02  0.14808616074E+03  0.24959971926E+03  0.12500142829E+03 0.  0.
          5    1    3    3  502    0 -0.16456195685E+03  0.35837747855E+02  0.16242515492E+03  0.23402778203E+03  0.47000000000E+01 0.  1.
         -5    1    3    3    0  502  0.12558622843E+02  0.46608721953E+01 -0.10674673754E+02  0.17761795999E+02  0.47000000000E+01 0.  1.
          5    1    4    4  503    0  0.14171856995E+03 -0.74659809469E+02  0.97704767574E+02  0.18768737790E+03  0.47000000000E+01 0. -1.
         -5    1    4    4    0  503  0.10284764055E+02  0.34161189419E+02  0.50381393166E+02  0.61912341351E+02  0.47000000000E+01 0. -1.
<mgrwt>
<rscale>  0 0.20092369E+03</rscale>
<asrwt>0</asrwt>
<pdfrwt beam="2">  1        5 0.15504050E-01 0.20092414E+03</pdfrwt>
<pdfrwt beam="1">  1       -5 0.61632766E-01 0.20092414E+03</pdfrwt>
<totfact> 0.72159978E+01</totfact>
</mgrwt>
</event>
<event>
 8    1  0.1865596E-007  0.1302948E+03  0.7546771E-02  0.1227020E+00
         -5   -1    0    0    0  501 -0.00000000000E+00  0.00000000000E+00  0.68729238512E+01  0.83262886249E+01  0.47000000000E+01 0.  1.
          5   -1    0    0  501    0  0.00000000000E+00 -0.00000000000E+00 -0.29033355653E+04  0.29033393696E+04  0.47000000000E+01 0.  1.
         25    2    1    2    0    0 -0.34016664889E+02  0.13907275807E+02 -0.74856189771E+03  0.75981685137E+03  0.12500474839E+03 0.  0.
         25    2    1    2    0    0  0.34016664889E+02 -0.13907275807E+02 -0.21479007438E+04  0.21518488068E+04  0.12500054611E+03 0.  0.
          5    1    3    3  502    0  0.19529459937E+02 -0.33002141171E+02 -0.49217518315E+03  0.49368921604E+03  0.47000000000E+01 0. -1.
         -5    1    3    3    0  502 -0.53546124827E+02  0.46909416979E+02 -0.25638671456E+03  0.26612763533E+03  0.47000000000E+01 0. -1.
          5    1    4    4  503    0  0.28893990626E+02  0.28276480618E+02 -0.23696412776E+03  0.24043400320E+03  0.47000000000E+01 0. -1.
         -5    1    4    4    0  503  0.51226742640E+01 -0.42183756425E+02 -0.19109366160E+04  0.19114148036E+04  0.47000000000E+01 0. -1.
<mgrwt>
<rscale>  0 0.13029378E+03</rscale>
<asrwt>0</asrwt>
<pdfrwt beam="2">  1        5 0.44677821E+00 0.13029479E+03</pdfrwt>
<pdfrwt beam="1">  1       -5 0.11694651E-02 0.13029479E+03</pdfrwt>
<totfact> 0.53482607E+00</totfact>
</mgrwt>
</event>
<event>
 8    1  0.1865596E-007  0.1342283E+03  0.7546771E-02  0.1221318E+00
         -5   -1    0    0    0  501 -0.00000000000E+00  0.00000000000E+00  0.10669170151E+04  0.10669273673E+04  0.47000000000E+01 0. -1.
          5   -1    0    0  501    0  0.00000000000E+00 -0.00000000000E+00 -0.17480349005E+02  0.18101176794E+02  0.47000000000E+01 0. -1.
         25    2    1    2    0    0  0.48867928873E+02  0.15137168156E+01  0.40170585766E+03  0.42353846408E+03  0.12500747444E+03 0.  0.
         25    2    1    2    0    0 -0.48867928873E+02 -0.15137168156E+01  0.64773080844E+03  0.66149008003E+03  0.12499423971E+03 0.  0.
          5    1    4    4  502    0 -0.97408605520E+01 -0.60409317866E+02  0.24480454581E+03  0.25237972521E+03  0.47000000000E+01 0. -1.
         -5    1    4    4    0  502 -0.39127068321E+02  0.58895601051E+02  0.40292626263E+03  0.40911035481E+03  0.47000000000E+01 0. -1.
          5    1    3    3  503    0  0.76469972059E+02  0.20737946154E+02  0.36499888484E+03  0.37352910860E+03  0.47000000000E+01 0.  1.
         -5    1    3    3    0  503 -0.27602043186E+02 -0.19224229339E+02  0.36706972814E+02  0.50009355474E+02  0.47000000000E+01 0.  1.
<mgrwt>
<rscale>  0 0.13422521E+03</rscale>
<asrwt>0</asrwt>
<pdfrwt beam="2">  1        5 0.27378360E-02 0.13422829E+03</pdfrwt>
<pdfrwt beam="1">  1       -5 0.16418968E+00 0.13422829E+03</pdfrwt>
<totfact> 0.10932927E+02</totfact>
</mgrwt>
</event>
<event>
 8    1  0.1865596E-007  0.1378267E+03  0.7546771E-02  0.1216286E+00
          5   -1    0    0  501    0  0.00000000000E+00  0.00000000000E+00  0.25445662620E+03  0.25450002872E+03  0.47000000000E+01 0.  1.
         -5   -1    0    0    0  501 -0.00000000000E+00 -0.00000000000E+00 -0.97348163585E+02  0.97461556285E+02  0.47000000000E+01 0.  1.
         25    2    1    2    0    0 -0.71594300817E+01  0.57618360866E+02 -0.65794283523E+01  0.13797575471E+03  0.12499154796E+03 0.  0.
         25    2    1    2    0    0  0.71594300817E+01 -0.57618360866E+02  0.16368789097E+03  0.21398583030E+03  0.12500030788E+03 0.  0.
          5    1    3    3  502    0  0.10766769756E+02  0.68273678649E+02 -0.52764923225E+02  0.87082981404E+02  0.47000000000E+01 0. -1.
         -5    1    3    3    0  502 -0.17926199837E+02 -0.10655317782E+02  0.46185494873E+02  0.50892773302E+02  0.47000000000E+01 0. -1.
          5    1    4    4  503    0  0.59496721789E+02 -0.54363614008E+02  0.71584541956E+02  0.10789670560E+03  0.47000000000E+01 0.  1.
         -5    1    4    4    0  503 -0.52337291708E+02 -0.32547468587E+01  0.92103349010E+02  0.10608912470E+03  0.47000000000E+01 0.  1.
<mgrwt>
<rscale>  0 0.13782475E+03</rscale>
<asrwt>0</asrwt>
<pdfrwt beam="1">  1        5 0.39159234E-01 0.13782674E+03</pdfrwt>
<pdfrwt beam="2">  1       -5 0.14988702E-01 0.13782674E+03</pdfrwt>
<totfact> 0.17937230E+02</totfact>
</mgrwt>
</event>
<event>
 8    1  0.1865596E-007  0.1313904E+03  0.7546771E-02  0.1225408E+00
          5   -1    0    0  501    0  0.00000000000E+00  0.00000000000E+00  0.33048760567E+03  0.33052102429E+03  0.47000000000E+01 0. -1.
         -5   -1    0    0    0  501 -0.00000000000E+00 -0.00000000000E+00 -0.55851845860E+02  0.56049252323E+02  0.47000000000E+01 0. -1.
         25    2    1    2    0    0 -0.36622304489E+02  0.17251878374E+02  0.87287301744E+02  0.15774088398E+03  0.12499717173E+03 0.  0.
         25    2    1    2    0    0  0.36622304489E+02 -0.17251878374E+02  0.18734845806E+03  0.22882939263E+03  0.12499850279E+03 0.  0.
          5    1    3    3  502    0 -0.56899148385E+02  0.60016031437E+02  0.64600587066E+02  0.10504648002E+03  0.47000000000E+01 0.  1.
         -5    1    3    3    0  502  0.20276843896E+02 -0.42764153063E+02  0.22686714678E+02  0.52694403957E+02  0.47000000000E+01 0.  1.
          5    1    4    4  503    0  0.52873090907E+02  0.33882403697E+02  0.15167075069E+03  0.16422450376E+03  0.47000000000E+01 0.  1.
         -5    1    4    4    0  503 -0.16250786418E+02 -0.51134282071E+02  0.35677707375E+02  0.64604888869E+02  0.47000000000E+01 0.  1.
<mgrwt>
<rscale>  0 0.13139012E+03</rscale>
<asrwt>0</asrwt>
<pdfrwt beam="1">  1        5 0.50862004E-01 0.13139043E+03</pdfrwt>
<pdfrwt beam="2">  1       -5 0.86103472E-02 0.13139043E+03</pdfrwt>
<totfact> 0.27240527E+02</totfact>
</mgrwt>
</event>
<event>
 8    1  0.1865596E-007  0.1486950E+03  0.7546771E-02  0.1202091E+00
         -5   -1    0    0    0  501 -0.00000000000E+00  0.00000000000E+00  0.11994086846E+03  0.12003292018E+03  0.47000000000E+01 0. -1.
          5   -1    0    0  501    0  0.00000000000E+00 -0.00000000000E+00 -0.18423539654E+03  0.18429533727E+03  0.47000000000E+01 0. -1.
         25    2    1    2    0    0  0.67058987678E+02 -0.44542488210E+02 -0.35785378940E+02  0.15294054162E+03  0.12501709819E+03 0.  0.
         25    2    1    2    0    0 -0.67058987678E+02  0.44542488210E+02 -0.28509149142E+02  0.15138771583E+03  0.12499811132E+03 0.  0.
          5    1    3    3  502    0 -0.36668501039E+02 -0.89376940320E+01 -0.19836855546E+01  0.38085251101E+02  0.47000000000E+01 0.  1.
         -5    1    3    3    0  502  0.10372748872E+03 -0.35604794178E+02 -0.33801693386E+02  0.11485529052E+03  0.47000000000E+01 0.  1.
          5    1    4    4  503    0 -0.37015513243E+02  0.11368003004E+02  0.48472005465E+02  0.62217401318E+02  0.47000000000E+01 0.  1.
         -5    1    4    4    0  503 -0.30043474434E+02  0.33174485206E+02 -0.76981154607E+02  0.89170314508E+02  0.47000000000E+01 0.  1.
<mgrwt>
<rscale>  0 0.14869105E+03</rscale>
<asrwt>0</asrwt>
<pdfrwt beam="2">  1        5 0.28355599E-01 0.14869504E+03</pdfrwt>
<pdfrwt beam="1">  1       -5 0.18464133E-01 0.14869504E+03</pdfrwt>
<totfact> 0.23897142E+02</totfact>
</mgrwt>
</event>
<event>
 8    1  0.1865596E-007  0.1290660E+03  0.7546771E-02  0.1228849E+00
         -5   -1    0    0    0  501 -0.00000000000E+00  0.00000000000E+00  0.73685546558E+02  0.73835288118E+02  0.47000000000E+01 0. -1.
          5   -1    0    0  501    0  0.00000000000E+00 -0.00000000000E+00 -0.24132950175E+03  0.24137526471E+03  0.47000000000E+01 0. -1.
         25    2    1    2    0    0 -0.69508664413E+01 -0.31350696260E+02 -0.43679117452E+02  0.13625677505E+03  0.12500745076E+03 0.  0.
         25    2    1    2    0    0  0.69508664413E+01  0.31350696260E+02 -0.12396483774E+03  0.17895377778E+03  0.12500397148E+03 0.  0.
          5    1    4    4  502    0 -0.50386309845E+02  0.45670880640E+02 -0.80254481971E+02  0.10529711029E+03  0.47000000000E+01 0.  1.
         -5    1    4    4    0  502  0.57337176287E+02 -0.14320184381E+02 -0.43710355772E+02  0.73656667498E+02  0.47000000000E+01 0.  1.
          5    1    3    3  503    0  0.39241534233E+02 -0.16389590663E+02 -0.69080967615E+02  0.81257533667E+02  0.47000000000E+01 0.  1.
         -5    1    3    3    0  503 -0.46192400674E+02 -0.14961105596E+02  0.25401850164E+02  0.54999241380E+02  0.47000000000E+01 0.  1.
<mgrwt>
<rscale>  0 0.12906520E+03</rscale>
<asrwt>0</asrwt>
<pdfrwt beam="2">  1        5 0.37142654E-01 0.12906604E+03</pdfrwt>
<pdfrwt beam="1">  1       -5 0.11351277E-01 0.12906604E+03</pdfrwt>
<totfact> 0.32059717E+02</totfact>
</mgrwt>
</event>
<event>
 8    1  0.1865596E-007  0.1561711E+03  0.7546771E-02  0.1193089E+00
          5   -1    0    0  501    0  0.00000000000E+00  0.00000000000E+00  0.84220481899E+02  0.84351523823E+02  0.47000000000E+01 0. -1.
         -5   -1    0    0    0  501 -0.00000000000E+00 -0.00000000000E+00 -0.30973488245E+03  0.30977053993E+03  0.47000000000E+01 0. -1.
         25    2    1    2    0    0  0.12544268760E+02 -0.92782043314E+02 -0.62045857799E+02  0.16804381412E+03  0.12499267480E+03 0.  0.
         25    2    1    2    0    0 -0.12544268760E+02  0.92782043314E+02 -0.16346854275E+03  0.22607824963E+03  0.12499417684E+03 0.  0.
          5    1    4    4  502    0 -0.31839507975E+02  0.91516397427E+02 -0.17711938167E+03  0.20194645485E+03  0.47000000000E+01 0.  1.
         -5    1    4    4    0  502  0.19295239214E+02  0.12656458866E+01  0.13650838916E+02  0.24131794773E+02  0.47000000000E+01 0.  1.
          5    1    3    3  503    0  0.64498242180E+02 -0.58263260403E+02 -0.11862581311E+02  0.87848970355E+02  0.47000000000E+01 0. -1.
         -5    1    3    3    0  503 -0.51953973419E+02 -0.34518782910E+02 -0.50183276488E+02  0.80194843767E+02  0.47000000000E+01 0. -1.
<mgrwt>
<rscale>  0 0.15617079E+03</rscale>
<asrwt>0</asrwt>
<pdfrwt beam="1">  1        5 0.12969820E-01 0.15617109E+03</pdfrwt>
<pdfrwt beam="2">  1       -5 0.47664343E-01 0.15617109E+03</pdfrwt>
<totfact> 0.16132131E+02</totfact>
</mgrwt>
</event>
<event>
 8    1  0.1865596E-007  0.1262716E+03  0.7546771E-02  0.1233097E+00
          5   -1    0    0  501    0  0.00000000000E+00  0.00000000000E+00  0.13011300648E+03  0.13019786656E+03  0.47000000000E+01 0.  1.
         -5   -1    0    0    0  501 -0.00000000000E+00 -0.00000000000E+00 -0.12237061966E+03  0.12246084499E+03  0.47000000000E+01 0.  1.
         25    2    1    2    0    0  0.12659737844E+02  0.12581244709E+02  0.36548415770E+01  0.12632099075E+03  0.12500031263E+03 0.  0.
         25    2    1    2    0    0 -0.12659737844E+02 -0.12581244709E+02  0.40875452426E+01  0.12633772080E+03  0.12500381990E+03 0.  0.
          5    1    4    4  502    0  0.41996048584E+02  0.21385783401E+02 -0.27214437133E+02  0.54623579312E+02  0.47000000000E+01 0. -1.
         -5    1    4    4    0  502 -0.54655786429E+02 -0.33967028111E+02  0.31301982375E+02  0.71714141489E+02  0.47000000000E+01 0. -1.
          5    1    3    3  503    0  0.42102180487E+02 -0.36806761986E+02  0.29161350314E+02  0.63244016964E+02  0.47000000000E+01 0. -1.
         -5    1    3    3    0  503 -0.29442442643E+02  0.49388006696E+02 -0.25506508737E+02  0.63076973787E+02  0.47000000000E+01 0. -1.
<mgrwt>
<rscale>  0 0.12627071E+03</rscale>
<asrwt>0</asrwt>
<pdfrwt beam="1">  1        5 0.20030854E-01 0.12627158E+03</pdfrwt>
<pdfrwt beam="2">  1       -5 0.18839717E-01 0.12627158E+03</pdfrwt>
<totfact> 0.42165860E+02</totfact>
</mgrwt>
</event>
<event>
 8    1  0.1865596E-007  0.1465456E+03  0.7546771E-02  0.1204783E+00
          5   -1    0    0  501    0  0.00000000000E+00  0.00000000000E+00  0.25532219565E+03  0.25536545105E+03  0.47000000000E+01 0. -1.
         -5   -1    0    0    0  501 -0.00000000000E+00 -0.00000000000E+00 -0.85122282110E+02  0.85251937876E+02  0.47000000000E+01 0. -1.
         25    2    1    2    0    0 -0.55816208838E+02 -0.52309600807E+02  0.65526219151E+02  0.16052821246E+03  0.12499551230E+03 0.  0.
         25    2    1    2    0    0  0.55816208838E+02  0.52309600807E+02  0.10467369438E+03  0.18008917646E+03  0.12499514262E+03 0.  0.
          5    1    3    3  502    0 -0.62126184297E+02  0.25608170002E+02  0.39039604536E+02  0.77856418287E+02  0.47000000000E+01 0.  1.
         -5    1    3    3    0  502  0.63099754591E+01 -0.77917770809E+02  0.26486614615E+02  0.82671794174E+02  0.47000000000E+01 0.  1.
          5    1    4    4  503    0  0.85042917045E+02  0.50827500888E+02  0.36390611511E+02  0.10565083621E+03  0.47000000000E+01 0. -1.
         -5    1    4    4    0  503 -0.29226708208E+02  0.14820999184E+01  0.68283082874E+02  0.74438340253E+02  0.47000000000E+01 0. -1.
<mgrwt>
<rscale>  0 0.14654555E+03</rscale>
<asrwt>0</asrwt>
<pdfrwt beam="1">  1        5 0.39293638E-01 0.14654563E+03</pdfrwt>
<pdfrwt beam="2">  1       -5 0.13109037E-01 0.14654563E+03</pdfrwt>
<totfact> 0.23137515E+02</totfact>
</mgrwt>
</event>
<event>
 8    1  0.1865596E-007  0.1294082E+03  0.7546771E-02  0.1228350E+00
         -5   -1    0    0    0  501 -0.00000000000E+00  0.00000000000E+00  0.22237734055E+03  0.22242700284E+03  0.47000000000E+01 0.  1.
          5   -1    0    0  501    0  0.00000000000E+00 -0.00000000000E+00 -0.77455292007E+02  0.77597759374E+02  0.47000000000E+01 0.  1.
         25    2    1    2    0    0  0.16089826896E+02 -0.29218347188E+02  0.98295352101E+02  0.16250677121E+03  0.12503551537E+03 0.  0.
         25    2    1    2    0    0 -0.16089826896E+02  0.29218347188E+02  0.46626696446E+02  0.13751799100E+03  0.12499821873E+03 0.  0.
          5    1    3    3  502    0  0.16441282945E+02 -0.63578615605E+02  0.86717600673E+01  0.66406668112E+02  0.47000000000E+01 0.  1.
         -5    1    3    3    0  502 -0.35145604890E+00  0.34360268417E+02  0.89623592034E+02  0.96100103101E+02  0.47000000000E+01 0.  1.
          5    1    4    4  503    0 -0.26078386289E+02 -0.32010730798E+02 -0.20206554272E+02  0.46207834328E+02  0.47000000000E+01 0. -1.
         -5    1    4    4    0  503  0.99885593933E+01  0.61229077986E+02  0.66833250718E+02  0.91310156671E+02  0.47000000000E+01 0. -1.
<mgrwt>
<rscale>  0 0.12939916E+03</rscale>
<asrwt>0</asrwt>
<pdfrwt beam="2">  1        5 0.11930978E-01 0.12940817E+03</pdfrwt>
<pdfrwt beam="1">  1       -5 0.34226678E-01 0.12940817E+03</pdfrwt>
<totfact> 0.34632167E+02</totfact>
</mgrwt>
</event>
<event>
 8    1  0.1865596E-007  0.1472583E+03  0.7546771E-02  0.1203883E+00
         -5   -1    0    0    0  501 -0.00000000000E+00  0.00000000000E+00  0.19624506632E+03  0.19630133992E+03  0.47000000000E+01 0. -1.
          5   -1    0    0  501    0  0.00000000000E+00 -0.00000000000E+00 -0.11539811234E+03  0.11549378482E+03  0.47000000000E+01 0. -1.
         25    2    1    2    0    0 -0.62361232485E+02  0.46596421374E+02  0.72919493876E+02  0.16432366009E+03  0.12499945150E+03 0.  0.
         25    2    1    2    0    0  0.62361232485E+02 -0.46596421374E+02  0.79274601021E+01  0.14747146465E+03  0.12499935384E+03 0.  0.
          5    1    3    3  502    0 -0.30599121409E+02  0.87064234917E+02  0.62688518554E+02  0.11166211350E+03  0.47000000000E+01 0.  1.
         -5    1    3    3    0  502 -0.31762111076E+02 -0.40467813543E+02  0.10230975322E+02  0.52661546588E+02  0.47000000000E+01 0.  1.
          5    1    4    4  503    0  0.56634618916E+02 -0.69200171088E+02  0.47452407307E+02  0.10134083430E+03  0.47000000000E+01 0.  1.
         -5    1    4    4    0  503  0.57266135698E+01  0.22603749714E+02 -0.39524947205E+02  0.46130630341E+02  0.47000000000E+01 0.  1.
<mgrwt>
<rscale>  0 0.14725830E+03</rscale>
<asrwt>0</asrwt>
<pdfrwt beam="2">  1        5 0.17765244E-01 0.14725832E+03</pdfrwt>
<pdfrwt beam="1">  1       -5 0.30203237E-01 0.14725832E+03</pdfrwt>
<totfact> 0.22605589E+02</totfact>
</mgrwt>
</event>
<event>
 8    1  0.1865596E-007  0.2405523E+03  0.7546771E-02  0.1119425E+00
          5   -1    0    0  501    0  0.00000000000E+00  0.00000000000E+00  0.57276315385E+03  0.57278243724E+03  0.47000000000E+01 0.  1.
         -5   -1    0    0    0  501 -0.00000000000E+00 -0.00000000000E+00 -0.10282028417E+03  0.10292764856E+03  0.47000000000E+01 0.  1.
         25    2    1    2    0    0  0.16935792158E+01  0.20551737471E+03  0.18946756991E+03  0.30620800206E+03  0.12500048385E+03 0.  0.
         25    2    1    2    0    0 -0.16935792158E+01 -0.20551737471E+03  0.28047529977E+03  0.36950208374E+03  0.12500054635E+03 0.  0.
          5    1    4    4  502    0 -0.36710487345E+02 -0.18458833077E+03  0.17792906994E+03  0.25903929368E+03  0.47000000000E+01 0. -1.
         -5    1    4    4    0  502  0.35016908130E+02 -0.20929043932E+02  0.10254622983E+03  0.11046279006E+03  0.47000000000E+01 0. -1.
          5    1    3    3  503    0  0.35570986512E+01 -0.20633304955E+01 -0.14102083092E+02  0.15423003309E+02  0.47000000000E+01 0.  1.
         -5    1    3    3    0  503 -0.18635194354E+01  0.20758070520E+03  0.20356965300E+03  0.29078499875E+03  0.47000000000E+01 0.  1.
<mgrwt>
<rscale>  0 0.24055227E+03</rscale>
<asrwt>0</asrwt>
<pdfrwt beam="1">  1        5 0.88127150E-01 0.24055227E+03</pdfrwt>
<pdfrwt beam="2">  1       -5 0.15828247E-01 0.24055227E+03</pdfrwt>
<totfact> 0.31941741E+01</totfact>
</mgrwt>
</event>
<event>
 8    1  0.1865596E-007  0.1522316E+03  0.7546771E-02  0.1197758E+00
          5   -1    0    0  501    0  0.00000000000E+00  0.00000000000E+00  0.10898740785E+03  0.10908870276E+03  0.47000000000E+01 0. -1.
         -5   -1    0    0    0  501 -0.00000000000E+00 -0.00000000000E+00 -0.21870158719E+03  0.21875208397E+03  0.47000000000E+01 0. -1.
         25    2    1    2    0    0  0.72233529876E+02  0.48285787721E+02 -0.82656647227E+02  0.17322325970E+03  0.12499990494E+03 0.  0.
         25    2    1    2    0    0 -0.72233529876E+02 -0.48285787721E+02 -0.27057532116E+02  0.15461752702E+03  0.12500107793E+03 0.  0.
          5    1    3    3  502    0  0.75298914680E+02  0.39888078232E+02  0.45228160640E+01  0.85460699752E+02  0.47000000000E+01 0.  1.
         -5    1    3    3    0  502 -0.30653848033E+01  0.83977094891E+01 -0.87179463291E+02  0.87762559947E+02  0.47000000000E+01 0.  1.
          5    1    4    4  503    0  0.20137828284E+02 -0.78872163941E+00 -0.44606732535E+02  0.49173212192E+02  0.47000000000E+01 0. -1.
         -5    1    4    4    0  503 -0.92371358161E+02 -0.47497066082E+02  0.17549200419E+02  0.10544431483E+03  0.47000000000E+01 0. -1.
<mgrwt>
<rscale>  0 0.15223139E+03</rscale>
<asrwt>0</asrwt>
<pdfrwt beam="1">  1        5 0.16778970E-01 0.15223163E+03</pdfrwt>
<pdfrwt beam="2">  1       -5 0.33658074E-01 0.15223163E+03</pdfrwt>
<totfact> 0.20482938E+02</totfact>
</mgrwt>
</event>
<event>
 8    1  0.1865596E-007  0.1481536E+03  0.7546771E-02  0.1202763E+00
          5   -1    0    0  501    0  0.00000000000E+00  0.00000000000E+00  0.28010006913E+03  0.28013949869E+03  0.47000000000E+01 0. -1.
         -5   -1    0    0    0  501 -0.00000000000E+00 -0.00000000000E+00 -0.78350037689E+02  0.78490881037E+02  0.47000000000E+01 0. -1.
         25    2    1    2    0    0 -0.65070009022E+02 -0.45720083639E+02  0.10747364156E+03  0.18303025013E+03  0.12500022683E+03 0.  0.
         25    2    1    2    0    0  0.65070009022E+02  0.45720083639E+02  0.94276389871E+02  0.17560012959E+03  0.12499174255E+03 0.  0.
          5    1    3    3  502    0 -0.72054863247E+02  0.16341917265E+02  0.22322013378E+02  0.77326087828E+02  0.47000000000E+01 0.  1.
         -5    1    3    3    0  502  0.69848542259E+01 -0.62062000904E+02  0.85151628186E+02  0.10570416230E+03  0.47000000000E+01 0.  1.
          5    1    4    4  503    0  0.72603574744E+01  0.35293739253E+02 -0.23936211947E+02  0.43513136677E+02  0.47000000000E+01 0.  1.
         -5    1    4    4    0  503  0.57809651547E+02  0.10426344386E+02  0.11821260182E+03  0.13208699292E+03  0.47000000000E+01 0.  1.
<mgrwt>
<rscale>  0 0.14815181E+03</rscale>
<asrwt>0</asrwt>
<pdfrwt beam="1">  1        5 0.43106186E-01 0.14815360E+03</pdfrwt>
<pdfrwt beam="2">  1       -5 0.12067719E-01 0.14815360E+03</pdfrwt>
<totfact> 0.22244752E+02</totfact>
</mgrwt>
</event>
<event>
 8    1  0.1865596E-007  0.1311227E+03  0.7546771E-02  0.1225800E+00
          5   -1    0    0  501    0  0.00000000000E+00  0.00000000000E+00  0.73544290694E+02  0.73694319277E+02  0.47000000000E+01 0.  1.
         -5   -1    0    0    0  501 -0.00000000000E+00 -0.00000000000E+00 -0.24200623858E+03  0.24205187360E+03  0.47000000000E+01 0.  1.
         25    2    1    2    0    0 -0.15193615207E+02  0.36567533934E+02 -0.11405456032E+03  0.17378605289E+03  0.12500047587E+03 0.  0.
         25    2    1    2    0    0  0.15193615207E+02 -0.36567533934E+02 -0.54407387568E+02  0.14196013999E+03  0.12499794815E+03 0.  0.
          5    1    3    3  502    0  0.45517516170E+02 -0.16584820066E+02 -0.30003408653E+02  0.57176875271E+02  0.47000000000E+01 0. -1.
         -5    1    3    3    0  502 -0.60711131377E+02  0.53152354000E+02 -0.84051151669E+02  0.11660917762E+03  0.47000000000E+01 0. -1.
          5    1    4    4  503    0  0.74234456874E+01 -0.63070655540E+02 -0.81202269098E+02  0.10319357365E+03  0.47000000000E+01 0.  1.
         -5    1    4    4    0  503  0.77701695195E+01  0.26503121606E+02  0.26794881530E+02  0.38766566335E+02  0.47000000000E+01 0.  1.
<mgrwt>
<rscale>  0 0.13112205E+03</rscale>
<asrwt>0</asrwt>
<pdfrwt beam="1">  1        5 0.11329557E-01 0.13112265E+03</pdfrwt>
<pdfrwt beam="2">  1       -5 0.37246780E-01 0.13112265E+03</pdfrwt>
<totfact> 0.32171780E+02</totfact>
</mgrwt>
</event>
<event>
 8    1  0.1865596E-007  0.1410982E+03  0.7546771E-02  0.1211860E+00
          5   -1    0    0  501    0  0.00000000000E+00  0.00000000000E+00  0.46801509330E+02  0.47036913967E+02  0.47000000000E+01 0. -1.
         -5   -1    0    0    0  501 -0.00000000000E+00 -0.00000000000E+00 -0.43267659871E+03  0.43270212511E+03  0.47000000000E+01 0. -1.
         25    2    1    2    0    0  0.58851646845E+02 -0.28662338469E+02 -0.22677600645E+03  0.26708809335E+03  0.12499458597E+03 0.  0.
         25    2    1    2    0    0 -0.58851646845E+02  0.28662338469E+02 -0.15909908293E+03  0.21265094573E+03  0.12499144190E+03 0.  0.
          5    1    4    4  502    0 -0.28818596711E+02  0.53836437516E+02 -0.14740558348E+02  0.62994028139E+02  0.47000000000E+01 0. -1.
         -5    1    4    4    0  502 -0.30033050135E+02 -0.25174099047E+02 -0.14435852458E+03  0.14965691759E+03  0.47000000000E+01 0. -1.
          5    1    3    3  503    0  0.95483397729E+02 -0.15416731351E+02 -0.19028153648E+03  0.21350388281E+03  0.47000000000E+01 0. -1.
         -5    1    3    3    0  503 -0.36631750884E+02 -0.13245607118E+02 -0.36494469970E+02  0.53584210539E+02  0.47000000000E+01 0. -1.
<mgrwt>
<rscale>  0 0.14109747E+03</rscale>
<asrwt>0</asrwt>
<pdfrwt beam="1">  1        5 0.72203041E-02 0.14109817E+03</pdfrwt>
<pdfrwt beam="2">  1       -5 0.66585700E-01 0.14109817E+03</pdfrwt>
<totfact> 0.20992339E+02</totfact>
</mgrwt>
</event>
<event>
 8    1  0.1865596E-007  0.1271607E+03  0.7546771E-02  0.1231745E+00
          5   -1    0    0  501    0  0.00000000000E+00  0.00000000000E+00  0.91014721671E+02  0.91135994869E+02  0.47000000000E+01 0.  1.
         -5   -1    0    0    0  501 -0.00000000000E+00 -0.00000000000E+00 -0.18726782376E+03  0.18732679418E+03  0.47000000000E+01 0.  1.
         25    2    1    2    0    0  0.80764695206E+01 -0.21870534666E+02 -0.80175363958E+02  0.15032607256E+03  0.12500515773E+03 0.  0.
         25    2    1    2    0    0 -0.80764695206E+01  0.21870534666E+02 -0.16077738136E+02  0.12813671649E+03  0.12496789508E+03 0.  0.
          5    1    3    3  502    0 -0.37349964061E+02  0.35614866852E+02 -0.46206927010E+02  0.69430603195E+02  0.47000000000E+01 0. -1.
         -5    1    3    3    0  502  0.45426433582E+02 -0.57485401518E+02 -0.33968436947E+02  0.80895469368E+02  0.47000000000E+01 0. -1.
          5    1    4    4  503    0 -0.31159026969E+02 -0.29179083749E+02 -0.47249867954E+02  0.63850950751E+02  0.47000000000E+01 0.  1.
         -5    1    4    4    0  503  0.23082557449E+02  0.51049618415E+02  0.31172129819E+02  0.64285765735E+02  0.47000000000E+01 0.  1.
<mgrwt>
<rscale>  0 0.12715152E+03</rscale>
<asrwt>0</asrwt>
<pdfrwt beam="1">  1        5 0.14016130E-01 0.12716068E+03</pdfrwt>
<pdfrwt beam="2">  1       -5 0.28824299E-01 0.12716068E+03</pdfrwt>
<totfact> 0.36234797E+02</totfact>
</mgrwt>
</event>
<event>
 8    1  0.1865596E-007  0.1450580E+03  0.7546771E-02  0.1206681E+00
         -5   -1    0    0    0  501 -0.00000000000E+00  0.00000000000E+00  0.51128032813E+02  0.51343604659E+02  0.47000000000E+01 0. -1.
          5   -1    0    0  501    0  0.00000000000E+00 -0.00000000000E+00 -0.46809287448E+03  0.46811646963E+03  0.47000000000E+01 0. -1.
         25    2    1    2    0    0 -0.29516725643E+02 -0.67421868678E+02 -0.11736656509E+03  0.18659240683E+03  0.12499948087E+03 0.  0.
         25    2    1    2    0    0  0.29516725643E+02  0.67421868678E+02 -0.29959827658E+03  0.33286766746E+03  0.12499924496E+03 0.  0.
          5    1    3    3  502    0 -0.47803376333E+02 -0.72132831381E+02 -0.13493994369E+03  0.16037202547E+03  0.47000000000E+01 0. -1.
         -5    1    3    3    0  502  0.18286650689E+02  0.47109627021E+01  0.17573378603E+02  0.26220381358E+02  0.47000000000E+01 0. -1.
          5    1    4    4  503    0 -0.21404410690E+02  0.17874470840E+01 -0.20785190140E+03  0.20901159461E+03  0.47000000000E+01 0.  1.
         -5    1    4    4    0  503  0.50921136333E+02  0.65634421594E+02 -0.91746375182E+02  0.12385607285E+03  0.47000000000E+01 0.  1.
<mgrwt>
<rscale>  0 0.14505792E+03</rscale>
<asrwt>0</asrwt>
<pdfrwt beam="2">  1        5 0.72032683E-01 0.14505797E+03</pdfrwt>
<pdfrwt beam="1">  1       -5 0.78842490E-02 0.14505797E+03</pdfrwt>
<totfact> 0.15272312E+02</totfact>
</mgrwt>
</event>
<event>
 8    1  0.1865596E-007  0.1363109E+03  0.7546771E-02  0.1218381E+00
          5   -1    0    0  501    0  0.00000000000E+00  0.00000000000E+00  0.81998249832E+02  0.82132837377E+02  0.47000000000E+01 0.  1.
         -5   -1    0    0    0  501 -0.00000000000E+00 -0.00000000000E+00 -0.27909305088E+03  0.27913262269E+03  0.47000000000E+01 0.  1.
         25    2    1    2    0    0 -0.53110179631E+01  0.54103064154E+02 -0.19975000430E+02  0.13776585399E+03  0.12500032568E+03 0.  0.
         25    2    1    2    0    0  0.53110179631E+01 -0.54103064154E+02 -0.17711980062E+03  0.22349960608E+03  0.12500120673E+03 0.  0.
          5    1    4    4  502    0  0.42208474407E+02  0.11414113565E+02 -0.12331023235E+03  0.13091730482E+03  0.47000000000E+01 0.  1.
         -5    1    4    4    0  502 -0.36897456444E+02 -0.65517177719E+02 -0.53809568271E+02  0.92582301256E+02  0.47000000000E+01 0.  1.
          5    1    3    3  503    0 -0.36392035349E+02 -0.26900322026E+02  0.85898733255E+01  0.46302089431E+02  0.47000000000E+01 0. -1.
         -5    1    3    3    0  503  0.31081017386E+02  0.81003386180E+02 -0.28564873755E+02  0.91463764557E+02  0.47000000000E+01 0. -1.
<mgrwt>
<rscale>  0 0.13631066E+03</rscale>
<asrwt>0</asrwt>
<pdfrwt beam="1">  1        5 0.12628512E-01 0.13631086E+03</pdfrwt>
<pdfrwt beam="2">  1       -5 0.42950789E-01 0.13631086E+03</pdfrwt>
<totfact> 0.20106427E+02</totfact>
</mgrwt>
</event>
<event>
 8    1  0.1865596E-007  0.1328699E+03  0.7546771E-02  0.1223259E+00
         -5   -1    0    0    0  501 -0.00000000000E+00  0.00000000000E+00  0.20747255221E+03  0.20752578134E+03  0.47000000000E+01 0. -1.
          5   -1    0    0  501    0  0.00000000000E+00 -0.00000000000E+00 -0.84962888364E+02  0.85092786998E+02  0.47000000000E+01 0. -1.
         25    2    1    2    0    0  0.43314918144E+02 -0.12346200959E+02  0.60854176357E+02  0.14614254656E+03  0.12500320925E+03 0.  0.
         25    2    1    2    0    0 -0.43314918144E+02  0.12346200959E+02  0.61655487489E+02  0.14647602178E+03  0.12500086002E+03 0.  0.
          5    1    4    4  502    0 -0.41527837116E+02  0.25308335778E+02  0.96937021961E+02  0.10855390063E+03  0.47000000000E+01 0.  1.
         -5    1    4    4    0  502 -0.17870810286E+01 -0.12962134819E+02 -0.35281534472E+02  0.37922121148E+02  0.47000000000E+01 0.  1.
          5    1    3    3  503    0 -0.20666334337E+02  0.31649857112E+02 -0.11619285201E+02  0.39823468191E+02  0.47000000000E+01 0. -1.
         -5    1    3    3    0  503  0.63981252481E+02 -0.43996058071E+02  0.72473461558E+02  0.10631907837E+03  0.47000000000E+01 0. -1.
<mgrwt>
<rscale>  0 0.13286936E+03</rscale>
<asrwt>0</asrwt>
<pdfrwt beam="2">  1        5 0.13085300E-01 0.13286991E+03</pdfrwt>
<pdfrwt beam="1">  1       -5 0.31932941E-01 0.13286991E+03</pdfrwt>
<totfact> 0.34058711E+02</totfact>
</mgrwt>
</event>
<event>
 8    1  0.1865596E-007  0.1292426E+03  0.7546771E-02  0.1228595E+00
         -5   -1    0    0    0  501 -0.00000000000E+00  0.00000000000E+00  0.17358738262E+04  0.17358801890E+04  0.47000000000E+01 0. -1.
          5   -1    0    0  501    0  0.00000000000E+00 -0.00000000000E+00 -0.10244838009E+02  0.11271499716E+02  0.47000000000E+01 0. -1.
         25    2    1    2    0    0  0.15432628729E+02 -0.28983509761E+02  0.11477066137E+04  0.11549606591E+04  0.12500177293E+03 0.  0.
         25    2    1    2    0    0 -0.15432628729E+02  0.28983509761E+02  0.57792237452E+03  0.59219102955E+03  0.12497093519E+03 0.  0.
          5    1    3    3  502    0 -0.44731454684E+01  0.46976216132E+02  0.56157918749E+03  0.56357789855E+03  0.47000000000E+01 0. -1.
         -5    1    3    3    0  502  0.19905774197E+02 -0.75959725894E+02  0.58612742618E+03  0.59138276059E+03  0.47000000000E+01 0. -1.
          5    1    4    4  503    0 -0.39839428504E+01  0.24677080384E+02  0.15856578028E+02  0.29972506797E+02  0.47000000000E+01 0. -1.
         -5    1    4    4    0  503 -0.11448685878E+02  0.43064293771E+01  0.56206579649E+03  0.56221852275E+03  0.47000000000E+01 0. -1.
<mgrwt>
<rscale>  0 0.12923516E+03</rscale>
<asrwt>0</asrwt>
<pdfrwt beam="2">  1        5 0.16555924E-02 0.12924261E+03</pdfrwt>
<pdfrwt beam="1">  1       -5 0.26713697E+00 0.12924261E+03</pdfrwt>
<totfact> 0.49617554E+01</totfact>
</mgrwt>
</event>
<event>
 8    1  0.1865596E-007  0.1489131E+03  0.7546771E-02  0.1201818E+00
          5   -1    0    0  501    0  0.00000000000E+00  0.00000000000E+00  0.36080281332E+03  0.36083342431E+03  0.47000000000E+01 0. -1.
         -5   -1    0    0    0  501 -0.00000000000E+00 -0.00000000000E+00 -0.74600310882E+02  0.74748219937E+02  0.47000000000E+01 0. -1.
         25    2    1    2    0    0  0.39402287114E+02 -0.70695495112E+02  0.51373842281E+02  0.15751762190E+03  0.12498854459E+03 0.  0.
         25    2    1    2    0    0 -0.39402287114E+02  0.70695495112E+02  0.23482866016E+03  0.27806402235E+03  0.12499883054E+03 0.  0.
          5    1    3    3  502    0 -0.22265929109E+02 -0.82255255221E+02  0.22321124436E+02  0.88215765068E+02  0.47000000000E+01 0.  1.
         -5    1    3    3    0  502  0.61668216222E+02  0.11559760109E+02  0.29052717845E+02  0.69301856829E+02  0.47000000000E+01 0.  1.
          5    1    4    4  503    0 -0.71720986294E+02  0.42465913902E+01  0.14300797867E+03  0.16011029129E+03  0.47000000000E+01 0. -1.
         -5    1    4    4    0  503  0.32318699180E+02  0.66448903722E+02  0.91820681493E+02  0.11795373107E+03  0.47000000000E+01 0. -1.
<mgrwt>
<rscale>  0 0.14891091E+03</rscale>
<asrwt>0</asrwt>
<pdfrwt beam="1">  1        5 0.55521858E-01 0.14891306E+03</pdfrwt>
<pdfrwt beam="2">  1       -5 0.11490703E-01 0.14891306E+03</pdfrwt>
<totfact> 0.14226990E+02</totfact>
</mgrwt>
</event>
<event>
 8    1  0.1865596E-007  0.1361882E+03  0.7546771E-02  0.1218564E+00
          5   -1    0    0  501    0  0.00000000000E+00  0.00000000000E+00  0.66895041738E+03  0.66896692812E+03  0.47000000000E+01 0.  1.
         -5   -1    0    0    0  501 -0.00000000000E+00 -0.00000000000E+00 -0.27577034638E+02  0.27974682115E+02  0.47000000000E+01 0.  1.
         25    2    1    2    0    0  0.28594374158E+02  0.45793929353E+02  0.33866799152E+03  0.36502498086E+03  0.12503002027E+03 0.  0.
         25    2    1    2    0    0 -0.28594374158E+02 -0.45793929353E+02  0.30270539122E+03  0.33191662937E+03  0.12499349096E+03 0.  0.
          5    1    3    3  502    0 -0.24365966426E+02  0.43958716695E+02  0.48440033547E+02  0.69961388948E+02  0.47000000000E+01 0.  1.
         -5    1    3    3    0  502  0.52960340584E+02  0.18352126572E+01  0.29022795797E+03  0.29506359191E+03  0.47000000000E+01 0.  1.
          5    1    4    4  503    0 -0.22546200111E+02  0.37328562533E+02  0.53956778842E+02  0.69535434875E+02  0.47000000000E+01 0.  1.
         -5    1    4    4    0  503 -0.60481740469E+01 -0.83122491886E+02  0.24874861238E+03  0.26238119450E+03  0.47000000000E+01 0.  1.
<mgrwt>
<rscale>  0 0.13617982E+03</rscale>
<asrwt>0</asrwt>
<pdfrwt beam="1">  1        5 0.10294730E+00 0.13618821E+03</pdfrwt>
<pdfrwt beam="2">  1       -5 0.42744794E-02 0.13618821E+03</pdfrwt>
<totfact> 0.18038197E+02</totfact>
</mgrwt>
</event>
<event>
 8    1  0.1865596E-007  0.2767843E+03  0.7546771E-02  0.1097460E+00
          5   -1    0    0  501    0  0.00000000000E+00  0.00000000000E+00  0.22070769556E+03  0.22075773345E+03  0.47000000000E+01 0.  1.
         -5   -1    0    0    0  501 -0.00000000000E+00 -0.00000000000E+00 -0.38855453932E+03  0.38858296415E+03  0.47000000000E+01 0.  1.
         25    2    1    2    0    0 -0.24202525506E+03  0.48989657542E+02 -0.18356438618E+03  0.33211050200E+03  0.12500116411E+03 0.  0.
         25    2    1    2    0    0  0.24202525506E+03 -0.48989657542E+02  0.15717542417E+02  0.27723019561E+03  0.12503331390E+03 0.  0.
          5    1    3    3  502    0  0.77371889339E+01  0.91623657917E+01 -0.38296658642E+02  0.40404666842E+02  0.47000000000E+01 0. -1.
         -5    1    3    3    0  502 -0.24976244399E+03  0.39827291750E+02 -0.14526772754E+03  0.29170583515E+03  0.47000000000E+01 0. -1.
          5    1    4    4  503    0  0.89163658353E+01  0.20371980904E+02  0.25013724590E+02  0.33797863889E+02  0.47000000000E+01 0.  1.
         -5    1    4    4    0  503  0.23310888922E+03 -0.69361638445E+02 -0.92961821725E+01  0.24343233172E+03  0.47000000000E+01 0.  1.
<mgrwt>
<rscale>  0 0.27678065E+03</rscale>
<asrwt>0</asrwt>
<pdfrwt beam="1">  1        5 0.33961066E-01 0.27678428E+03</pdfrwt>
<pdfrwt beam="2">  1       -5 0.59783657E-01 0.27678428E+03</pdfrwt>
<totfact> 0.18527194E+01</totfact>
</mgrwt>
</event>
<event>
 8    1  0.1865596E-007  0.1551701E+03  0.7546771E-02  0.1194261E+00
          5   -1    0    0  501    0  0.00000000000E+00  0.00000000000E+00  0.74743537371E+03  0.74745015077E+03  0.47000000000E+01 0. -1.
         -5   -1    0    0    0  501 -0.00000000000E+00 -0.00000000000E+00 -0.32193948692E+02  0.32535216802E+02  0.47000000000E+01 0. -1.
         25    2    1    2    0    0 -0.90400016894E+02  0.16734722935E+02  0.32962608717E+03  0.36432089740E+03  0.12499657969E+03 0.  0.
         25    2    1    2    0    0  0.90400016894E+02 -0.16734722935E+02  0.38561533785E+03  0.41566447017E+03  0.12500219584E+03 0.  0.
          5    1    3    3  502    0 -0.71456559858E+02  0.59800917108E+02  0.28273150137E+03  0.29772702514E+03  0.47000000000E+01 0.  1.
         -5    1    3    3    0  502 -0.18943457036E+02 -0.43066194173E+02  0.46894585802E+02  0.66593872260E+02  0.47000000000E+01 0.  1.
          5    1    4    4  503    0  0.28258255360E+02  0.24702967014E+02  0.20632078107E+02  0.43087564590E+02  0.47000000000E+01 0. -1.
         -5    1    4    4    0  503  0.62141761535E+02 -0.41437689949E+02  0.36498325975E+03  0.37257690558E+03  0.47000000000E+01 0. -1.
<mgrwt>
<rscale>  0 0.15516898E+03</rscale>
<asrwt>0</asrwt>
<pdfrwt beam="1">  1        5 0.11501744E+00 0.15517011E+03</pdfrwt>
<pdfrwt beam="2">  1       -5 0.49803036E-02 0.15517011E+03</pdfrwt>
<totfact> 0.11084154E+02</totfact>
</mgrwt>
</event>
<event>
 8    1  0.1865596E-007  0.1305355E+03  0.7546771E-02  0.1226664E+00
          5   -1    0    0  501    0  0.00000000000E+00  0.00000000000E+00  0.10546681417E+03  0.10557148712E+03  0.47000000000E+01 0.  1.
         -5   -1    0    0    0  501 -0.00000000000E+00 -0.00000000000E+00 -0.17189708229E+03  0.17196132385E+03  0.47000000000E+01 0.  1.
         25    2    1    2    0    0 -0.28140664374E+02  0.24942722389E+02 -0.67582710461E+02  0.14699220285E+03  0.12500099421E+03 0.  0.
         25    2    1    2    0    0  0.28140664374E+02 -0.24942722389E+02  0.11524423436E+01  0.13054060812E+03  0.12500194339E+03 0.  0.
          5    1    3    3  502    0 -0.31898437316E+02 -0.39719839805E+02 -0.64023370255E+02  0.81952778575E+02  0.47000000000E+01 0. -1.
         -5    1    3    3    0  502  0.37577729420E+01  0.64662562194E+02 -0.35593402054E+01  0.65039424273E+02  0.47000000000E+01 0. -1.
          5    1    4    4  503    0  0.55987195820E+02  0.27836441325E+02 -0.21869934556E+02  0.66406457509E+02  0.47000000000E+01 0. -1.
         -5    1    4    4    0  503 -0.27846531446E+02 -0.52779163714E+02  0.23022376900E+02  0.64134150606E+02  0.47000000000E+01 0. -1.
<mgrwt>
<rscale>  0 0.13053529E+03</rscale>
<asrwt>0</asrwt>
<pdfrwt beam="1">  1        5 0.16238657E-01 0.13053552E+03</pdfrwt>
<pdfrwt beam="2">  1       -5 0.26458698E-01 0.13053552E+03</pdfrwt>
<totfact> 0.33093937E+02</totfact>
</mgrwt>
</event>
<event>
 8    1  0.1865596E-007  0.1769734E+03  0.7546771E-02  0.1170772E+00
         -5   -1    0    0    0  501 -0.00000000000E+00  0.00000000000E+00  0.24310301129E+02  0.24760467301E+02  0.47000000000E+01 0. -1.
          5   -1    0    0  501    0  0.00000000000E+00 -0.00000000000E+00 -0.12983627136E+04  0.12983712204E+04  0.47000000000E+01 0. -1.
         25    2    1    2    0    0 -0.47961441165E+02 -0.11573478068E+03 -0.72410369382E+03  0.74540929247E+03  0.12495605067E+03 0.  0.
         25    2    1    2    0    0  0.47961441165E+02  0.11573478068E+03 -0.54994871862E+03  0.57772239524E+03  0.12499893421E+03 0.  0.
          5    1    4    4  502    0  0.30580053731E+02  0.12976734809E+03 -0.32070547193E+03  0.34734535270E+03  0.47000000000E+01 0. -1.
         -5    1    4    4    0  502  0.17381387433E+02 -0.14032567409E+02 -0.22924324669E+03  0.23037704254E+03  0.47000000000E+01 0. -1.
          5    1    3    3  503    0  0.11563559194E+02 -0.40652554037E+02 -0.55299001006E+02  0.69759698704E+02  0.47000000000E+01 0. -1.
         -5    1    3    3    0  503 -0.59525000358E+02 -0.75082226641E+02 -0.66880469281E+03  0.67564959376E+03  0.47000000000E+01 0. -1.
<mgrwt>
<rscale>  0 0.17696580E+03</rscale>
<asrwt>0</asrwt>
<pdfrwt beam="2">  1        5 0.19978334E+00 0.17697337E+03</pdfrwt>
<pdfrwt beam="1">  1       -5 0.37753299E-02 0.17697337E+03</pdfrwt>
<totfact> 0.39142164E+01</totfact>
</mgrwt>
</event>
<event>
 8    1  0.1865596E-007  0.1250499E+03  0.7546771E-02  0.1235002E+00
          5   -1    0    0  501    0  0.00000000000E+00  0.00000000000E+00  0.11199493862E+03  0.11209351576E+03  0.47000000000E+01 0. -1.
         -5   -1    0    0    0  501 -0.00000000000E+00 -0.00000000000E+00 -0.18485376882E+03  0.18491350910E+03  0.47000000000E+01 0. -1.
         25    2    1    2    0    0  0.57383949425E+00  0.23961549920E+01 -0.11004016977E+03  0.16657222532E+03  0.12502558311E+03 0.  0.
         25    2    1    2    0    0 -0.57383949425E+00 -0.23961549920E+01  0.37181339572E+02  0.13043479954E+03  0.12499885627E+03 0.  0.
          5    1    4    4  502    0 -0.49632309037E+02  0.23247899535E+02  0.48963567847E+02  0.73643410496E+02  0.47000000000E+01 0.  1.
         -5    1    4    4    0  502  0.49058469543E+02 -0.25644054527E+02 -0.11782228275E+02  0.56791389045E+02  0.47000000000E+01 0.  1.
          5    1    3    3  503    0  0.66929441078E+01 -0.18472585470E+02  0.23615357939E+02  0.31077436274E+02  0.47000000000E+01 0. -1.
         -5    1    3    3    0  503 -0.61191046136E+01  0.20868740462E+02 -0.13365552771E+03  0.13549478904E+03  0.47000000000E+01 0. -1.
<mgrwt>
<rscale>  0 0.12504318E+03</rscale>
<asrwt>0</asrwt>
<pdfrwt beam="1">  1        5 0.17242169E-01 0.12504986E+03</pdfrwt>
<pdfrwt beam="2">  1       -5 0.28451220E-01 0.12504986E+03</pdfrwt>
<totfact> 0.25368007E+02</totfact>
</mgrwt>
</event>
<event>
 8    1  0.1865596E-007  0.2169163E+03  0.7546771E-02  0.1136204E+00
          5   -1    0    0  501    0  0.00000000000E+00  0.00000000000E+00  0.46927088086E+02  0.47161865911E+02  0.47000000000E+01 0.  1.
         -5   -1    0    0    0  501 -0.00000000000E+00 -0.00000000000E+00 -0.10318052572E+04  0.10318159617E+04  0.47000000000E+01 0.  1.
         25    2    1    2    0    0  0.17194998004E+03 -0.43125037773E+02 -0.39761407182E+03  0.45293327305E+03  0.12500014085E+03 0.  0.
         25    2    1    2    0    0 -0.17194998004E+03  0.43125037773E+02 -0.58726409728E+03  0.62604455453E+03  0.12500439904E+03 0.  0.
          5    1    3    3  502    0  0.15749483460E+03 -0.70876849371E+02 -0.37823970015E+03  0.41583110931E+03  0.47000000000E+01 0.  1.
         -5    1    3    3    0  502  0.14455145435E+02  0.27751811598E+02 -0.19374371669E+02  0.37102163739E+02  0.47000000000E+01 0.  1.
          5    1    4    4  503    0  0.18094132448E+02 -0.72385540012E+01 -0.46815992226E+02  0.50927609616E+02  0.47000000000E+01 0.  1.
         -5    1    4    4    0  503 -0.19004411249E+03  0.50363591774E+02 -0.54044810506E+03  0.57511694491E+03  0.47000000000E+01 0.  1.
<mgrwt>
<rscale>  0 0.21691565E+03</rscale>
<asrwt>0</asrwt>
<pdfrwt beam="1">  1        5 0.72384361E-02 0.21691626E+03</pdfrwt>
<pdfrwt beam="2">  1       -5 0.15875814E+00 0.21691626E+03</pdfrwt>
<totfact> 0.27308546E+01</totfact>
</mgrwt>
</event>
<event>
 8    1  0.1865596E-007  0.1450688E+03  0.7546771E-02  0.1206668E+00
          5   -1    0    0  501    0  0.00000000000E+00  0.00000000000E+00  0.27102890333E+03  0.27106965238E+03  0.47000000000E+01 0. -1.
         -5   -1    0    0    0  501 -0.00000000000E+00 -0.00000000000E+00 -0.78068252270E+02  0.78209603071E+02  0.47000000000E+01 0. -1.
         25    2    1    2    0    0  0.55985399369E+02  0.47810796041E+02  0.11097864981E+03  0.18264786693E+03  0.12499498158E+03 0.  0.
         25    2    1    2    0    0 -0.55985399369E+02 -0.47810796041E+02  0.81982001250E+02  0.16663138852E+03  0.12499893579E+03 0.  0.
          5    1    3    3  502    0 -0.68980331972E+01  0.22932094562E+02  0.11222453566E+03  0.11484729090E+03  0.47000000000E+01 0. -1.
         -5    1    3    3    0  502  0.62883432566E+02  0.24878701479E+02 -0.12458858512E+01  0.67800576031E+02  0.47000000000E+01 0. -1.
          5    1    4    4  503    0 -0.14231365775E+02 -0.28713644899E+02  0.10861690947E+03  0.11334340827E+03  0.47000000000E+01 0. -1.
         -5    1    4    4    0  503 -0.41754033594E+02 -0.19097151142E+02 -0.26634908219E+02  0.53287980248E+02  0.47000000000E+01 0. -1.
<mgrwt>
<rscale>  0 0.14506800E+03</rscale>
<asrwt>0</asrwt>
<pdfrwt beam="1">  1        5 0.41710761E-01 0.14506885E+03</pdfrwt>
<pdfrwt beam="2">  1       -5 0.12024508E-01 0.14506885E+03</pdfrwt>
<totfact> 0.23794650E+02</totfact>
</mgrwt>
</event>
<event>
 8    1  0.1865596E-007  0.1750689E+03  0.7546771E-02  0.1172663E+00
          5   -1    0    0  501    0  0.00000000000E+00  0.00000000000E+00  0.40210675874E+02  0.40484422365E+02  0.47000000000E+01 0.  1.
         -5   -1    0    0    0  501 -0.00000000000E+00 -0.00000000000E+00 -0.77447090520E+03  0.77448516642E+03  0.47000000000E+01 0.  1.
         25    2    1    2    0    0  0.71478604545E+02 -0.99577445860E+02 -0.42408913966E+03  0.45880358880E+03  0.12499710430E+03 0.  0.
         25    2    1    2    0    0 -0.71478604545E+02  0.99577445860E+02 -0.31017108967E+03  0.35616599998E+03  0.12499302400E+03 0.  0.
          5    1    4    4  502    0 -0.95189712454E+02  0.41314554238E+02 -0.24165884965E+03  0.26303814051E+03  0.47000000000E+01 0.  1.
         -5    1    4    4    0  502  0.23711107909E+02  0.58262891621E+02 -0.68512240014E+02  0.93127859473E+02  0.47000000000E+01 0.  1.
          5    1    3    3  503    0  0.54301147323E+02 -0.11110759054E+03 -0.41912618329E+03  0.43701528440E+03  0.47000000000E+01 0.  1.
         -5    1    3    3    0  503  0.17177457222E+02  0.11530144676E+02 -0.49629563706E+01  0.21788304403E+02  0.47000000000E+01 0.  1.
<mgrwt>
<rscale>  0 0.17506821E+03</rscale>
<asrwt>0</asrwt>
<pdfrwt beam="1">  1        5 0.62084129E-02 0.17506894E+03</pdfrwt>
<pdfrwt beam="2">  1       -5 0.11917151E+00 0.17506894E+03</pdfrwt>
<totfact> 0.72493389E+01</totfact>
</mgrwt>
</event>
<event>
 8    1  0.1865596E-007  0.1288945E+03  0.7546771E-02  0.1229107E+00
          5   -1    0    0  501    0  0.00000000000E+00  0.00000000000E+00  0.68586149350E+03  0.68587759715E+03  0.47000000000E+01 0. -1.
         -5   -1    0    0    0  501 -0.00000000000E+00 -0.00000000000E+00 -0.24913593433E+02  0.25353049871E+02  0.47000000000E+01 0. -1.
         25    2    1    2    0    0 -0.12024484856E+02  0.29061970366E+02  0.26219905807E+03  0.29216800131E+03  0.12499843430E+03 0.  0.
         25    2    1    2    0    0  0.12024484856E+02 -0.29061970366E+02  0.39874884200E+03  0.41906264571E+03  0.12499470260E+03 0.  0.
          5    1    4    4  502    0  0.37980985787E+02 -0.66300445822E+02  0.30945644432E+03  0.31878470058E+03  0.47000000000E+01 0.  1.
         -5    1    4    4    0  502 -0.25956500932E+02  0.37238475456E+02  0.89292397679E+02  0.10027794512E+03  0.47000000000E+01 0.  1.
          5    1    3    3  503    0  0.18729927150E+02  0.29001398021E+02  0.25849974716E+03  0.26083730665E+03  0.47000000000E+01 0.  1.
         -5    1    3    3    0  503 -0.30754412005E+02  0.60572345099E-01  0.36993109147E+01  0.31330694663E+02  0.47000000000E+01 0.  1.
<mgrwt>
<rscale>  0 0.12889361E+03</rscale>
<asrwt>0</asrwt>
<pdfrwt beam="1">  1        5 0.10555219E+00 0.12889451E+03</pdfrwt>
<pdfrwt beam="2">  1       -5 0.38679038E-02 0.12889451E+03</pdfrwt>
<totfact> 0.19614458E+02</totfact>
</mgrwt>
</event>
<event>
 8    1  0.1865596E-007  0.1581325E+03  0.7546771E-02  0.1190822E+00
         -5   -1    0    0    0  501 -0.00000000000E+00  0.00000000000E+00  0.55522489211E+03  0.55524478459E+03  0.47000000000E+01 0. -1.
          5   -1    0    0  501    0  0.00000000000E+00 -0.00000000000E+00 -0.45026946001E+02  0.45271579011E+02  0.47000000000E+01 0. -1.
         25    2    1    2    0    0  0.42288128202E+02 -0.87137221472E+02  0.23878533073E+03  0.28639745781E+03  0.12499555397E+03 0.  0.
         25    2    1    2    0    0 -0.42288128202E+02  0.87137221472E+02  0.27141261537E+03  0.31411890580E+03  0.12499879216E+03 0.  0.
          5    1    4    4  502    0 -0.57005055221E+02  0.26518379512E+02  0.23145937897E+03  0.23989234020E+03  0.47000000000E+01 0. -1.
         -5    1    4    4    0  502  0.14716927019E+02  0.60618841959E+02  0.39953236403E+02  0.74226565598E+02  0.47000000000E+01 0. -1.
          5    1    3    3  503    0  0.48015781350E+02 -0.12297368398E+02  0.17650268634E+02  0.52823882014E+02  0.47000000000E+01 0. -1.
         -5    1    3    3    0  503 -0.57276531480E+01 -0.74839853074E+02  0.22113506210E+03  0.23357357579E+03  0.47000000000E+01 0. -1.
<mgrwt>
<rscale>  0 0.15813183E+03</rscale>
<asrwt>0</asrwt>
<pdfrwt beam="2">  1        5 0.69475705E-02 0.15813247E+03</pdfrwt>
<pdfrwt beam="1">  1       -5 0.85439564E-01 0.15813247E+03</pdfrwt>
<totfact> 0.13137472E+02</totfact>
</mgrwt>
</event>
<event>
 8    1  0.1865596E-007  0.1294863E+03  0.7546771E-02  0.1228222E+00
         -5   -1    0    0    0  501 -0.00000000000E+00  0.00000000000E+00  0.91568968453E+02  0.91689508579E+02  0.47000000000E+01 0. -1.
          5   -1    0    0  501    0  0.00000000000E+00 -0.00000000000E+00 -0.18512039411E+03  0.18518004837E+03  0.47000000000E+01 0. -1.
         25    2    1    2    0    0  0.30688813645E+02  0.14074959827E+02 -0.31365797724E+02  0.13322504020E+03  0.12500076117E+03 0.  0.
         25    2    1    2    0    0 -0.30688813645E+02 -0.14074959827E+02 -0.62185627931E+02  0.14364451675E+03  0.12500714817E+03 0.  0.
          5    1    4    4  502    0  0.80750957741E+01 -0.10074733429E+02 -0.92833388093E+02  0.93844740770E+02  0.47000000000E+01 0. -1.
         -5    1    4    4    0  502 -0.38763909419E+02 -0.40002263981E+01  0.30647760162E+02  0.49799775980E+02  0.47000000000E+01 0. -1.
          5    1    3    3  503    0  0.20793342118E+02  0.12787755112E+02  0.47489222879E+02  0.53602295164E+02  0.47000000000E+01 0.  1.
         -5    1    3    3    0  503  0.98954715262E+01  0.12872047142E+01 -0.78855020602E+02  0.79622745035E+02  0.47000000000E+01 0.  1.
<mgrwt>
<rscale>  0 0.12948473E+03</rscale>
<asrwt>0</asrwt>
<pdfrwt beam="2">  1        5 0.28493922E-01 0.12948627E+03</pdfrwt>
<pdfrwt beam="1">  1       -5 0.14101395E-01 0.12948627E+03</pdfrwt>
<totfact> 0.36901857E+02</totfact>
</mgrwt>
</event>
<event>
 8    1  0.1865596E-007  0.1621840E+03  0.7546771E-02  0.1186256E+00
          5   -1    0    0  501    0  0.00000000000E+00  0.00000000000E+00  0.54865166808E+03  0.54867179888E+03  0.47000000000E+01 0. -1.
         -5   -1    0    0    0  501 -0.00000000000E+00 -0.00000000000E+00 -0.61080690145E+02  0.61261249649E+02  0.47000000000E+01 0. -1.
         25    2    1    2    0    0 -0.48474111534E+02  0.91267513689E+02  0.10185388351E+03  0.19150585598E+03  0.12498312183E+03 0.  0.
         25    2    1    2    0    0  0.48474111534E+02 -0.91267513689E+02  0.38571709442E+03  0.41842719255E+03  0.12499655992E+03 0.  0.
          5    1    4    4  502    0 -0.93259831619E+01 -0.92237025663E+02  0.30649536063E+03  0.32024387419E+03  0.47000000000E+01 0.  1.
         -5    1    4    4    0  502  0.57800094696E+02  0.96951197391E+00  0.79221733789E+02  0.98183318363E+02  0.47000000000E+01 0.  1.
          5    1    3    3  503    0 -0.13640251177E+02  0.10491208524E+03  0.29523556098E+02  0.10993785720E+03  0.47000000000E+01 0.  1.
         -5    1    3    3    0  503 -0.34833860357E+02 -0.13644571552E+02  0.72330327413E+02  0.81567998774E+02  0.47000000000E+01 0.  1.
<mgrwt>
<rscale>  0 0.16218138E+03</rscale>
<asrwt>0</asrwt>
<pdfrwt beam="1">  1        5 0.84423384E-01 0.16218397E+03</pdfrwt>
<pdfrwt beam="2">  1       -5 0.94124673E-02 0.16218397E+03</pdfrwt>
<totfact> 0.80742517E+01</totfact>
</mgrwt>
</event>
<event>
 8    1  0.1865596E-007  0.1494454E+03  0.7546771E-02  0.1201157E+00
          5   -1    0    0  501    0  0.00000000000E+00  0.00000000000E+00  0.46567701263E+02  0.46804281865E+02  0.47000000000E+01 0.  1.
         -5   -1    0    0    0  501 -0.00000000000E+00 -0.00000000000E+00 -0.48673226488E+03  0.48675495649E+03  0.47000000000E+01 0.  1.
         25    2    1    2    0    0 -0.67767276217E+02  0.46009961996E+02 -0.18463071867E+03  0.23753407035E+03  0.12499844788E+03 0.  0.
         25    2    1    2    0    0  0.67767276217E+02 -0.46009961996E+02 -0.25553384495E+03  0.29602516801E+03  0.12499613535E+03 0.  0.
          5    1    4    4  502    0  0.98543156638E+02 -0.16328695985E+02 -0.21409844973E+03  0.23629984386E+03  0.47000000000E+01 0.  1.
         -5    1    4    4    0  502 -0.30775880421E+02 -0.29681266011E+02 -0.41435395217E+02  0.59725324147E+02  0.47000000000E+01 0.  1.
          5    1    3    3  503    0 -0.13298312746E+02  0.72843591621E+02 -0.15031584466E+03  0.16763047789E+03  0.47000000000E+01 0.  1.
         -5    1    3    3    0  503 -0.54468963472E+02 -0.26833629625E+02 -0.34314874006E+02  0.69903592458E+02  0.47000000000E+01 0.  1.
<mgrwt>
<rscale>  0 0.14944493E+03</rscale>
<asrwt>0</asrwt>
<pdfrwt beam="1">  1        5 0.71842061E-02 0.14944542E+03</pdfrwt>
<pdfrwt beam="2">  1       -5 0.74901827E-01 0.14944542E+03</pdfrwt>
<totfact> 0.16538039E+02</totfact>
</mgrwt>
</event>
<event>
 8    1  0.1865596E-007  0.1376610E+03  0.7546771E-02  0.1216520E+00
         -5   -1    0    0    0  501 -0.00000000000E+00  0.00000000000E+00  0.10708146809E+03  0.10718456422E+03  0.47000000000E+01 0.  1.
          5   -1    0    0  501    0  0.00000000000E+00 -0.00000000000E+00 -0.18026372070E+03  0.18032498163E+03  0.47000000000E+01 0.  1.
         25    2    1    2    0    0  0.48045664417E+02 -0.31788609879E+02 -0.16457154207E+02  0.13864118606E+03  0.12502655302E+03 0.  0.
         25    2    1    2    0    0 -0.48045664417E+02  0.31788609879E+02 -0.56725098402E+02  0.14886835979E+03  0.12500060069E+03 0.  0.
          5    1    4    4  502    0 -0.32085667475E+02 -0.44080908654E+02 -0.43873888756E+02  0.70140036211E+02  0.47000000000E+01 0. -1.
         -5    1    4    4    0  502 -0.15959996942E+02  0.75869518533E+02 -0.12851209645E+02  0.78728323583E+02  0.47000000000E+01 0. -1.
          5    1    3    3  503    0  0.86833611368E+02 -0.37645628953E+01 -0.23217866080E+02  0.90085555459E+02  0.47000000000E+01 0.  1.
         -5    1    3    3    0  503 -0.38787946951E+02 -0.28024046984E+02  0.67607118726E+01  0.48555630601E+02  0.47000000000E+01 0.  1.
<mgrwt>
<rscale>  0 0.13765507E+03</rscale>
<asrwt>0</asrwt>
<pdfrwt beam="2">  1        5 0.27745523E-01 0.13766096E+03</pdfrwt>
<pdfrwt beam="1">  1       -5 0.16486715E-01 0.13766096E+03</pdfrwt>
<totfact> 0.29916643E+02</totfact>
</mgrwt>
</event>
<event>
 8    1  0.1865596E-007  0.1297855E+03  0.7546771E-02  0.1227792E+00
         -5   -1    0    0    0  501 -0.00000000000E+00  0.00000000000E+00  0.71142963592E+03  0.71144516083E+03  0.47000000000E+01 0.  1.
          5   -1    0    0  501    0  0.00000000000E+00 -0.00000000000E+00 -0.29619370891E+02  0.29989950516E+02  0.47000000000E+01 0.  1.
         25    2    1    2    0    0  0.19787223029E+02 -0.28751688413E+02  0.50924372459E+03  0.52551040916E+03  0.12495529329E+03 0.  0.
         25    2    1    2    0    0 -0.19787223029E+02  0.28751688413E+02  0.17256654045E+03  0.21592470219E+03  0.12500428934E+03 0.  0.
          5    1    3    3  502    0 -0.35515164074E+02  0.61686045709E+01  0.51176099991E+02  0.62773097517E+02  0.47000000000E+01 0. -1.
         -5    1    3    3    0  502  0.55302387104E+02 -0.34920292984E+02  0.45806762459E+03  0.46273731164E+03  0.47000000000E+01 0. -1.
          5    1    4    4  503    0 -0.40868768039E+02  0.40621637991E+02  0.19691136992E+02  0.61075400532E+02  0.47000000000E+01 0.  1.
         -5    1    4    4    0  503  0.21081545010E+02 -0.11869949577E+02  0.15287540346E+03  0.15484930166E+03  0.47000000000E+01 0.  1.
<mgrwt>
<rscale>  0 0.12977366E+03</rscale>
<asrwt>0</asrwt>
<pdfrwt beam="2">  1        5 0.45865267E-02 0.12978546E+03</pdfrwt>
<pdfrwt beam="1">  1       -5 0.10948041E+00 0.12978546E+03</pdfrwt>
<totfact> 0.13576801E+02</totfact>
</mgrwt>
</event>
<event>
 8    1  0.1865596E-007  0.1347196E+03  0.7546771E-02  0.1220642E+00
          5   -1    0    0  501    0  0.00000000000E+00  0.00000000000E+00  0.64797531306E+02  0.64967761723E+02  0.47000000000E+01 0.  1.
         -5   -1    0    0    0  501 -0.00000000000E+00 -0.00000000000E+00 -0.28901563397E+03  0.28905384737E+03  0.47000000000E+01 0.  1.
         25    2    1    2    0    0 -0.25877760575E+02 -0.42858579921E+02 -0.14438228596E+03  0.19742297044E+03  0.12499227333E+03 0.  0.
         25    2    1    2    0    0  0.25877760575E+02  0.42858579921E+02 -0.79835816707E+02  0.15659863865E+03  0.12507141813E+03 0.  0.
          5    1    3    3  502    0 -0.38290400132E+02  0.19504278221E+02 -0.42120257718E+01  0.43432738485E+02  0.47000000000E+01 0.  1.
         -5    1    3    3    0  502  0.12412639558E+02 -0.62362858142E+02 -0.14017026019E+03  0.15399023195E+03  0.47000000000E+01 0.  1.
          5    1    4    4  503    0  0.68785863657E+02 -0.31953898112E+01 -0.26399508977E+02  0.73896749788E+02  0.47000000000E+01 0. -1.
         -5    1    4    4    0  503 -0.42908103082E+02  0.46053969732E+02 -0.53436307730E+02  0.82701888866E+02  0.47000000000E+01 0. -1.
<mgrwt>
<rscale>  0 0.13470125E+03</rscale>
<asrwt>0</asrwt>
<pdfrwt beam="1">  1        5 0.99848853E-02 0.13471962E+03</pdfrwt>
<pdfrwt beam="2">  1       -5 0.44479977E-01 0.13471962E+03</pdfrwt>
<totfact> 0.28173052E+02</totfact>
</mgrwt>
</event>
<event>
 8    1  0.1865596E-007  0.1815457E+03  0.7546771E-02  0.1166316E+00
          5   -1    0    0  501    0  0.00000000000E+00  0.00000000000E+00  0.20842575019E+03  0.20847873595E+03  0.47000000000E+01 0. -1.
         -5   -1    0    0    0  501 -0.00000000000E+00 -0.00000000000E+00 -0.16808846458E+03  0.16815416119E+03  0.47000000000E+01 0. -1.
         25    2    1    2    0    0 -0.79054390060E+02  0.10528597028E+03 -0.25896146003E+02  0.18338338297E+03  0.12499649053E+03 0.  0.
         25    2    1    2    0    0  0.79054390060E+02 -0.10528597028E+03  0.66233431618E+02  0.19324951417E+03  0.12499510045E+03 0.  0.
          5    1    4    4  502    0 -0.28884771506E+02 -0.31967833834E+02  0.42189972612E+02  0.60484346851E+02  0.47000000000E+01 0.  1.
         -5    1    4    4    0  502  0.10793916157E+03 -0.73318136451E+02  0.24043459006E+02  0.13276516732E+03  0.47000000000E+01 0.  1.
          5    1    3    3  503    0 -0.21807206130E+02 -0.90320549222E+01  0.34372943079E+02  0.41960951744E+02  0.47000000000E+01 0. -1.
         -5    1    3    3    0  503 -0.57247183930E+02  0.11431802521E+03 -0.60269089083E+02  0.14142243123E+03  0.47000000000E+01 0. -1.
<mgrwt>
<rscale>  0 0.18154550E+03</rscale>
<asrwt>0</asrwt>
<pdfrwt beam="1">  1        5 0.32074630E-01 0.18154574E+03</pdfrwt>
<pdfrwt beam="2">  1       -5 0.25868893E-01 0.18154574E+03</pdfrwt>
<totfact> 0.10536336E+02</totfact>
</mgrwt>
</event>
<event>
 8    1  0.1865596E-007  0.1300054E+03  0.7546771E-02  0.1227449E+00
          5   -1    0    0  501    0  0.00000000000E+00  0.00000000000E+00  0.38995206996E+03  0.38998039293E+03  0.47000000000E+01 0.  1.
         -5   -1    0    0    0  501 -0.00000000000E+00 -0.00000000000E+00 -0.44264399025E+02  0.44513222991E+02  0.47000000000E+01 0.  1.
         25    2    1    2    0    0 -0.21800041193E+02  0.28292569276E+02  0.20667809073E+03  0.24416640705E+03  0.12500275945E+03 0.  0.
         25    2    1    2    0    0  0.21800041193E+02 -0.28292569276E+02  0.13900958020E+03  0.19032720887E+03  0.12500028710E+03 0.  0.
          5    1    3    3  502    0  0.50775911153E+02  0.17916700595E+02  0.64679742460E+02  0.84289740766E+02  0.47000000000E+01 0. -1.
         -5    1    3    3    0  502 -0.72575952346E+02  0.10375868681E+02  0.14199834827E+03  0.15987666628E+03  0.47000000000E+01 0. -1.
          5    1    4    4  503    0 -0.10964161601E+02  0.11295305720E+02 -0.18405055035E+02  0.24670484831E+02  0.47000000000E+01 0.  1.
         -5    1    4    4    0  503  0.32764202794E+02 -0.39587874996E+02  0.15741463524E+03  0.16565672404E+03  0.47000000000E+01 0.  1.
<mgrwt>
<rscale>  0 0.13000479E+03</rscale>
<asrwt>0</asrwt>
<pdfrwt beam="1">  1        5 0.60013945E-01 0.13000539E+03</pdfrwt>
<pdfrwt beam="2">  1       -5 0.68312265E-02 0.13000539E+03</pdfrwt>
<totfact> 0.28212095E+02</totfact>
</mgrwt>
</event>
<event>
 8    1  0.1865596E-007  0.1468616E+03  0.7546771E-02  0.1204384E+00
         -5   -1    0    0    0  501 -0.00000000000E+00  0.00000000000E+00  0.27787078000E+03  0.27791052585E+03  0.47000000000E+01 0. -1.
          5   -1    0    0  501    0  0.00000000000E+00 -0.00000000000E+00 -0.78266636749E+02  0.78407629909E+02  0.47000000000E+01 0. -1.
         25    2    1    2    0    0 -0.37040080910E+02 -0.67598418402E+02  0.11739660568E+03  0.18801676258E+03  0.12500730467E+03 0.  0.
         25    2    1    2    0    0  0.37040080910E+02  0.67598418402E+02  0.82207537570E+02  0.16830139318E+03  0.12500306376E+03 0.  0.
          5    1    4    4  502    0 -0.17930037167E+02  0.32924241886E+02  0.94694108997E+02  0.10195369643E+03  0.47000000000E+01 0. -1.
         -5    1    4    4    0  502  0.54970118077E+02  0.34674176516E+02 -0.12486571426E+02  0.66347696753E+02  0.47000000000E+01 0. -1.
          5    1    3    3  503    0 -0.42512249515E+02  0.26949710526E+02  0.28468348762E+02  0.58018231079E+02  0.47000000000E+01 0.  1.
         -5    1    3    3    0  503  0.54721686058E+01 -0.94548128928E+02  0.88928256917E+02  0.12999853150E+03  0.47000000000E+01 0.  1.
<mgrwt>
<rscale>  0 0.14686073E+03</rscale>
<asrwt>0</asrwt>
<pdfrwt beam="2">  1        5 0.12054924E-01 0.14686164E+03</pdfrwt>
<pdfrwt beam="1">  1       -5 0.42763254E-01 0.14686164E+03</pdfrwt>
<totfact> 0.22592498E+02</totfact>
</mgrwt>
</event>
<event>
 8    1  0.1865596E-007  0.1331273E+03  0.7546771E-02  0.1222888E+00
         -5   -1    0    0    0  501 -0.00000000000E+00  0.00000000000E+00  0.18423657383E+03  0.18429651418E+03  0.47000000000E+01 0.  1.
          5   -1    0    0  501    0  0.00000000000E+00 -0.00000000000E+00 -0.11965738892E+03  0.11974965855E+03  0.47000000000E+01 0.  1.
         25    2    1    2    0    0  0.26649787168E+02 -0.37247317966E+02  0.99751508807E+02  0.16635275625E+03  0.12500120859E+03 0.  0.
         25    2    1    2    0    0 -0.26649787168E+02  0.37247317966E+02 -0.35172323894E+02  0.13769341648E+03  0.12499924289E+03 0.  0.
          5    1    3    3  502    0  0.69005383343E+02 -0.12747686604E+02  0.93205102590E+02  0.11676269778E+03  0.47000000000E+01 0. -1.
         -5    1    3    3    0  502 -0.42355596175E+02 -0.24499631362E+02  0.65464062167E+01  0.49590058465E+02  0.47000000000E+01 0. -1.
          5    1    4    4  503    0  0.23503575797E+02  0.69345550696E+02 -0.20681741516E+02  0.76230229625E+02  0.47000000000E+01 0. -1.
         -5    1    4    4    0  503 -0.50153362966E+02 -0.32098232730E+02 -0.14490582377E+02  0.61463186858E+02  0.47000000000E+01 0. -1.
<mgrwt>
<rscale>  0 0.13312683E+03</rscale>
<asrwt>0</asrwt>
<pdfrwt beam="2">  1        5 0.18420538E-01 0.13312729E+03</pdfrwt>
<pdfrwt beam="1">  1       -5 0.28355797E-01 0.13312729E+03</pdfrwt>
<totfact> 0.23124463E+02</totfact>
</mgrwt>
</event>
<event>
 8    1  0.1865596E-007  0.1579999E+03  0.7546771E-02  0.1190974E+00
         -5   -1    0    0    0  501 -0.00000000000E+00  0.00000000000E+00  0.27238257989E+02  0.27640779625E+02  0.47000000000E+01 0.  1.
          5   -1    0    0  501    0  0.00000000000E+00 -0.00000000000E+00 -0.98590909742E+03  0.98592030021E+03  0.47000000000E+01 0.  1.
         25    2    1    2    0    0  0.68828681909E+02  0.67832533120E+02 -0.33815712346E+03  0.37324816987E+03  0.12500126464E+03 0.  0.
         25    2    1    2    0    0 -0.68828681909E+02 -0.67832533120E+02 -0.62051371597E+03  0.64031290996E+03  0.12499884384E+03 0.  0.
          5    1    3    3  502    0  0.73369750873E+02  0.36745765729E+02 -0.33050717437E+03  0.34057371295E+03  0.47000000000E+01 0. -1.
         -5    1    3    3    0  502 -0.45410689642E+01  0.31086767391E+02 -0.76499490927E+01  0.32674456924E+02  0.47000000000E+01 0. -1.
          5    1    4    4  503    0 -0.83897565757E+02 -0.85243864592E+02 -0.58878298380E+03  0.60082677205E+03  0.47000000000E+01 0.  1.
         -5    1    4    4    0  503  0.15068883848E+02  0.17411331472E+02 -0.31730732161E+02  0.39486137916E+02  0.47000000000E+01 0.  1.
<mgrwt>
<rscale>  0 0.15799938E+03</rscale>
<asrwt>0</asrwt>
<pdfrwt beam="2">  1        5 0.15171012E+00 0.15799986E+03</pdfrwt>
<pdfrwt beam="1">  1       -5 0.42223269E-02 0.15799986E+03</pdfrwt>
<totfact> 0.70725136E+01</totfact>
</mgrwt>
</event>
<event>
 8    1  0.1865596E-007  0.1906327E+03  0.7546771E-02  0.1157892E+00
         -5   -1    0    0    0  501 -0.00000000000E+00  0.00000000000E+00  0.76851693274E+03  0.76853130444E+03  0.47000000000E+01 0.  1.
          5   -1    0    0  501    0  0.00000000000E+00 -0.00000000000E+00 -0.47858978467E+02  0.48089206896E+02  0.47000000000E+01 0.  1.
         25    2    1    2    0    0 -0.13532494884E+03 -0.49010412390E+02  0.40973240788E+03  0.45190870194E+03  0.12500386600E+03 0.  0.
         25    2    1    2    0    0  0.13532494884E+03  0.49010412390E+02  0.31092554639E+03  0.36471180940E+03  0.12500058487E+03 0.  0.
          5    1    4    4  502    0  0.47886575503E+02 -0.35728718061E+02  0.15923463985E+03  0.17013943086E+03  0.47000000000E+01 0.  1.
         -5    1    4    4    0  502  0.87438373340E+02  0.84739130451E+02  0.15169090654E+03  0.19457237854E+03  0.47000000000E+01 0.  1.
          5    1    3    3  503    0 -0.36662406552E+02 -0.22617356705E+02  0.17776297909E+02  0.46837630660E+02  0.47000000000E+01 0. -1.
         -5    1    3    3    0  503 -0.98662542290E+02 -0.26393055685E+02  0.39195610998E+03  0.40507107128E+03  0.47000000000E+01 0. -1.
<mgrwt>
<rscale>  0 0.19063217E+03</rscale>
<asrwt>0</asrwt>
<pdfrwt beam="2">  1        5 0.73817351E-02 0.19063271E+03</pdfrwt>
<pdfrwt beam="1">  1       -5 0.11825219E+00 0.19063271E+03</pdfrwt>
<totfact> 0.56371328E+01</totfact>
</mgrwt>
</event>
<event>
 8    1  0.1865596E-007  0.1445266E+03  0.7546771E-02  0.1207367E+00
         -5   -1    0    0    0  501 -0.00000000000E+00  0.00000000000E+00  0.40959152827E+03  0.40961849328E+03  0.47000000000E+01 0. -1.
          5   -1    0    0  501    0  0.00000000000E+00 -0.00000000000E+00 -0.52257266334E+02  0.52468198794E+02  0.47000000000E+01 0. -1.
         25    2    1    2    0    0 -0.52095710872E+02 -0.50491548056E+02  0.21639941332E+03  0.26022422409E+03  0.12499832479E+03 0.  0.
         25    2    1    2    0    0  0.52095710872E+02  0.50491548056E+02  0.14093484862E+03  0.20186246798E+03  0.12498985922E+03 0.  0.
          5    1    4    4  502    0  0.77190608494E+02  0.26651855384E+02  0.14521730698E+03  0.16666993635E+03  0.47000000000E+01 0. -1.
         -5    1    4    4    0  502 -0.25094897622E+02  0.23839692672E+02 -0.42824583593E+01  0.35192531636E+02  0.47000000000E+01 0. -1.
          5    1    3    3  503    0  0.14135093506E+02  0.17980484200E+02  0.12822280850E+03  0.13033141333E+03  0.47000000000E+01 0.  1.
         -5    1    3    3    0  503 -0.66230804377E+02 -0.68472032256E+02  0.88176604820E+02  0.12989281076E+03  0.47000000000E+01 0.  1.
<mgrwt>
<rscale>  0 0.14452478E+03</rscale>
<asrwt>0</asrwt>
<pdfrwt beam="2">  1        5 0.80578788E-02 0.14452661E+03</pdfrwt>
<pdfrwt beam="1">  1       -5 0.63032385E-01 0.14452661E+03</pdfrwt>
<totfact> 0.19811673E+02</totfact>
</mgrwt>
</event>
<event>
 8    1  0.1865596E-007  0.1554715E+03  0.7546771E-02  0.1193908E+00
         -5   -1    0    0    0  501 -0.00000000000E+00  0.00000000000E+00  0.76654212609E+02  0.76798166063E+02  0.47000000000E+01 0. -1.
          5   -1    0    0  501    0  0.00000000000E+00 -0.00000000000E+00 -0.31552632808E+03  0.31556133114E+03  0.47000000000E+01 0. -1.
         25    2    1    2    0    0  0.88713294533E+02 -0.25959016819E+02 -0.11043093046E+03  0.19069973217E+03  0.12500991267E+03 0.  0.
         25    2    1    2    0    0 -0.88713294533E+02  0.25959016819E+02 -0.12844118501E+03  0.20165976504E+03  0.12500241456E+03 0.  0.
          5    1    4    4  502    0  0.30447820212E+02  0.28081779699E+01 -0.43705661119E+02  0.53546525872E+02  0.47000000000E+01 0. -1.
         -5    1    4    4    0  502 -0.11916111475E+03  0.23150838850E+02 -0.84735523893E+02  0.14811323917E+03  0.47000000000E+01 0. -1.
          5    1    3    3  503    0 -0.17372460015E+02  0.29788752585E+02 -0.17377283379E+02  0.38900284385E+02  0.47000000000E+01 0.  1.
         -5    1    3    3    0  503  0.10608575455E+03 -0.55747769405E+02 -0.93053647080E+02  0.15179944778E+03  0.47000000000E+01 0.  1.
<mgrwt>
<rscale>  0 0.15547003E+03</rscale>
<asrwt>0</asrwt>
<pdfrwt beam="2">  1        5 0.48556277E-01 0.15547153E+03</pdfrwt>
<pdfrwt beam="1">  1       -5 0.11806722E-01 0.15547153E+03</pdfrwt>
<totfact> 0.18312355E+02</totfact>
</mgrwt>
</event>
<event>
 8    1  0.1865596E-007  0.1838527E+03  0.7546771E-02  0.1164130E+00
          5   -1    0    0  501    0  0.00000000000E+00  0.00000000000E+00  0.27729230474E+03  0.27733213349E+03  0.47000000000E+01 0. -1.
         -5   -1    0    0    0  501 -0.00000000000E+00 -0.00000000000E+00 -0.35334970485E+03  0.35338096146E+03  0.47000000000E+01 0.  1.
         25    2    1    2    0    0  0.12313846472E+03 -0.54843080828E+02 -0.29327768854E+03  0.34613188990E+03  0.12499855038E+03 0.  0.
         25    2    1    2    0    0 -0.12313846472E+03  0.54843080828E+02  0.21722028842E+03  0.28458120505E+03  0.12502385196E+03 0.  0.
          5    1    3    3  502    0  0.42007538933E+02 -0.86409270909E+02 -0.14159852872E+03  0.17118244292E+03  0.47000000000E+01 0.  1.
         -5    1    3    3    0  502  0.81130925782E+02  0.31566190081E+02 -0.15167915982E+03  0.17494944698E+03  0.47000000000E+01 0.  1.
          5    1    4    4  503    0  0.56957048483E+01 -0.22015618922E+02  0.35914520905E+01  0.23497171284E+02  0.47000000000E+01 0. -1.
         -5    1    4    4    0  503 -0.12883416956E+03  0.76858699750E+02  0.21362883633E+03  0.26108403377E+03  0.47000000000E+01 0. -1.
<mgrwt>
<rscale>  0 0.18384838E+03</rscale>
<asrwt>0</asrwt>
<pdfrwt beam="1">  1        5 0.42665823E-01 0.18385268E+03</pdfrwt>
<pdfrwt beam="2">  1       -5 0.54366961E-01 0.18385268E+03</pdfrwt>
<totfact> 0.13012389E+01</totfact>
</mgrwt>
</event>
<event>
 8    1  0.1865596E-007  0.1761062E+03  0.7546771E-02  0.1171626E+00
          5   -1    0    0  501    0  0.00000000000E+00  0.00000000000E+00  0.11003532716E+04  0.11003633092E+04  0.47000000000E+01 0. -1.
         -5   -1    0    0    0  501 -0.00000000000E+00 -0.00000000000E+00 -0.41324989976E+02  0.41591402916E+02  0.47000000000E+01 0. -1.
         25    2    1    2    0    0  0.37131547753E+02  0.11836371691E+03  0.20635311785E+03  0.27128401836E+03  0.12499875219E+03 0.  0.
         25    2    1    2    0    0 -0.37131547753E+02 -0.11836371691E+03  0.85267516374E+03  0.87067069376E+03  0.12499520313E+03 0.  0.
          5    1    4    4  502    0  0.16020276382E+02 -0.55878838032E+02  0.64036022748E+03  0.64301042350E+03  0.47000000000E+01 0.  1.
         -5    1    4    4    0  502 -0.53151824135E+02 -0.62484878877E+02  0.21231493626E+03  0.22766027026E+03  0.47000000000E+01 0.  1.
          5    1    3    3  503    0  0.67571957576E+02  0.56117832676E+02  0.17335305484E+03  0.19439277820E+03  0.47000000000E+01 0.  1.
         -5    1    3    3    0  503 -0.30440409822E+02  0.62245884233E+02  0.33000063015E+02  0.76891240158E+02  0.47000000000E+01 0.  1.
<mgrwt>
<rscale>  0 0.17610561E+03</rscale>
<asrwt>0</asrwt>
<pdfrwt beam="1">  1        5 0.16930639E+00 0.17610624E+03</pdfrwt>
<pdfrwt beam="2">  1       -5 0.63789560E-02 0.17610624E+03</pdfrwt>
<totfact> 0.26816320E+01</totfact>
</mgrwt>
</event>
<event>
 8    1  0.1865596E-007  0.1434151E+03  0.7546771E-02  0.1208809E+00
         -5   -1    0    0    0  501 -0.00000000000E+00  0.00000000000E+00  0.40957299934E+03  0.40959996556E+03  0.47000000000E+01 0.  1.
          5   -1    0    0  501    0  0.00000000000E+00 -0.00000000000E+00 -0.52133873037E+02  0.52345302730E+02  0.47000000000E+01 0.  1.
         25    2    1    2    0    0 -0.38168820266E+02 -0.59023657580E+02  0.22449412247E+03  0.26638895114E+03  0.12499924510E+03 0.  0.
         25    2    1    2    0    0  0.38168820266E+02  0.59023657580E+02  0.13294500384E+03  0.19555631715E+03  0.12500899222E+03 0.  0.
          5    1    4    4  502    0  0.69271139809E+02 -0.38571385313E+01  0.44448881459E+02  0.82529760639E+02  0.47000000000E+01 0.  1.
         -5    1    4    4    0  502 -0.31102319543E+02  0.62880796111E+02  0.88496122381E+02  0.11302655651E+03  0.47000000000E+01 0.  1.
          5    1    3    3  503    0 -0.20092114895E+02 -0.33934232941E+02  0.23104361634E+03  0.23443222453E+03  0.47000000000E+01 0. -1.
         -5    1    3    3    0  503 -0.18076705372E+02 -0.25089424638E+02 -0.65494938769E+01  0.31956726613E+02  0.47000000000E+01 0. -1.
<mgrwt>
<rscale>  0 0.14341300E+03</rscale>
<asrwt>0</asrwt>
<pdfrwt beam="2">  1        5 0.80389339E-02 0.14341513E+03</pdfrwt>
<pdfrwt beam="1">  1       -5 0.63029569E-01 0.14341513E+03</pdfrwt>
<totfact> 0.19843205E+02</totfact>
</mgrwt>
</event>
<event>
 8    1  0.1865596E-007  0.1769675E+03  0.7546771E-02  0.1170773E+00
         -5   -1    0    0    0  501 -0.00000000000E+00  0.00000000000E+00  0.24105041646E+02  0.24558970515E+02  0.47000000000E+01 0. -1.
          5   -1    0    0  501    0  0.00000000000E+00 -0.00000000000E+00 -0.13207004699E+04  0.13207088329E+04  0.47000000000E+01 0. -1.
         25    2    1    2    0    0  0.12204263831E+03  0.28191572433E+02 -0.54019173579E+03  0.56844050950E+03  0.12501332372E+03 0.  0.
         25    2    1    2    0    0 -0.12204263831E+03 -0.28191572433E+02 -0.75640369250E+03  0.77682729391E+03  0.12499971283E+03 0.  0.
          5    1    4    4  502    0 -0.30275517691E+02 -0.49115428289E+02 -0.50559253472E+03  0.50889569996E+03  0.47000000000E+01 0. -1.
         -5    1    4    4    0  502 -0.91767120619E+02  0.20923855856E+02 -0.25081115778E+03  0.26793159395E+03  0.47000000000E+01 0. -1.
          5    1    3    3  503    0  0.13236723066E+03 -0.90203617410E+01 -0.35047642462E+03  0.37477762058E+03  0.47000000000E+01 0.  1.
         -5    1    3    3    0  503 -0.10324592346E+02  0.37211934174E+02 -0.18971531117E+03  0.19366288892E+03  0.47000000000E+01 0.  1.
<mgrwt>
<rscale>  0 0.17696511E+03</rscale>
<asrwt>0</asrwt>
<pdfrwt beam="2">  1        5 0.20322019E+00 0.17696752E+03</pdfrwt>
<pdfrwt beam="1">  1       -5 0.37440299E-02 0.17696752E+03</pdfrwt>
<totfact> 0.37603182E+01</totfact>
</mgrwt>
</event>
<event>
 8    1  0.1865596E-007  0.1406792E+03  0.7546771E-02  0.1212419E+00
         -5   -1    0    0    0  501 -0.00000000000E+00  0.00000000000E+00  0.79208679992E+03  0.79210074398E+03  0.47000000000E+01 0.  1.
          5   -1    0    0  501    0  0.00000000000E+00 -0.00000000000E+00 -0.51974023708E+02  0.52186101027E+02  0.47000000000E+01 0.  1.
         25    2    1    2    0    0  0.21705568498E+02 -0.60783424201E+02  0.67458133823E+03  0.68909335802E+03  0.12499567120E+03 0.  0.
         25    2    1    2    0    0 -0.21705568498E+02  0.60783424201E+02  0.65531437987E+02  0.15519348699E+03  0.12499957071E+03 0.  0.
          5    1    3    3  502    0  0.44421270435E+01  0.32096641029E+02  0.71507857736E+02  0.78647254090E+02  0.47000000000E+01 0. -1.
         -5    1    3    3    0  502  0.17263441455E+02 -0.92880065230E+02  0.60307348049E+03  0.61044610393E+03  0.47000000000E+01 0. -1.
          5    1    4    4  503    0  0.50628144759E+02  0.38131646665E+02  0.39897037392E+02  0.75040623077E+02  0.47000000000E+01 0.  1.
         -5    1    4    4    0  503 -0.72333713258E+02  0.22651777536E+02  0.25634400595E+02  0.80152863911E+02  0.47000000000E+01 0.  1.
<mgrwt>
<rscale>  0 0.14067838E+03</rscale>
<asrwt>0</asrwt>
<pdfrwt beam="2">  1        5 0.80133894E-02 0.14067924E+03</pdfrwt>
<pdfrwt beam="1">  1       -5 0.12187690E+00 0.14067924E+03</pdfrwt>
<totfact> 0.41599890E+01</totfact>
</mgrwt>
</event>
<event>
 8    1  0.1865596E-007  0.1549100E+03  0.7546771E-02  0.1194567E+00
          5   -1    0    0  501    0  0.00000000000E+00  0.00000000000E+00  0.16404626223E+03  0.16411357699E+03  0.47000000000E+01 0. -1.
         -5   -1    0    0    0  501 -0.00000000000E+00 -0.00000000000E+00 -0.15136133193E+03  0.15143428543E+03  0.47000000000E+01 0. -1.
         25    2    1    2    0    0 -0.31459800179E+02 -0.85914989277E+02 -0.22932955844E+02  0.15659829735E+03  0.12500400738E+03 0.  0.
         25    2    1    2    0    0  0.31459800179E+02  0.85914989277E+02  0.35617886147E+02  0.15894956506E+03  0.12500090404E+03 0.  0.
          5    1    3    3  502    0 -0.55204914491E+02 -0.16513618316E+02  0.30842123730E+02  0.65525634449E+02  0.47000000000E+01 0. -1.
         -5    1    3    3    0  502  0.23745114312E+02 -0.69401370961E+02 -0.53775079574E+02  0.91072662902E+02  0.47000000000E+01 0. -1.
          5    1    4    4  503    0 -0.36174372722E+02 -0.91497915084E+01  0.30660374865E+01  0.37733201724E+02  0.47000000000E+01 0. -1.
         -5    1    4    4    0  503  0.67634172901E+02  0.95064780785E+02  0.32551848661E+02  0.12121636334E+03  0.47000000000E+01 0. -1.
<mgrwt>
<rscale>  0 0.15490937E+03</rscale>
<asrwt>0</asrwt>
<pdfrwt beam="1">  1        5 0.25248676E-01 0.15490999E+03</pdfrwt>
<pdfrwt beam="2">  1       -5 0.23297149E-01 0.15490999E+03</pdfrwt>
<totfact> 0.19598198E+02</totfact>
</mgrwt>
</event>
<event>
 8    1  0.1865596E-007  0.1768284E+03  0.7546771E-02  0.1170908E+00
         -5   -1    0    0    0  501 -0.00000000000E+00  0.00000000000E+00  0.19293753246E+03  0.19299477048E+03  0.47000000000E+01 0. -1.
          5   -1    0    0  501    0  0.00000000000E+00 -0.00000000000E+00 -0.20058045925E+03  0.20063551688E+03  0.47000000000E+01 0. -1.
         25    2    1    2    0    0 -0.77964765303E+02  0.97803049622E+02  0.82527573506E+02  0.19513844248E+03  0.12499708076E+03 0.  0.
         25    2    1    2    0    0  0.77964765303E+02 -0.97803049622E+02 -0.90170500295E+02  0.19849184488E+03  0.12499740883E+03 0.  0.
          5    1    4    4  502    0  0.30477636490E+02 -0.12344863555E+02 -0.94853250250E+02  0.10050129882E+03  0.47000000000E+01 0. -1.
         -5    1    4    4    0  502  0.47487128813E+02 -0.85458186067E+02  0.46827499555E+01  0.97990546053E+02  0.47000000000E+01 0. -1.
          5    1    3    3  503    0 -0.10943733072E+03  0.87967142970E+02  0.80158200373E+02  0.16174725557E+03  0.47000000000E+01 0.  1.
         -5    1    3    3    0  503  0.31472565420E+02  0.98359066519E+01  0.23693731326E+01  0.33391186904E+02  0.47000000000E+01 0.  1.
<mgrwt>
<rscale>  0 0.17682837E+03</rscale>
<asrwt>0</asrwt>
<pdfrwt beam="2">  1        5 0.30867171E-01 0.17682843E+03</pdfrwt>
<pdfrwt beam="1">  1       -5 0.29691335E-01 0.17682843E+03</pdfrwt>
<totfact> 0.86231921E+01</totfact>
</mgrwt>
</event>
<event>
 8    1  0.1865596E-007  0.1543736E+03  0.7546771E-02  0.1195205E+00
         -5   -1    0    0    0  501 -0.00000000000E+00  0.00000000000E+00  0.19824731330E+03  0.19830301872E+03  0.47000000000E+01 0. -1.
          5   -1    0    0  501    0  0.00000000000E+00 -0.00000000000E+00 -0.12010433723E+03  0.12019626376E+03  0.47000000000E+01 0. -1.
         25    2    1    2    0    0 -0.69243691892E+02  0.58402141741E+02  0.41535396539E+02  0.15984454345E+03  0.12497835764E+03 0.  0.
         25    2    1    2    0    0  0.69243691892E+02 -0.58402141741E+02  0.36607579532E+02  0.15865473902E+03  0.12500284920E+03 0.  0.
          5    1    4    4  502    0 -0.25495217549E+02  0.17298910730E+02  0.17667713447E+02  0.35825919789E+02  0.47000000000E+01 0.  1.
         -5    1    4    4    0  502  0.94738909441E+02 -0.75701052471E+02  0.18939866085E+02  0.12282881923E+03  0.47000000000E+01 0.  1.
          5    1    3    3  503    0  0.36276583714E+02  0.20997107350E+02  0.85224597511E+01  0.43030121580E+02  0.47000000000E+01 0. -1.
         -5    1    3    3    0  503 -0.10552027561E+03  0.37405034392E+02  0.33012936788E+02  0.11681442187E+03  0.47000000000E+01 0. -1.
<mgrwt>
<rscale>  0 0.15436865E+03</rscale>
<asrwt>0</asrwt>
<pdfrwt beam="2">  1        5 0.18488947E-01 0.15437361E+03</pdfrwt>
<pdfrwt beam="1">  1       -5 0.30510943E-01 0.15437361E+03</pdfrwt>
<totfact> 0.20906023E+02</totfact>
</mgrwt>
</event>
<event>
 8    1  0.1865596E-007  0.1298553E+03  0.7546771E-02  0.1227672E+00
         -5   -1    0    0    0  501 -0.00000000000E+00  0.00000000000E+00  0.68884212358E+02  0.69044367708E+02  0.47000000000E+01 0.  1.
          5   -1    0    0  501    0  0.00000000000E+00 -0.00000000000E+00 -0.26065140530E+03  0.26069377646E+03  0.47000000000E+01 0.  1.
         25    2    1    2    0    0 -0.33782513690E+02  0.98152711787E+01 -0.54629588330E+02  0.14087864215E+03  0.12499920845E+03 0.  0.
         25    2    1    2    0    0  0.33782513690E+02 -0.98152711787E+01 -0.13713760461E+03  0.18885950202E+03  0.12499436437E+03 0.  0.
          5    1    4    4  502    0  0.59324208807E+02 -0.30239577174E+02 -0.14059752016E+03  0.15563915463E+03  0.47000000000E+01 0. -1.
         -5    1    4    4    0  502 -0.25541695117E+02  0.20424305995E+02  0.34599155506E+01  0.33220347386E+02  0.47000000000E+01 0. -1.
          5    1    3    3  503    0  0.27423423346E+02  0.24253687533E+01 -0.71523375562E+02  0.76782874480E+02  0.47000000000E+01 0. -1.
         -5    1    3    3    0  503 -0.61205937036E+02  0.73899024255E+01  0.16893787233E+02  0.64095767671E+02  0.47000000000E+01 0. -1.
<mgrwt>
<rscale>  0 0.12985414E+03</rscale>
<asrwt>0</asrwt>
<pdfrwt beam="2">  1        5 0.40115795E-01 0.12985530E+03</pdfrwt>
<pdfrwt beam="1">  1       -5 0.10613150E-01 0.12985530E+03</pdfrwt>
<totfact> 0.30923384E+02</totfact>
</mgrwt>
</event>
<event>
 8    1  0.1865596E-007  0.1286219E+03  0.7546771E-02  0.1229519E+00
         -5   -1    0    0    0  501 -0.00000000000E+00  0.00000000000E+00  0.39806115473E+03  0.39808890075E+03  0.47000000000E+01 0.  1.
          5   -1    0    0  501    0  0.00000000000E+00 -0.00000000000E+00 -0.41541673399E+02  0.41806705548E+02  0.47000000000E+01 0.  1.
         25    2    1    2    0    0  0.52863823555E+01 -0.29809135514E+02  0.19129989541E+03  0.23051949428E+03  0.12500822718E+03 0.  0.
         25    2    1    2    0    0 -0.52863823555E+01  0.29809135514E+02  0.16521958592E+03  0.20937611201E+03  0.12499725722E+03 0.  0.
          5    1    3    3  502    0  0.22968193972E+02 -0.75241891794E+02  0.13043644159E+03  0.15239631069E+03  0.47000000000E+01 0. -1.
         -5    1    3    3    0  502 -0.17681811616E+02  0.45432756280E+02  0.60863453814E+02  0.78123183598E+02  0.47000000000E+01 0. -1.
          5    1    4    4  503    0  0.37873638041E+02  0.62180169366E+02  0.78785232337E+02  0.10737778520E+03  0.47000000000E+01 0.  1.
         -5    1    4    4    0  503 -0.43160020397E+02 -0.32371033852E+02  0.86434353580E+02  0.10199832681E+03  0.47000000000E+01 0.  1.
<mgrwt>
<rscale>  0 0.12861921E+03</rscale>
<asrwt>0</asrwt>
<pdfrwt beam="2">  1        5 0.64135478E-02 0.12862188E+03</pdfrwt>
<pdfrwt beam="1">  1       -5 0.61262701E-01 0.12862188E+03</pdfrwt>
<totfact> 0.29886145E+02</totfact>
</mgrwt>
</event>
<event>
 8    1  0.1865596E-007  0.1452979E+03  0.7546771E-02  0.1206376E+00
         -5   -1    0    0    0  501 -0.00000000000E+00  0.00000000000E+00  0.30786377894E+02  0.31143074091E+02  0.47000000000E+01 0.  1.
          5   -1    0    0  501    0  0.00000000000E+00 -0.00000000000E+00 -0.68259690355E+03  0.68261308421E+03  0.47000000000E+01 0.  1.
         25    2    1    2    0    0  0.24658295099E+02  0.69827756909E+02 -0.31080501695E+03  0.34308619302E+03  0.12499772048E+03 0.  0.
         25    2    1    2    0    0 -0.24658295099E+02 -0.69827756909E+02 -0.34100550870E+03  0.37066996528E+03  0.12501007578E+03 0.  0.
          5    1    3    3  502    0  0.46880953780E+02  0.92561758602E+02 -0.27969953607E+03  0.29836122983E+03  0.47000000000E+01 0.  1.
         -5    1    3    3    0  502 -0.22222658682E+02 -0.22734001693E+02 -0.31105480878E+02  0.44724963192E+02  0.47000000000E+01 0.  1.
          5    1    4    4  503    0 -0.22407497988E+02 -0.68308390176E+02 -0.72839705546E+02  0.10244923054E+03  0.47000000000E+01 0. -1.
         -5    1    4    4    0  503 -0.22507971103E+01 -0.15193667333E+01 -0.26816580316E+03  0.26822073474E+03  0.47000000000E+01 0. -1.
<mgrwt>
<rscale>  0 0.14529520E+03</rscale>
<asrwt>0</asrwt>
<pdfrwt beam="2">  1        5 0.10504358E+00 0.14529785E+03</pdfrwt>
<pdfrwt beam="1">  1       -5 0.47650492E-02 0.14529785E+03</pdfrwt>
<totfact> 0.14648339E+02</totfact>
</mgrwt>
</event>
<event>
 8    1  0.1865596E-007  0.1368367E+03  0.7546771E-02  0.1217652E+00
          5   -1    0    0  501    0  0.00000000000E+00  0.00000000000E+00  0.51260155281E+02  0.51475173817E+02  0.47000000000E+01 0.  1.
         -5   -1    0    0    0  501 -0.00000000000E+00 -0.00000000000E+00 -0.38819921861E+03  0.38822766946E+03  0.47000000000E+01 0.  1.
         25    2    1    2    0    0 -0.11041406186E+02 -0.54566157546E+02 -0.22304104878E+03  0.26167076496E+03  0.12499960638E+03 0.  0.
         25    2    1    2    0    0  0.11041406186E+02  0.54566157546E+02 -0.11389801456E+03  0.17803207831E+03  0.12499313977E+03 0.  0.
          5    1    4    4  502    0 -0.45465008301E+02  0.47243611893E+02 -0.99195582775E+02  0.11899949364E+03  0.47000000000E+01 0.  1.
         -5    1    4    4    0  502  0.56506414487E+02  0.73225456531E+01 -0.14702431782E+02  0.59032584674E+02  0.47000000000E+01 0.  1.
          5    1    3    3  503    0 -0.28080299662E+01 -0.80100517733E+02 -0.70902216663E+02  0.10711298848E+03  0.47000000000E+01 0. -1.
         -5    1    3    3    0  503 -0.82333762200E+01  0.25534360187E+02 -0.15213883211E+03  0.15455777648E+03  0.47000000000E+01 0. -1.
<mgrwt>
<rscale>  0 0.13683521E+03</rscale>
<asrwt>0</asrwt>
<pdfrwt beam="1">  1        5 0.79049064E-02 0.13683669E+03</pdfrwt>
<pdfrwt beam="2">  1       -5 0.59741683E-01 0.13683669E+03</pdfrwt>
<totfact> 0.22619441E+02</totfact>
</mgrwt>
</event>
<event>
 8    1  0.1865596E-007  0.1308139E+03  0.7546771E-02  0.1226256E+00
          5   -1    0    0  501    0  0.00000000000E+00  0.00000000000E+00  0.48267387682E+02  0.48495677267E+02  0.47000000000E+01 0. -1.
         -5   -1    0    0    0  501 -0.00000000000E+00 -0.00000000000E+00 -0.35622533996E+03  0.35625634426E+03  0.47000000000E+01 0. -1.
         25    2    1    2    0    0  0.35972438380E+02 -0.13902300106E+02 -0.17190362829E+03  0.21601132249E+03  0.12499097469E+03 0.  0.
         25    2    1    2    0    0 -0.35972438380E+02  0.13902300106E+02 -0.13605432399E+03  0.18874069904E+03  0.12499992851E+03 0.  0.
          5    1    3    3  502    0 -0.67268090268E+01  0.39636976412E+02 -0.12351521893E+02  0.42320089223E+02  0.47000000000E+01 0. -1.
         -5    1    3    3    0  502  0.42699247407E+02 -0.53539276518E+02 -0.15955210639E+03  0.17369123327E+03  0.47000000000E+01 0. -1.
          5    1    4    4  503    0 -0.13354116406E+02  0.68193770463E+02 -0.56433961989E+02  0.89641535131E+02  0.47000000000E+01 0.  1.
         -5    1    4    4    0  503 -0.22618321975E+02 -0.54291470357E+02 -0.79620362001E+02  0.99099163910E+02  0.47000000000E+01 0.  1.
<mgrwt>
<rscale>  0 0.13081175E+03</rscale>
<asrwt>0</asrwt>
<pdfrwt beam="1">  1        5 0.74456979E-02 0.13081388E+03</pdfrwt>
<pdfrwt beam="2">  1       -5 0.54823842E-01 0.13081388E+03</pdfrwt>
<totfact> 0.29719180E+02</totfact>
</mgrwt>
</event>
<event>
 8    1  0.1865596E-007  0.1265938E+03  0.7546771E-02  0.1232602E+00
         -5   -1    0    0    0  501 -0.00000000000E+00  0.00000000000E+00  0.15368638655E+03  0.15375823688E+03  0.47000000000E+01 0.  1.
          5   -1    0    0  501    0  0.00000000000E+00 -0.00000000000E+00 -0.10955786964E+03  0.10965863760E+03  0.47000000000E+01 0.  1.
         25    2    1    2    0    0  0.18648464101E+01 -0.19917838955E+02  0.51380085055E+02  0.13662318117E+03  0.12500313009E+03 0.  0.
         25    2    1    2    0    0 -0.18648464101E+01  0.19917838955E+02 -0.72515681468E+01  0.12679369331E+03  0.12499542976E+03 0.  0.
          5    1    3    3  502    0 -0.20258529536E+02 -0.60175732767E+02  0.62402448551E+02  0.89149775200E+02  0.47000000000E+01 0.  1.
         -5    1    3    3    0  502  0.22123375946E+02  0.40257893812E+02 -0.11022363496E+02  0.47473405971E+02  0.47000000000E+01 0.  1.
          5    1    4    4  503    0 -0.51955803727E+02  0.23559640685E+01  0.31426745235E+02  0.60948227404E+02  0.47000000000E+01 0. -1.
         -5    1    4    4    0  503  0.50090957317E+02  0.17561874886E+02 -0.38678313382E+02  0.65845465907E+02  0.47000000000E+01 0. -1.
<mgrwt>
<rscale>  0 0.12659186E+03</rscale>
<asrwt>0</asrwt>
<pdfrwt beam="2">  1        5 0.16868335E-01 0.12659376E+03</pdfrwt>
<pdfrwt beam="1">  1       -5 0.23657338E-01 0.12659376E+03</pdfrwt>
<totfact> 0.37817560E+02</totfact>
</mgrwt>
</event>
<event>
 8    1  0.1865596E-007  0.1553259E+03  0.7546771E-02  0.1194091E+00
          5   -1    0    0  501    0  0.00000000000E+00  0.00000000000E+00  0.12735937196E+02  0.13575496170E+02  0.47000000000E+01 0. -1.
         -5   -1    0    0    0  501 -0.00000000000E+00 -0.00000000000E+00 -0.19621938992E+04  0.19621995281E+04  0.47000000000E+01 0. -1.
         25    2    1    2    0    0 -0.32819060923E+02  0.86084507069E+02 -0.12285270331E+04  0.12383012636E+04  0.12499486009E+03 0.  0.
         25    2    1    2    0    0  0.32819060923E+02 -0.86084507069E+02 -0.72093092890E+03  0.73747376075E+03  0.12505403003E+03 0.  0.
          5    1    4    4  502    0  0.42442111850E+02 -0.11589550417E+03 -0.56087991248E+03  0.57431826278E+03  0.47000000000E+01 0.  1.
         -5    1    4    4    0  502 -0.96230509271E+01  0.29810997104E+02 -0.16005101643E+03  0.16315549797E+03  0.47000000000E+01 0.  1.
          5    1    3    3  503    0  0.19809279359E+02  0.68849752588E+02 -0.31471713513E+03  0.32280282081E+03  0.47000000000E+01 0. -1.
         -5    1    3    3    0  503 -0.52628340282E+02  0.17234754481E+02 -0.91380989801E+03  0.91549844274E+03  0.47000000000E+01 0. -1.
<mgrwt>
<rscale>  0 0.15531402E+03</rscale>
<asrwt>0</asrwt>
<pdfrwt beam="1">  1        5 0.20243910E-02 0.15532593E+03</pdfrwt>
<pdfrwt beam="2">  1       -5 0.30194077E+00 0.15532593E+03</pdfrwt>
<totfact> 0.22809546E+01</totfact>
</mgrwt>
</event>
<event>
 8    1  0.1865596E-007  0.2264321E+03  0.7546771E-02  0.1129177E+00
          5   -1    0    0  501    0  0.00000000000E+00  0.00000000000E+00  0.17094931056E+03  0.17101390815E+03  0.47000000000E+01 0.  1.
         -5   -1    0    0    0  501 -0.00000000000E+00 -0.00000000000E+00 -0.31516052274E+03  0.31519556643E+03  0.47000000000E+01 0.  1.
         25    2    1    2    0    0  0.94808585430E+02  0.16327308410E+03 -0.12580210342E+03  0.25903022914E+03  0.12499488998E+03 0.  0.
         25    2    1    2    0    0 -0.94808585430E+02 -0.16327308410E+03 -0.18409108764E+02  0.22717924544E+03  0.12499898562E+03 0.  0.
          5    1    4    4  502    0 -0.24295053510E+02  0.14262319236E+02 -0.22015078599E+02  0.36061295883E+02  0.47000000000E+01 0. -1.
         -5    1    4    4    0  502 -0.70513531920E+02 -0.17753540334E+03  0.36059698347E+01  0.19111794955E+03  0.47000000000E+01 0. -1.
          5    1    3    3  503    0  0.12412806522E+03  0.12132132379E+03 -0.84548625215E+02  0.19312483063E+03  0.47000000000E+01 0. -1.
         -5    1    3    3    0  503 -0.29319479789E+02  0.41951760318E+02 -0.41253478205E+02  0.65905398511E+02  0.47000000000E+01 0. -1.
<mgrwt>
<rscale>  0 0.22643158E+03</rscale>
<asrwt>0</asrwt>
<pdfrwt beam="1">  1        5 0.26307559E-01 0.22643214E+03</pdfrwt>
<pdfrwt beam="2">  1       -5 0.48493899E-01 0.22643214E+03</pdfrwt>
<totfact> 0.46244929E+01</totfact>
</mgrwt>
</event>
<event>
 8    1  0.1865596E-007  0.1253384E+03  0.7546771E-02  0.1234545E+00
         -5   -1    0    0    0  501 -0.00000000000E+00  0.00000000000E+00  0.36674170514E+02  0.36974109629E+02  0.47000000000E+01 0. -1.
          5   -1    0    0  501    0  0.00000000000E+00 -0.00000000000E+00 -0.42712736993E+03  0.42715322794E+03  0.47000000000E+01 0. -1.
         25    2    1    2    0    0 -0.90044319891E+01 -0.14750098830E+01 -0.18484703748E+03  0.22333413836E+03  0.12500581844E+03 0.  0.
         25    2    1    2    0    0  0.90044319891E+01  0.14750098830E+01 -0.20560616193E+03  0.24079319920E+03  0.12499686200E+03 0.  0.
          5    1    4    4  502    0  0.23112288964E+02  0.22499898942E+01 -0.21929241384E+03  0.22056856785E+03  0.47000000000E+01 0.  1.
         -5    1    4    4    0  502 -0.14107856975E+02 -0.77498001123E+00  0.13686251904E+02  0.20224631359E+02  0.47000000000E+01 0.  1.
          5    1    3    3  503    0 -0.27855092954E+02  0.45159421057E+02 -0.31509474989E+02  0.61888743142E+02  0.47000000000E+01 0. -1.
         -5    1    3    3    0  503  0.18850660965E+02 -0.46634430940E+02 -0.15333756249E+03  0.16144539522E+03  0.47000000000E+01 0. -1.
<mgrwt>
<rscale>  0 0.12533615E+03</rscale>
<asrwt>0</asrwt>
<pdfrwt beam="2">  1        5 0.65736961E-01 0.12533838E+03</pdfrwt>
<pdfrwt beam="1">  1       -5 0.56672417E-02 0.12533838E+03</pdfrwt>
<totfact> 0.31187685E+02</totfact>
</mgrwt>
</event>
<event>
 8    1  0.1865596E-007  0.1280698E+03  0.7546771E-02  0.1230363E+00
         -5   -1    0    0    0  501 -0.00000000000E+00  0.00000000000E+00  0.86033432225E+03  0.86034716019E+03  0.47000000000E+01 0.  1.
          5   -1    0    0  501    0  0.00000000000E+00 -0.00000000000E+00 -0.20726344018E+02  0.21252560701E+02  0.47000000000E+01 0.  1.
         25    2    1    2    0    0  0.21190995902E+02  0.18075748932E+02  0.55396553846E+03  0.56857690130E+03  0.12500433548E+03 0.  0.
         25    2    1    2    0    0 -0.21190995902E+02 -0.18075748932E+02  0.28564243978E+03  0.31302281959E+03  0.12496355939E+03 0.  0.
          5    1    4    4  502    0 -0.67502648973E+02 -0.27606204761E+02  0.22118186083E+03  0.23294251591E+03  0.47000000000E+01 0.  1.
         -5    1    4    4    0  502  0.46311653071E+02  0.95304558287E+01  0.64460578944E+02  0.80080303672E+02  0.47000000000E+01 0.  1.
          5    1    3    3  503    0  0.48609390765E+02  0.33649696246E+02  0.12422903078E+03  0.13765942400E+03  0.47000000000E+01 0. -1.
         -5    1    3    3    0  503 -0.27418394863E+02 -0.15573947314E+02  0.42973650768E+03  0.43091747730E+03  0.47000000000E+01 0. -1.
<mgrwt>
<rscale>  0 0.12805985E+03</rscale>
<asrwt>0</asrwt>
<pdfrwt beam="2">  1        5 0.32301337E-02 0.12806980E+03</pdfrwt>
<pdfrwt beam="1">  1       -5 0.13240061E+00 0.12806980E+03</pdfrwt>
<totfact> 0.14781409E+02</totfact>
</mgrwt>
</event>
<event>
 8    1  0.1865596E-007  0.1711099E+03  0.7546771E-02  0.1176696E+00
          5   -1    0    0  501    0  0.00000000000E+00  0.00000000000E+00  0.92293427918E+02  0.92413023091E+02  0.47000000000E+01 0.  1.
         -5   -1    0    0    0  501 -0.00000000000E+00 -0.00000000000E+00 -0.34754901147E+03  0.34758078971E+03  0.47000000000E+01 0.  1.
         25    2    1    2    0    0 -0.18733770174E+01 -0.11683525828E+03 -0.19295933007E+03  0.25789899774E+03  0.12499841141E+03 0.  0.
         25    2    1    2    0    0  0.18733770174E+01  0.11683525828E+03 -0.62296253481E+02  0.18209481506E+03  0.12499484531E+03 0.  0.
          5    1    4    4  502    0  0.34172486320E+02  0.11973898433E+03 -0.76676823184E+02  0.14630997369E+03  0.47000000000E+01 0.  1.
         -5    1    4    4    0  502 -0.32299109302E+02 -0.29037260448E+01  0.14380569703E+02  0.35784841367E+02  0.47000000000E+01 0.  1.
          5    1    3    3  503    0  0.16196678648E+02 -0.76495020247E+02 -0.19822078342E+03  0.21313702048E+03  0.47000000000E+01 0. -1.
         -5    1    3    3    0  503 -0.18070055665E+02 -0.40340238034E+02  0.52614533485E+01  0.44761977254E+02  0.47000000000E+01 0. -1.
<mgrwt>
<rscale>  0 0.17110923E+03</rscale>
<asrwt>0</asrwt>
<pdfrwt beam="1">  1        5 0.14210633E-01 0.17110988E+03</pdfrwt>
<pdfrwt beam="2">  1       -5 0.53480722E-01 0.17110988E+03</pdfrwt>
<totfact> 0.11012741E+02</totfact>
</mgrwt>
</event>
<event>
 8    1  0.1865596E-007  0.1424904E+03  0.7546771E-02  0.1210017E+00
         -5   -1    0    0    0  501 -0.00000000000E+00  0.00000000000E+00  0.37830490905E+03  0.37833410395E+03  0.47000000000E+01 0. -1.
          5   -1    0    0  501    0  0.00000000000E+00 -0.00000000000E+00 -0.53712076332E+02  0.53917317662E+02  0.47000000000E+01 0. -1.
         25    2    1    2    0    0 -0.13608485794E+02 -0.67029856735E+02  0.17467548221E+03  0.22542126843E+03  0.12500012639E+03 0.  0.
         25    2    1    2    0    0  0.13608485794E+02  0.67029856735E+02  0.14991735051E+03  0.20683015318E+03  0.12500123080E+03 0.  0.
          5    1    4    4  502    0 -0.45332874488E+02 -0.86519872137E+01  0.51646214894E+02  0.69421523355E+02  0.47000000000E+01 0.  1.
         -5    1    4    4    0  502  0.58941360281E+02  0.75681843949E+02  0.98271135612E+02  0.13740862982E+03  0.47000000000E+01 0.  1.
          5    1    3    3  503    0  0.53757082157E+00 -0.61709410855E+02  0.19213408792E+03  0.20185623129E+03  0.47000000000E+01 0.  1.
         -5    1    3    3    0  503 -0.14146056615E+02 -0.53204458798E+01 -0.17458605709E+02  0.23565037141E+02  0.47000000000E+01 0.  1.
<mgrwt>
<rscale>  0 0.14249011E+03</rscale>
<asrwt>0</asrwt>
<pdfrwt beam="2">  1        5 0.82814296E-02 0.14249035E+03</pdfrwt>
<pdfrwt beam="1">  1       -5 0.58218791E-01 0.14249035E+03</pdfrwt>
<totfact> 0.22395103E+02</totfact>
</mgrwt>
</event>
<event>
 8    1  0.1865596E-007  0.1558208E+03  0.7546771E-02  0.1193498E+00
          5   -1    0    0  501    0  0.00000000000E+00  0.00000000000E+00  0.16871674317E+04  0.16871739782E+04  0.47000000000E+01 0. -1.
         -5   -1    0    0    0  501 -0.00000000000E+00 -0.00000000000E+00 -0.15828489124E+02  0.16511543476E+02  0.47000000000E+01 0. -1.
         25    2    1    2    0    0 -0.57949854335E+02 -0.72785038314E+02  0.55263669989E+03  0.57418349312E+03  0.12499405702E+03 0.  0.
         25    2    1    2    0    0  0.57949854335E+02  0.72785038314E+02  0.11187022427E+04  0.11295020286E+04  0.12499710882E+03 0.  0.
          5    1    3    3  502    0  0.51504318043E+01 -0.42460259322E+01 -0.44795704405E+01  0.93119404702E+01  0.47000000000E+01 0. -1.
         -5    1    3    3    0  502 -0.63100286140E+02 -0.68539012382E+02  0.55711627033E+03  0.56487155265E+03  0.47000000000E+01 0. -1.
          5    1    4    4  503    0 -0.22810067893E+02  0.71089166412E+02  0.51726151407E+03  0.52264283475E+03  0.47000000000E+01 0.  1.
         -5    1    4    4    0  503  0.80759922229E+02  0.16958719017E+01  0.60144072865E+03  0.60685919380E+03  0.47000000000E+01 0.  1.
<mgrwt>
<rscale>  0 0.15582020E+03</rscale>
<asrwt>0</asrwt>
<pdfrwt beam="1">  1        5 0.25961739E+00 0.15582081E+03</pdfrwt>
<pdfrwt beam="2">  1       -5 0.24881972E-02 0.15582081E+03</pdfrwt>
<totfact> 0.30420579E+01</totfact>
</mgrwt>
</event>
<event>
 8    1  0.1865596E-007  0.1285929E+03  0.7546771E-02  0.1229560E+00
          5   -1    0    0  501    0  0.00000000000E+00  0.00000000000E+00  0.17966140094E+03  0.17972286718E+03  0.47000000000E+01 0.  1.
         -5   -1    0    0    0  501 -0.00000000000E+00 -0.00000000000E+00 -0.10272631101E+03  0.10283377350E+03  0.47000000000E+01 0.  1.
         25    2    1    2    0    0  0.24395502183E+02  0.17740010031E+02 -0.73564004753E+01  0.12879976164E+03  0.12500165394E+03 0.  0.
         25    2    1    2    0    0 -0.24395502183E+02 -0.17740010031E+02  0.84291490411E+02  0.15375687905E+03  0.12500509597E+03 0.  0.
          5    1    3    3  502    0  0.39136224835E+02 -0.38362949786E+01 -0.58808911771E+02  0.70900912245E+02  0.47000000000E+01 0.  1.
         -5    1    3    3    0  502 -0.14740722652E+02  0.21576305009E+02  0.51452511295E+02  0.57898849390E+02  0.47000000000E+01 0.  1.
          5    1    4    4  503    0 -0.54146013442E+02  0.87929536117E+01  0.97100583575E+02  0.11162311649E+03  0.47000000000E+01 0.  1.
         -5    1    4    4    0  503  0.29750511259E+02 -0.26532963642E+02 -0.12809093163E+02  0.42133762560E+02  0.47000000000E+01 0.  1.
<mgrwt>
<rscale>  0 0.12859202E+03</rscale>
<asrwt>0</asrwt>
<pdfrwt beam="1">  1        5 0.27653210E-01 0.12859286E+03</pdfrwt>
<pdfrwt beam="2">  1       -5 0.15817043E-01 0.12859286E+03</pdfrwt>
<totfact> 0.31702144E+02</totfact>
</mgrwt>
</event>
<event>
 8    1  0.1865596E-007  0.1584054E+03  0.7546771E-02  0.1190512E+00
          5   -1    0    0  501    0  0.00000000000E+00  0.00000000000E+00  0.20605984995E+03  0.20611344392E+03  0.47000000000E+01 0. -1.
         -5   -1    0    0    0  501 -0.00000000000E+00 -0.00000000000E+00 -0.13971584776E+03  0.13979487871E+03  0.47000000000E+01 0. -1.
         25    2    1    2    0    0  0.30732451918E+02  0.92292004303E+02 -0.28992923877E+02  0.16103683840E+03  0.12501990253E+03 0.  0.
         25    2    1    2    0    0 -0.30732451918E+02 -0.92292004303E+02  0.95336926075E+02  0.18487148423E+03  0.12500415412E+03 0.  0.
          5    1    4    4  502    0  0.14855318298E+02 -0.63014239561E+02 -0.10618332554E+02  0.65774720490E+02  0.47000000000E+01 0.  1.
         -5    1    4    4    0  502 -0.45587770217E+02 -0.29277764742E+02  0.10595525863E+03  0.11909676374E+03  0.47000000000E+01 0.  1.
          5    1    3    3  503    0  0.10117666379E+02  0.72422926570E+02 -0.76142526574E+02  0.10567507662E+03  0.47000000000E+01 0. -1.
         -5    1    3    3    0  503  0.20614785539E+02  0.19869077734E+02  0.47149602697E+02  0.55361761779E+02  0.47000000000E+01 0. -1.
<mgrwt>
<rscale>  0 0.15840230E+03</rscale>
<asrwt>0</asrwt>
<pdfrwt beam="1">  1        5 0.31711717E-01 0.15840541E+03</pdfrwt>
<pdfrwt beam="2">  1       -5 0.21504948E-01 0.15840541E+03</pdfrwt>
<totfact> 0.14724546E+02</totfact>
</mgrwt>
</event>
<event>
 8    1  0.1865596E-007  0.1284067E+03  0.7546771E-02  0.1229860E+00
          5   -1    0    0  501    0  0.00000000000E+00  0.00000000000E+00  0.45391568897E+02  0.45634247303E+02  0.47000000000E+01 0. -1.
         -5   -1    0    0    0  501 -0.00000000000E+00 -0.00000000000E+00 -0.38678768228E+03  0.38681623694E+03  0.47000000000E+01 0. -1.
         25    2    1    2    0    0 -0.27798541340E+02 -0.95687624459E+01 -0.22559968680E+03  0.25958333253E+03  0.12499587084E+03 0.  0.
         25    2    1    2    0    0  0.27798541340E+02  0.95687624459E+01 -0.11579642658E+03  0.17286715172E+03  0.12493966391E+03 0.  0.
          5    1    3    3  502    0 -0.35417327404E+01  0.56655585193E+02 -0.86770267443E+02  0.10379580202E+03  0.47000000000E+01 0.  1.
         -5    1    3    3    0  502 -0.24256808600E+02 -0.66224347639E+02 -0.13882941935E+03  0.15578753051E+03  0.47000000000E+01 0.  1.
          5    1    4    4  503    0  0.42928329078E+02 -0.41481525552E+02 -0.10098026568E+03  0.11739958457E+03  0.47000000000E+01 0. -1.
         -5    1    4    4    0  503 -0.15129787738E+02  0.51050287998E+02 -0.14816160899E+02  0.55467567149E+02  0.47000000000E+01 0. -1.
<mgrwt>
<rscale>  0 0.12839305E+03</rscale>
<asrwt>0</asrwt>
<pdfrwt beam="1">  1        5 0.70041826E-02 0.12840673E+03</pdfrwt>
<pdfrwt beam="2">  1       -5 0.59526659E-01 0.12840673E+03</pdfrwt>
<totfact> 0.27404485E+02</totfact>
</mgrwt>
</event>
<event>
 8    1  0.1865596E-007  0.1702128E+03  0.7546771E-02  0.1177632E+00
         -5   -1    0    0    0  501 -0.00000000000E+00  0.00000000000E+00  0.10532422659E+03  0.10542904109E+03  0.47000000000E+01 0.  1.
          5   -1    0    0  501    0  0.00000000000E+00 -0.00000000000E+00 -0.27627828888E+03  0.27631826380E+03  0.47000000000E+01 0.  1.
         25    2    1    2    0    0  0.74632646153E+02  0.88159688989E+02 -0.71428446935E+02  0.18459254939E+03  0.12502089275E+03 0.  0.
         25    2    1    2    0    0 -0.74632646153E+02 -0.88159688989E+02 -0.99525615362E+02  0.19715475551E+03  0.12498994708E+03 0.  0.
          5    1    4    4  502    0  0.16463397125E+02 -0.68415446798E+02 -0.16937752793E+02  0.72530643697E+02  0.47000000000E+01 0. -1.
         -5    1    4    4    0  502 -0.91096043278E+02 -0.19744242191E+02 -0.82587862569E+02  0.12462411181E+03  0.47000000000E+01 0. -1.
          5    1    3    3  503    0  0.17280630252E+02  0.14062451132E+02  0.35604423437E+02  0.42262722133E+02  0.47000000000E+01 0.  1.
         -5    1    3    3    0  503  0.57352015901E+02  0.74097237856E+02 -0.10703287037E+03  0.14232982725E+03  0.47000000000E+01 0.  1.
<mgrwt>
<rscale>  0 0.17020709E+03</rscale>
<asrwt>0</asrwt>
<pdfrwt beam="2">  1        5 0.42515490E-01 0.17021277E+03</pdfrwt>
<pdfrwt beam="1">  1       -5 0.16214865E-01 0.17021277E+03</pdfrwt>
<totfact> 0.14041785E+02</totfact>
</mgrwt>
</event>
<event>
 8    1  0.1865596E-007  0.1555751E+03  0.7546771E-02  0.1193785E+00
         -5   -1    0    0    0  501 -0.00000000000E+00  0.00000000000E+00  0.64828530328E+02  0.64998679560E+02  0.47000000000E+01 0. -1.
          5   -1    0    0  501    0  0.00000000000E+00 -0.00000000000E+00 -0.42225910584E+03  0.42228526196E+03  0.47000000000E+01 0. -1.
         25    2    1    2    0    0 -0.74543569271E+02  0.54975654601E+02 -0.95243998479E+02  0.18241445018E+03  0.12499818426E+03 0.  0.
         25    2    1    2    0    0  0.74543569271E+02 -0.54975654601E+02 -0.26218657703E+03  0.30486949134E+03  0.12499815701E+03 0.  0.
          5    1    4    4  502    0  0.41944778244E+02 -0.68161648431E+02 -0.25675265261E+03  0.26897841802E+03  0.47000000000E+01 0. -1.
         -5    1    4    4    0  502  0.32598791026E+02  0.13185993830E+02 -0.54339244278E+01  0.35891073324E+02  0.47000000000E+01 0. -1.
          5    1    3    3  503    0  0.10325239904E+02 -0.26902241242E+02 -0.46107196645E+02  0.54573846716E+02  0.47000000000E+01 0.  1.
         -5    1    3    3    0  503 -0.84868809175E+02  0.81877895842E+02 -0.49136801834E+02  0.12784060346E+03  0.47000000000E+01 0.  1.
<mgrwt>
<rscale>  0 0.15557510E+03</rscale>
<asrwt>0</asrwt>
<pdfrwt beam="2">  1        5 0.64978038E-01 0.15557510E+03</pdfrwt>
<pdfrwt beam="1">  1       -5 0.99887207E-02 0.15557510E+03</pdfrwt>
<totfact> 0.13072598E+02</totfact>
</mgrwt>
</event>
<event>
 8    1  0.1865596E-007  0.1363879E+03  0.7546771E-02  0.1218276E+00
          5   -1    0    0  501    0  0.00000000000E+00  0.00000000000E+00  0.36952061831E+03  0.36955050718E+03  0.47000000000E+01 0. -1.
         -5   -1    0    0    0  501 -0.00000000000E+00 -0.00000000000E+00 -0.64862581413E+02  0.65032641555E+02  0.47000000000E+01 0. -1.
         25    2    1    2    0    0 -0.43467345945E+02  0.32971427834E+02  0.49177554516E+02  0.14497661606E+03  0.12499304828E+03 0.  0.
         25    2    1    2    0    0  0.43467345945E+02 -0.32971427834E+02  0.25548048238E+03  0.28960653267E+03  0.12500056669E+03 0.  0.
          5    1    4    4  502    0  0.34870709192E+02  0.55253545752E+01  0.49655862262E+01  0.35961687242E+02  0.47000000000E+01 0. -1.
         -5    1    4    4    0  502  0.85966367538E+01 -0.38496782410E+02  0.25051489615E+03  0.25364484543E+03  0.47000000000E+01 0. -1.
          5    1    3    3  503    0 -0.69756277236E+02  0.24797397817E+02  0.76036527106E+02  0.10622849244E+03  0.47000000000E+01 0.  1.
         -5    1    3    3    0  503  0.26288931291E+02  0.81740300178E+01 -0.26858972590E+02  0.38748123616E+02  0.47000000000E+01 0.  1.
<mgrwt>
<rscale>  0 0.13638621E+03</rscale>
<asrwt>0</asrwt>
<pdfrwt beam="1">  1        5 0.56864706E-01 0.13638793E+03</pdfrwt>
<pdfrwt beam="2">  1       -5 0.99942395E-02 0.13638793E+03</pdfrwt>
<totfact> 0.16772929E+02</totfact>
</mgrwt>
</event>
<event>
 8    1  0.1865596E-007  0.1251767E+03  0.7546771E-02  0.1234797E+00
          5   -1    0    0  501    0  0.00000000000E+00  0.00000000000E+00  0.52292659796E+03  0.52294771905E+03  0.47000000000E+01 0. -1.
         -5   -1    0    0    0  501 -0.00000000000E+00 -0.00000000000E+00 -0.30295745891E+02  0.30658150940E+02  0.47000000000E+01 0. -1.
         25    2    1    2    0    0  0.20873231726E+01 -0.62784671562E+01  0.20961566282E+03  0.24414735100E+03  0.12500170731E+03 0.  0.
         25    2    1    2    0    0 -0.20873231726E+01  0.62784671562E+01  0.28301518925E+03  0.30945851899E+03  0.12499280605E+03 0.  0.
          5    1    3    3  502    0 -0.16686221095E+02 -0.62536236868E+02  0.12297054173E+03  0.13904335666E+03  0.47000000000E+01 0.  1.
         -5    1    3    3    0  502  0.18773544268E+02  0.56257769712E+02  0.86645121089E+02  0.10510399434E+03  0.47000000000E+01 0.  1.
          5    1    4    4  503    0 -0.20377230058E+02  0.55621313439E+02  0.79839048428E+02  0.99525502598E+02  0.47000000000E+01 0. -1.
         -5    1    4    4    0  503  0.18289906885E+02 -0.49342846283E+02  0.20317614082E+03  0.20993301639E+03  0.47000000000E+01 0. -1.
<mgrwt>
<rscale>  0 0.12517446E+03</rscale>
<asrwt>0</asrwt>
<pdfrwt beam="1">  1        5 0.80479750E-01 0.12517669E+03</pdfrwt>
<pdfrwt beam="2">  1       -5 0.46903859E-02 0.12517669E+03</pdfrwt>
<totfact> 0.26989961E+02</totfact>
</mgrwt>
</event>
<event>
 8    1  0.1865596E-007  0.1349185E+03  0.7546771E-02  0.1220337E+00
         -5   -1    0    0    0  501 -0.00000000000E+00  0.00000000000E+00  0.16206768062E+02  0.16874517209E+02  0.47000000000E+01 0. -1.
          5   -1    0    0  501    0  0.00000000000E+00 -0.00000000000E+00 -0.11001712176E+04  0.11001812569E+04  0.47000000000E+01 0. -1.
         25    2    1    2    0    0 -0.38395398673E+02 -0.33209493328E+02 -0.55264222681E+03  0.56887294808E+03  0.12500369239E+03 0.  0.
         25    2    1    2    0    0  0.38395398673E+02  0.33209493328E+02 -0.53132222268E+03  0.54818282599E+03  0.12499611717E+03 0.  0.
          5    1    4    4  502    0  0.59929814935E+02  0.29869456198E+02 -0.51775023238E+03  0.52208348016E+03  0.47000000000E+01 0.  1.
         -5    1    4    4    0  502 -0.21534416262E+02  0.33400371302E+01 -0.13571990305E+02  0.26099345827E+02  0.47000000000E+01 0.  1.
          5    1    3    3  503    0 -0.25658601691E+02  0.41922314660E+02 -0.32596454198E+03  0.32968290362E+03  0.47000000000E+01 0.  1.
         -5    1    3    3    0  503 -0.12736796982E+02 -0.75131807988E+02 -0.22667768483E+03  0.23919004446E+03  0.47000000000E+01 0.  1.
<mgrwt>
<rscale>  0 0.13491674E+03</rscale>
<asrwt>0</asrwt>
<pdfrwt beam="2">  1        5 0.16930919E+00 0.13491849E+03</pdfrwt>
<pdfrwt beam="1">  1       -5 0.25454874E-02 0.13491849E+03</pdfrwt>
<totfact> 0.11279039E+02</totfact>
</mgrwt>
</event>
<event>
 8    1  0.1865596E-007  0.1312081E+03  0.7546771E-02  0.1225679E+00
          5   -1    0    0  501    0  0.00000000000E+00  0.00000000000E+00  0.86813761228E+03  0.86815033483E+03  0.47000000000E+01 0. -1.
         -5   -1    0    0    0  501 -0.00000000000E+00 -0.00000000000E+00 -0.19633625578E+02  0.20188344492E+02  0.47000000000E+01 0. -1.
         25    2    1    2    0    0 -0.37581138634E+02  0.13287395020E+02  0.45494765017E+03  0.47348671245E+03  0.12499362232E+03 0.  0.
         25    2    1    2    0    0  0.37581138634E+02 -0.13287395020E+02  0.39355633653E+03  0.41485196687E+03  0.12500667000E+03 0.  0.
          5    1    3    3  502    0  0.38979063561E+02  0.23155711360E+02  0.25619033756E+03  0.26021363036E+03  0.47000000000E+01 0. -1.
         -5    1    3    3    0  502 -0.76560202194E+02 -0.98683163398E+01  0.19875731261E+03  0.21327308209E+03  0.47000000000E+01 0. -1.
          5    1    4    4  503    0  0.16945934267E+02 -0.36747803494E+02  0.31701028613E+02  0.51619869866E+02  0.47000000000E+01 0. -1.
         -5    1    4    4    0  503  0.20635204366E+02  0.23460408475E+02  0.36185530792E+03  0.36323209700E+03  0.47000000000E+01 0. -1.
<mgrwt>
<rscale>  0 0.13120499E+03</rscale>
<asrwt>0</asrwt>
<pdfrwt beam="1">  1        5 0.13360327E+00 0.13120810E+03</pdfrwt>
<pdfrwt beam="2">  1       -5 0.30642074E-02 0.13120810E+03</pdfrwt>
<totfact> 0.15851492E+02</totfact>
</mgrwt>
</event>
<event>
 8    1  0.1865596E-007  0.1252956E+03  0.7546771E-02  0.1234610E+00
          5   -1    0    0  501    0  0.00000000000E+00  0.00000000000E+00  0.10956562892E+03  0.10966638975E+03  0.47000000000E+01 0.  1.
         -5   -1    0    0    0  501 -0.00000000000E+00 -0.00000000000E+00 -0.14436327997E+03  0.14443976808E+03  0.47000000000E+01 0.  1.
         25    2    1    2    0    0 -0.73364441768E+01 -0.45030082593E+01 -0.53883745098E+01  0.12541138814E+03  0.12499952480E+03 0.  0.
         25    2    1    2    0    0  0.73364441768E+01  0.45030082593E+01 -0.29409276532E+02  0.12869476969E+03  0.12499335063E+03 0.  0.
          5    1    3    3  502    0  0.86971626839E+01 -0.60876046095E+02  0.14475705923E+02  0.63349583179E+02  0.47000000000E+01 0.  1.
         -5    1    3    3    0  502 -0.16033606861E+02  0.56373037836E+02 -0.19864080433E+02  0.62061804963E+02  0.47000000000E+01 0.  1.
          5    1    4    4  503    0  0.65376162889E+02  0.74668734033E+01 -0.74360202159E+01  0.66386604591E+02  0.47000000000E+01 0. -1.
         -5    1    4    4    0  503 -0.58039718712E+02 -0.29638651440E+01 -0.21973256316E+02  0.62308165098E+02  0.47000000000E+01 0. -1.
<mgrwt>
<rscale>  0 0.12529404E+03</rscale>
<asrwt>0</asrwt>
<pdfrwt beam="1">  1        5 0.16869885E-01 0.12529558E+03</pdfrwt>
<pdfrwt beam="2">  1       -5 0.22223370E-01 0.12529558E+03</pdfrwt>
<totfact> 0.42399421E+02</totfact>
</mgrwt>
</event>
<event>
 8    1  0.1865596E-007  0.1278846E+03  0.7546771E-02  0.1230633E+00
         -5   -1    0    0    0  501 -0.00000000000E+00  0.00000000000E+00  0.25209212245E+02  0.25643603140E+02  0.47000000000E+01 0. -1.
          5   -1    0    0  501    0  0.00000000000E+00 -0.00000000000E+00 -0.70060802122E+03  0.70062378592E+03  0.47000000000E+01 0. -1.
         25    2    1    2    0    0  0.46350554683E+01 -0.26459564054E+02 -0.23333285898E+03  0.26607528010E+03  0.12502095557E+03 0.  0.
         25    2    1    2    0    0 -0.46350554683E+01  0.26459564054E+02 -0.44206594999E+03  0.46019210896E+03  0.12503151897E+03 0.  0.
          5    1    4    4  502    0  0.45217768853E+01 -0.50073393198E+02 -0.16342950461E+03  0.17105286945E+03  0.47000000000E+01 0. -1.
         -5    1    4    4    0  502 -0.91568323536E+01  0.76532957252E+02 -0.27863644538E+03  0.28913923950E+03  0.47000000000E+01 0. -1.
          5    1    3    3  503    0  0.28056038002E+02 -0.70924160681E+02 -0.12403204885E+03  0.14568258983E+03  0.47000000000E+01 0.  1.
         -5    1    3    3    0  503 -0.23420982533E+02  0.44464596627E+02 -0.10930081013E+03  0.12039269028E+03  0.47000000000E+01 0.  1.
<mgrwt>
<rscale>  0 0.12788203E+03</rscale>
<asrwt>0</asrwt>
<pdfrwt beam="2">  1        5 0.10782046E+00 0.12788461E+03</pdfrwt>
<pdfrwt beam="1">  1       -5 0.39129682E-02 0.12788461E+03</pdfrwt>
<totfact> 0.18211971E+02</totfact>
</mgrwt>
</event>
<event>
 8    1  0.1865596E-007  0.1435038E+03  0.7546771E-02  0.1208692E+00
         -5   -1    0    0    0  501 -0.00000000000E+00  0.00000000000E+00  0.11923651397E+03  0.11932910904E+03  0.47000000000E+01 0.  1.
          5   -1    0    0  501    0  0.00000000000E+00 -0.00000000000E+00 -0.17889251890E+03  0.17895424924E+03  0.47000000000E+01 0.  1.
         25    2    1    2    0    0 -0.44006211061E+02 -0.55061793753E+02 -0.16784274225E+01  0.14351361054E+03  0.12499996619E+03 0.  0.
         25    2    1    2    0    0  0.44006211061E+02  0.55061793753E+02 -0.57977577508E+02  0.15476974774E+03  0.12499571024E+03 0.  0.
          5    1    3    3  502    0 -0.47008775326E+02 -0.11780133950E+02 -0.55756662174E+02  0.74023590093E+02  0.47000000000E+01 0.  1.
         -5    1    3    3    0  502  0.30025642649E+01 -0.43281659804E+02  0.54078234751E+02  0.69490020444E+02  0.47000000000E+01 0.  1.
          5    1    4    4  503    0  0.39124073326E+02  0.44428098444E+02 -0.97014214381E+02  0.11374707397E+03  0.47000000000E+01 0.  1.
         -5    1    4    4    0  503  0.48821377350E+01  0.10633695309E+02  0.39036636873E+02  0.41022673769E+02  0.47000000000E+01 0.  1.
<mgrwt>
<rscale>  0 0.14350287E+03</rscale>
<asrwt>0</asrwt>
<pdfrwt beam="2">  1        5 0.27533797E-01 0.14350380E+03</pdfrwt>
<pdfrwt beam="1">  1       -5 0.18355950E-01 0.14350380E+03</pdfrwt>
<totfact> 0.25278728E+02</totfact>
</mgrwt>
</event>
<event>
 8    1  0.1865596E-007  0.1612022E+03  0.7546771E-02  0.1187350E+00
         -5   -1    0    0    0  501 -0.00000000000E+00  0.00000000000E+00  0.49162284713E+03  0.49164531303E+03  0.47000000000E+01 0. -1.
          5   -1    0    0  501    0  0.00000000000E+00 -0.00000000000E+00 -0.57084351355E+02  0.57277510156E+02  0.47000000000E+01 0. -1.
         25    2    1    2    0    0 -0.83929480411E+02 -0.57568124288E+02  0.29297940131E+03  0.33439958722E+03  0.12501163036E+03 0.  0.
         25    2    1    2    0    0  0.83929480411E+02  0.57568124288E+02  0.14155909446E+03  0.21452323596E+03  0.12499197944E+03 0.  0.
          5    1    4    4  502    0  0.10531630073E+03  0.45908563448E+02  0.14938262463E+03  0.18851094912E+03  0.47000000000E+01 0.  1.
         -5    1    4    4    0  502 -0.21386820315E+02  0.11659560841E+02 -0.78235301690E+01  0.26012286837E+02  0.47000000000E+01 0.  1.
          5    1    3    3  503    0 -0.16574893334E+02 -0.78697861898E+02  0.21242599890E+03  0.22718929457E+03  0.47000000000E+01 0.  1.
         -5    1    3    3    0  503 -0.67354587077E+02  0.21129737610E+02  0.80553402411E+02  0.10721029266E+03  0.47000000000E+01 0.  1.
<mgrwt>
<rscale>  0 0.16119841E+03</rscale>
<asrwt>0</asrwt>
<pdfrwt beam="2">  1        5 0.87987942E-02 0.16120222E+03</pdfrwt>
<pdfrwt beam="1">  1       -5 0.75650872E-01 0.16120222E+03</pdfrwt>
<totfact> 0.11689068E+02</totfact>
</mgrwt>
</event>
<event>
 8    1  0.1865596E-007  0.1528216E+03  0.7546771E-02  0.1197049E+00
         -5   -1    0    0    0  501 -0.00000000000E+00  0.00000000000E+00  0.10730022793E+03  0.10740311408E+03  0.47000000000E+01 0. -1.
          5   -1    0    0  501    0  0.00000000000E+00 -0.00000000000E+00 -0.22795888329E+03  0.22800732986E+03  0.47000000000E+01 0. -1.
         25    2    1    2    0    0  0.16120480820E+02  0.86424540557E+02 -0.24283093647E+02  0.15473758906E+03  0.12499992687E+03 0.  0.
         25    2    1    2    0    0 -0.16120480820E+02 -0.86424540557E+02 -0.96375561711E+02  0.18067285488E+03  0.12500144193E+03 0.  0.
          5    1    3    3  502    0 -0.13827497020E+02  0.10688787123E+03 -0.39825594606E+02  0.11499732465E+03  0.47000000000E+01 0. -1.
         -5    1    3    3    0  502  0.29947977840E+02 -0.20463330677E+02  0.15542500959E+02  0.39740264408E+02  0.47000000000E+01 0. -1.
          5    1    4    4  503    0 -0.18263078401E+02 -0.26903867847E+02  0.27692772117E+02  0.42969032632E+02  0.47000000000E+01 0. -1.
         -5    1    4    4    0  503  0.21425975809E+01 -0.59520672711E+02 -0.12406833383E+03  0.13770382225E+03  0.47000000000E+01 0. -1.
<mgrwt>
<rscale>  0 0.15282126E+03</rscale>
<asrwt>0</asrwt>
<pdfrwt beam="2">  1        5 0.35082238E-01 0.15282157E+03</pdfrwt>
<pdfrwt beam="1">  1       -5 0.16519368E-01 0.15282157E+03</pdfrwt>
<totfact> 0.19422226E+02</totfact>
</mgrwt>
</event>
<event>
 8    1  0.1865596E-007  0.1308772E+03  0.7546771E-02  0.1226161E+00
         -5   -1    0    0    0  501 -0.00000000000E+00  0.00000000000E+00  0.45929702185E+03  0.45932106884E+03  0.47000000000E+01 0. -1.
          5   -1    0    0  501    0  0.00000000000E+00 -0.00000000000E+00 -0.38279717247E+02  0.38567171953E+02  0.47000000000E+01 0. -1.
         25    2    1    2    0    0 -0.38791414462E+02 -0.29262261535E+00  0.25368002948E+03  0.28545122838E+03  0.12499594777E+03 0.  0.
         25    2    1    2    0    0  0.38791414462E+02  0.29262261535E+00  0.16733727512E+03  0.21243701242E+03  0.12499144425E+03 0.  0.
          5    1    3    3  502    0  0.20472137412E+02 -0.48831260549E+02  0.87068880310E+02  0.10201313805E+03  0.47000000000E+01 0. -1.
         -5    1    3    3    0  502 -0.59263551874E+02  0.48538637933E+02  0.16661114917E+03  0.18343809032E+03  0.47000000000E+01 0. -1.
          5    1    4    4  503    0 -0.31075133277E+02  0.19943352671E+01  0.12858805326E+03  0.13238813663E+03  0.47000000000E+01 0.  1.
         -5    1    4    4    0  503  0.69866547738E+02 -0.17017126517E+01  0.38749221864E+02  0.80048875781E+02  0.47000000000E+01 0.  1.
<mgrwt>
<rscale>  0 0.13087614E+03</rscale>
<asrwt>0</asrwt>
<pdfrwt beam="2">  1        5 0.59131490E-02 0.13087722E+03</pdfrwt>
<pdfrwt beam="1">  1       -5 0.70685042E-01 0.13087722E+03</pdfrwt>
<totfact> 0.25081479E+02</totfact>
</mgrwt>
</event>
<event>
 8    1  0.1865596E-007  0.1500976E+03  0.7546771E-02  0.1200356E+00
          5   -1    0    0  501    0  0.00000000000E+00  0.00000000000E+00  0.55553998656E+02  0.55752459736E+02  0.47000000000E+01 0.  1.
         -5   -1    0    0    0  501 -0.00000000000E+00 -0.00000000000E+00 -0.41469023361E+03  0.41471686710E+03  0.47000000000E+01 0.  1.
         25    2    1    2    0    0 -0.74545223826E+02 -0.36673625593E+02 -0.21628466590E+03  0.26325963082E+03  0.12499852522E+03 0.  0.
         25    2    1    2    0    0  0.74545223826E+02  0.36673625593E+02 -0.14285156905E+03  0.20720969601E+03  0.12500936817E+03 0.  0.
          5    1    4    4  502    0 -0.20714755896E+02 -0.10351233406E+01  0.97109442623E+01  0.23378730304E+02  0.47000000000E+01 0. -1.
         -5    1    4    4    0  502  0.95259979722E+02  0.37708748934E+02 -0.15256251332E+03  0.18383096571E+03  0.47000000000E+01 0. -1.
          5    1    3    3  503    0 -0.83898699269E+02 -0.36066345955E+02 -0.22911529109E+03  0.24668943970E+03  0.47000000000E+01 0.  1.
         -5    1    3    3    0  503  0.93534754432E+01 -0.60727963800E+00  0.12830625181E+02  0.16570191126E+02  0.47000000000E+01 0.  1.
<mgrwt>
<rscale>  0 0.15009534E+03</rscale>
<asrwt>0</asrwt>
<pdfrwt beam="1">  1        5 0.85640843E-02 0.15009759E+03</pdfrwt>
<pdfrwt beam="2">  1       -5 0.63815810E-01 0.15009759E+03</pdfrwt>
<totfact> 0.17574254E+02</totfact>
</mgrwt>
</event>
<event>
 8    1  0.1865596E-007  0.1273542E+03  0.7546771E-02  0.1231437E+00
          5   -1    0    0  501    0  0.00000000000E+00  0.00000000000E+00  0.33558908200E+02  0.33886432677E+02  0.47000000000E+01 0. -1.
         -5   -1    0    0    0  501 -0.00000000000E+00 -0.00000000000E+00 -0.55520554391E+03  0.55522543709E+03  0.47000000000E+01 0. -1.
         25    2    1    2    0    0 -0.20442817085E+02 -0.13284787545E+02 -0.36876084823E+03  0.39013155807E+03  0.12499470016E+03 0.  0.
         25    2    1    2    0    0  0.20442817085E+02  0.13284787545E+02 -0.15288578748E+03  0.19898031169E+03  0.12499882430E+03 0.  0.
          5    1    3    3  502    0 -0.41691401012E+02  0.47151452123E+02 -0.18256579175E+03  0.19316777856E+03  0.47000000000E+01 0. -1.
         -5    1    3    3    0  502  0.21248583927E+02 -0.60436239668E+02 -0.18619505648E+03  0.19696377952E+03  0.47000000000E+01 0. -1.
          5    1    4    4  503    0 -0.19964264997E+02 -0.47541405168E+02 -0.82798674701E+02  0.97654839176E+02  0.47000000000E+01 0. -1.
         -5    1    4    4    0  503  0.40407082081E+02  0.60826192713E+02 -0.70087112781E+02  0.10132547251E+03  0.47000000000E+01 0. -1.
<mgrwt>
<rscale>  0 0.12735322E+03</rscale>
<asrwt>0</asrwt>
<pdfrwt beam="1">  1        5 0.51896338E-02 0.12735423E+03</pdfrwt>
<pdfrwt beam="2">  1       -5 0.85442956E-01 0.12735423E+03</pdfrwt>
<totfact> 0.19981187E+02</totfact>
</mgrwt>
</event>
<event>
 8    1  0.1865596E-007  0.1266145E+03  0.7546771E-02  0.1232568E+00
         -5   -1    0    0    0  501 -0.00000000000E+00  0.00000000000E+00  0.30267979738E+03  0.30271628589E+03  0.47000000000E+01 0.  1.
          5   -1    0    0  501    0  0.00000000000E+00 -0.00000000000E+00 -0.10174889666E+03  0.10185739036E+03  0.47000000000E+01 0.  1.
         25    2    1    2    0    0  0.19797587111E+02  0.36224067662E+01  0.24060811882E+03  0.27188788187E+03  0.12500274870E+03 0.  0.
         25    2    1    2    0    0 -0.19797587111E+02 -0.36224067662E+01 -0.39677218099E+02  0.13268579438E+03  0.12500468835E+03 0.  0.
          5    1    4    4  502    0 -0.35409821905E+02  0.53883315018E+02 -0.32877591949E+02  0.72527878619E+02  0.47000000000E+01 0. -1.
         -5    1    4    4    0  502  0.15612234794E+02 -0.57505721784E+02 -0.67996261500E+01  0.60157915763E+02  0.47000000000E+01 0. -1.
          5    1    3    3  503    0  0.48404794159E+02  0.48294628517E+02  0.17115259976E+03  0.18436566287E+03  0.47000000000E+01 0. -1.
         -5    1    3    3    0  503 -0.28607207048E+02 -0.44672221751E+02  0.69455519056E+02  0.87522218999E+02  0.47000000000E+01 0. -1.
<mgrwt>
<rscale>  0 0.12661405E+03</rscale>
<asrwt>0</asrwt>
<pdfrwt beam="2">  1        5 0.15664829E-01 0.12661453E+03</pdfrwt>
<pdfrwt beam="1">  1       -5 0.46577275E-01 0.12661453E+03</pdfrwt>
<totfact> 0.11243780E+02</totfact>
</mgrwt>
</event>
<event>
 8    1  0.1865596E-007  0.1503929E+03  0.7546771E-02  0.1199993E+00
         -5   -1    0    0    0  501 -0.00000000000E+00  0.00000000000E+00  0.17612593976E+03  0.17618863941E+03  0.47000000000E+01 0.  1.
          5   -1    0    0  501    0  0.00000000000E+00 -0.00000000000E+00 -0.19281110261E+03  0.19286837815E+03  0.47000000000E+01 0.  1.
         25    2    1    2    0    0 -0.25237290192E+02  0.79714099630E+02  0.98368201364E+02  0.17970203223E+03  0.12500103541E+03 0.  0.
         25    2    1    2    0    0  0.25237290192E+02 -0.79714099630E+02 -0.11505336422E+03  0.18935498532E+03  0.12500710121E+03 0.  0.
          5    1    3    3  502    0 -0.12844390654E+02  0.80256762312E+02  0.98532428833E+00  0.81419820265E+02  0.47000000000E+01 0. -1.
         -5    1    3    3    0  502 -0.12392899538E+02 -0.54266268217E+00  0.97382877076E+02  0.98282211968E+02  0.47000000000E+01 0. -1.
          5    1    4    4  503    0  0.39496765355E+02  0.17687833731E+02 -0.66527119311E+02  0.79503468726E+02  0.47000000000E+01 0.  1.
         -5    1    4    4    0  503 -0.14259475164E+02 -0.97401933361E+02 -0.48526244905E+02  0.10985151660E+03  0.47000000000E+01 0.  1.
<mgrwt>
<rscale>  0 0.15039167E+03</rscale>
<asrwt>0</asrwt>
<pdfrwt beam="2">  1        5 0.29672475E-01 0.15039293E+03</pdfrwt>
<pdfrwt beam="1">  1       -5 0.27105527E-01 0.15039293E+03</pdfrwt>
<totfact> 0.10606452E+02</totfact>
</mgrwt>
</event>
<event>
 8    1  0.1865596E-007  0.1297593E+03  0.7546771E-02  0.1227814E+00
         -5   -1    0    0    0  501 -0.00000000000E+00  0.00000000000E+00  0.14712815023E+03  0.14720320170E+03  0.47000000000E+01 0. -1.
          5   -1    0    0  501    0  0.00000000000E+00 -0.00000000000E+00 -0.18363544894E+03  0.18369558544E+03  0.47000000000E+01 0. -1.
         25    2    1    2    0    0 -0.58209844246E+01  0.34316183999E+02  0.83377212894E+02  0.15423593162E+03  0.12500191450E+03 0.  0.
         25    2    1    2    0    0  0.58209844246E+01 -0.34316183999E+02 -0.11988451160E+03  0.17666285551E+03  0.12500393614E+03 0.  0.
          5    1    3    3  502    0 -0.56659357636E+02 -0.14789768612E+02  0.33843519587E+02  0.67797447455E+02  0.47000000000E+01 0.  1.
         -5    1    3    3    0  502  0.50838373212E+02  0.49105952611E+02  0.49533693307E+02  0.86438484168E+02  0.47000000000E+01 0.  1.
          5    1    4    4  503    0  0.34992511595E+02 -0.49668529517E+02 -0.12854406643E+03  0.14225718156E+03  0.47000000000E+01 0.  1.
         -5    1    4    4    0  503 -0.29171527170E+02  0.15352345519E+02  0.86595548229E+01  0.34405673952E+02  0.47000000000E+01 0.  1.
<mgrwt>
<rscale>  0 0.12975878E+03</rscale>
<asrwt>0</asrwt>
<pdfrwt beam="2">  1        5 0.28262007E-01 0.12975927E+03</pdfrwt>
<pdfrwt beam="1">  1       -5 0.22645499E-01 0.12975927E+03</pdfrwt>
<totfact> 0.15678646E+02</totfact>
</mgrwt>
</event>
<event>
 8    1  0.1865596E-007  0.1277874E+03  0.7546771E-02  0.1230781E+00
          5   -1    0    0  501    0  0.00000000000E+00  0.00000000000E+00  0.36709277741E+03  0.36712286394E+03  0.47000000000E+01 0. -1.
         -5   -1    0    0    0  501 -0.00000000000E+00 -0.00000000000E+00 -0.71523837213E+02  0.71678094908E+02  0.47000000000E+01 0. -1.
         25    2    1    2    0    0  0.46914357866E+00 -0.26538831434E+02  0.12706510643E+02  0.12841762378E+03  0.12500040406E+03 0.  0.
         25    2    1    2    0    0 -0.46914357866E+00  0.26538831434E+02  0.28286242955E+03  0.31038333507E+03  0.12498852334E+03 0.  0.
          5    1    4    4  502    0 -0.15258016883E+01 -0.48049458118E+01 -0.11990322111E+02  0.13830162666E+02  0.47000000000E+01 0.  1.
         -5    1    4    4    0  502  0.10566581096E+01  0.31343777246E+02  0.29485275166E+03  0.29655317240E+03  0.47000000000E+01 0.  1.
          5    1    3    3  503    0  0.60853771413E+02  0.22299476131E+00  0.11965662849E+02  0.62197253229E+02  0.47000000000E+01 0.  1.
         -5    1    3    3    0  503 -0.60384627834E+02 -0.26761826195E+02  0.74084779346E+00  0.66220370547E+02  0.47000000000E+01 0.  1.
<mgrwt>
<rscale>  0 0.12778454E+03</rscale>
<asrwt>0</asrwt>
<pdfrwt beam="1">  1        5 0.56489993E-01 0.12778744E+03</pdfrwt>
<pdfrwt beam="2">  1       -5 0.11017847E-01 0.12778744E+03</pdfrwt>
<totfact> 0.14028576E+02</totfact>
</mgrwt>
</event>
<event>
 8    1  0.1865596E-007  0.1283316E+03  0.7546771E-02  0.1229956E+00
          5   -1    0    0  501    0  0.00000000000E+00  0.00000000000E+00  0.58913219140E+02  0.59100400925E+02  0.47000000000E+01 0.  1.
         -5   -1    0    0    0  501 -0.00000000000E+00 -0.00000000000E+00 -0.32606001676E+03  0.32609388913E+03  0.47000000000E+01 0.  1.
         25    2    1    2    0    0 -0.61534325286E+01  0.28346645762E+02 -0.20681058629E+03  0.24338650921E+03  0.12499990883E+03 0.  0.
         25    2    1    2    0    0  0.61534325286E+01 -0.28346645762E+02 -0.60336211326E+02  0.14180778084E+03  0.12501036458E+03 0.  0.
          5    1    3    3  502    0  0.51954495307E+02 -0.15457410366E+02 -0.73657137384E+02  0.91573276699E+02  0.47000000000E+01 0. -1.
         -5    1    3    3    0  502 -0.58107927836E+02  0.43804056128E+02 -0.13315344891E+03  0.15181323252E+03  0.47000000000E+01 0. -1.
          5    1    4    4  503    0 -0.20678179723E+02  0.44547112422E+02 -0.14190471816E+02  0.51337041521E+02  0.47000000000E+01 0.  1.
         -5    1    4    4    0  503  0.26831612251E+02 -0.72893758184E+02 -0.46145739511E+02  0.90470739320E+02  0.47000000000E+01 0.  1.
<mgrwt>
<rscale>  0 0.12832901E+03</rscale>
<asrwt>0</asrwt>
<pdfrwt beam="1">  1        5 0.90805766E-02 0.12833156E+03</pdfrwt>
<pdfrwt beam="2">  1       -5 0.50180082E-01 0.12833156E+03</pdfrwt>
<totfact> 0.25357081E+02</totfact>
</mgrwt>
</event>
<event>
 8    1  0.1865596E-007  0.1865872E+03  0.7546771E-02  0.1161577E+00
          5   -1    0    0  501    0  0.00000000000E+00  0.00000000000E+00  0.17842750580E+04  0.17842812482E+04  0.47000000000E+01 0.  1.
         -5   -1    0    0    0  501 -0.00000000000E+00 -0.00000000000E+00 -0.22190452475E+02  0.22682728694E+02  0.47000000000E+01 0.  1.
         25    2    1    2    0    0  0.10710210255E+03 -0.87842651805E+02  0.55451793464E+03  0.58506707466E+03  0.12500460055E+03 0.  0.
         25    2    1    2    0    0 -0.10710210255E+03  0.87842651805E+02  0.12075666709E+04  0.12218969023E+04  0.12501033227E+03 0.  0.
          5    1    4    4  502    0  0.18779731257E+02  0.36063188941E+02  0.14599402300E+03  0.15162314023E+03  0.47000000000E+01 0. -1.
         -5    1    4    4    0  502 -0.12588183381E+03  0.51779462864E+02  0.10615726479E+04  0.10702737620E+04  0.47000000000E+01 0. -1.
          5    1    3    3  503    0 -0.44879729849E+01  0.25139783613E+02  0.10965570239E+03  0.11268812576E+03  0.47000000000E+01 0. -1.
         -5    1    3    3    0  503  0.11159007554E+03 -0.11298243542E+03  0.44486223226E+03  0.47237894890E+03  0.47000000000E+01 0. -1.
<mgrwt>
<rscale>  0 0.18658622E+03</rscale>
<asrwt>0</asrwt>
<pdfrwt beam="1">  1        5 0.27454223E+00 0.18658718E+03</pdfrwt>
<pdfrwt beam="2">  1       -5 0.34522589E-02 0.18658718E+03</pdfrwt>
<totfact> 0.14984601E+01</totfact>
</mgrwt>
</event>
<event>
 8    1  0.1865596E-007  0.1582667E+03  0.7546771E-02  0.1190669E+00
         -5   -1    0    0    0  501 -0.00000000000E+00  0.00000000000E+00  0.28367531530E+03  0.28371424799E+03  0.47000000000E+01 0.  1.
          5   -1    0    0  501    0  0.00000000000E+00 -0.00000000000E+00 -0.88675775740E+02  0.88800243261E+02  0.47000000000E+01 0.  1.
         25    2    1    2    0    0 -0.34718709882E+02  0.90650720356E+02  0.11128319653E+03  0.19347429787E+03  0.12500164875E+03 0.  0.
         25    2    1    2    0    0  0.34718709882E+02 -0.90650720356E+02  0.83716343028E+02  0.17904019337E+03  0.12499609128E+03 0.  0.
          5    1    3    3  502    0  0.12388054276E+02  0.99610611828E+02  0.10422663050E+03  0.14477920563E+03  0.47000000000E+01 0. -1.
         -5    1    3    3    0  502 -0.47106764159E+02 -0.89598914720E+01  0.70565660334E+01  0.48695092246E+02  0.47000000000E+01 0. -1.
          5    1    4    4  503    0 -0.44531938166E+02 -0.37922592619E+02  0.52544928757E+02  0.78767227232E+02  0.47000000000E+01 0.  1.
         -5    1    4    4    0  503  0.79250648048E+02 -0.52728127738E+02  0.31171414271E+02  0.10027296614E+03  0.47000000000E+01 0.  1.
<mgrwt>
<rscale>  0 0.15826562E+03</rscale>
<asrwt>0</asrwt>
<pdfrwt beam="2">  1        5 0.13654996E-01 0.15826672E+03</pdfrwt>
<pdfrwt beam="1">  1       -5 0.43654925E-01 0.15826672E+03</pdfrwt>
<totfact> 0.17755419E+02</totfact>
</mgrwt>
</event>
<event>
 8    1  0.1865596E-007  0.1457972E+03  0.7546771E-02  0.1205740E+00
         -5   -1    0    0    0  501 -0.00000000000E+00  0.00000000000E+00  0.40298190647E+03  0.40300931371E+03  0.47000000000E+01 0.  1.
          5   -1    0    0  501    0  0.00000000000E+00 -0.00000000000E+00 -0.54412862437E+02  0.54615470323E+02  0.47000000000E+01 0.  1.
         25    2    1    2    0    0 -0.71842231378E+02  0.21693729057E+02  0.21584998790E+03  0.26046701586E+03  0.12497969828E+03 0.  0.
         25    2    1    2    0    0  0.71842231378E+02 -0.21693729057E+02  0.13271905612E+03  0.19715776818E+03  0.12499965442E+03 0.  0.
          5    1    4    4  502    0  0.10558775297E+02 -0.83771606150E+01  0.13350249527E+03  0.13426343806E+03  0.47000000000E+01 0. -1.
         -5    1    4    4    0  502  0.61283456082E+02 -0.13316568442E+02 -0.78343914643E+00  0.62894330120E+02  0.47000000000E+01 0. -1.
          5    1    3    3  503    0 -0.33244110802E+02 -0.50977557420E+00  0.21296728303E+03  0.21559820133E+03  0.47000000000E+01 0. -1.
         -5    1    3    3    0  503 -0.38598120576E+02  0.22203504631E+02  0.28827048748E+01  0.44868814530E+02  0.47000000000E+01 0. -1.
<mgrwt>
<rscale>  0 0.14579297E+03</rscale>
<asrwt>0</asrwt>
<pdfrwt beam="2">  1        5 0.83889032E-02 0.14579725E+03</pdfrwt>
<pdfrwt beam="1">  1       -5 0.62014909E-01 0.14579725E+03</pdfrwt>
<totfact> 0.19217926E+02</totfact>
</mgrwt>
</event>
<event>
 8    1  0.1865596E-007  0.1297640E+03  0.7546771E-02  0.1227812E+00
          5   -1    0    0  501    0  0.00000000000E+00  0.00000000000E+00  0.26628133396E+02  0.27039739054E+02  0.47000000000E+01 0. -1.
         -5   -1    0    0    0  501 -0.00000000000E+00 -0.00000000000E+00 -0.10106695860E+04  0.10106805143E+04  0.47000000000E+01 0. -1.
         25    2    1    2    0    0  0.29486820011E+02 -0.18498475443E+02 -0.81165237002E+03  0.82196001917E+03  0.12500814856E+03 0.  0.
         25    2    1    2    0    0 -0.29486820011E+02  0.18498475443E+02 -0.17238908257E+03  0.21576023421E+03  0.12499126661E+03 0.  0.
          5    1    3    3  502    0  0.71171139939E+01  0.43580451279E+02 -0.13576752078E+03  0.14284543655E+03  0.47000000000E+01 0.  1.
         -5    1    3    3    0  502  0.22369706017E+02 -0.62078926722E+02 -0.67588484924E+03  0.67911458262E+03  0.47000000000E+01 0.  1.
          5    1    4    4  503    0 -0.91239566926E+00 -0.52157276049E+02 -0.57174128048E+02  0.77538279764E+02  0.47000000000E+01 0.  1.
         -5    1    4    4    0  503 -0.28574424342E+02  0.70655751492E+02 -0.11521495453E+03  0.13822195445E+03  0.47000000000E+01 0.  1.
<mgrwt>
<rscale>  0 0.12975996E+03</rscale>
<asrwt>0</asrwt>
<pdfrwt beam="1">  1        5 0.41291393E-02 0.12976403E+03</pdfrwt>
<pdfrwt beam="2">  1       -5 0.15552010E+00 0.12976403E+03</pdfrwt>
<totfact> 0.64609032E+01</totfact>
</mgrwt>
</event>
<event>
 8    1  0.1865596E-007  0.1777338E+03  0.7546771E-02  0.1170025E+00
          5   -1    0    0  501    0  0.00000000000E+00  0.00000000000E+00  0.10410142891E+03  0.10420747334E+03  0.47000000000E+01 0. -1.
         -5   -1    0    0    0  501 -0.00000000000E+00 -0.00000000000E+00 -0.30757202839E+03  0.30760793659E+03  0.47000000000E+01 0. -1.
         25    2    1    2    0    0 -0.20902003311E+02  0.12454930386E+03 -0.12655783996E+03  0.21815367388E+03  0.12499886294E+03 0.  0.
         25    2    1    2    0    0  0.20902003311E+02 -0.12454930386E+03 -0.76912759523E+02  0.19366173605E+03  0.12505947625E+03 0.  0.
          5    1    3    3  502    0 -0.47249296283E+02  0.11032301986E+03 -0.40239686946E+02  0.12666880877E+03  0.47000000000E+01 0. -1.
         -5    1    3    3    0  502  0.26347292972E+02  0.14226283996E+02 -0.86318153016E+02  0.91484865105E+02  0.47000000000E+01 0. -1.
          5    1    4    4  503    0 -0.51004541752E+02 -0.59029636702E+02 -0.49397239851E+02  0.92456144162E+02  0.47000000000E+01 0. -1.
         -5    1    4    4    0  503  0.71906545062E+02 -0.65519667155E+02 -0.27515519673E+02  0.10120559189E+03  0.47000000000E+01 0. -1.
<mgrwt>
<rscale>  0 0.17772311E+03</rscale>
<asrwt>0</asrwt>
<pdfrwt beam="1">  1        5 0.16026524E-01 0.17773378E+03</pdfrwt>
<pdfrwt beam="2">  1       -5 0.47329693E-01 0.17773378E+03</pdfrwt>
<totfact> 0.11610290E+02</totfact>
</mgrwt>
</event>
<event>
 8    1  0.1865596E-007  0.1571850E+03  0.7546771E-02  0.1191913E+00
          5   -1    0    0  501    0  0.00000000000E+00  0.00000000000E+00  0.12572180776E+03  0.12580962979E+03  0.47000000000E+01 0.  1.
         -5   -1    0    0    0  501 -0.00000000000E+00 -0.00000000000E+00 -0.20922802129E+03  0.20928080393E+03  0.47000000000E+01 0.  1.
         25    2    1    2    0    0  0.95208488923E+02  0.40688629347E+01 -0.83329682092E+02  0.17790537664E+03  0.12500110044E+03 0.  0.
         25    2    1    2    0    0 -0.95208488923E+02 -0.40688629347E+01 -0.17653143614E+00  0.15718505708E+03  0.12500359593E+03 0.  0.
          5    1    4    4  502    0 -0.12531076396E+03  0.41252127637E+01 -0.30591798528E+01  0.12550399805E+03  0.47000000000E+01 0.  1.
         -5    1    4    4    0  502  0.30102275040E+02 -0.81940756985E+01  0.28826484166E+01  0.31681059027E+02  0.47000000000E+01 0.  1.
          5    1    3    3  503    0 -0.10444672551E+02  0.40727557226E+02 -0.81908785277E+01  0.43092987752E+02  0.47000000000E+01 0.  1.
         -5    1    3    3    0  503  0.10565316147E+03 -0.36658694291E+02 -0.75138803564E+02  0.13481238889E+03  0.47000000000E+01 0.  1.
<mgrwt>
<rscale>  0 0.15718446E+03</rscale>
<asrwt>0</asrwt>
<pdfrwt beam="1">  1        5 0.19352632E-01 0.15718496E+03</pdfrwt>
<pdfrwt beam="2">  1       -5 0.32199742E-01 0.15718496E+03</pdfrwt>
<totfact> 0.17365256E+02</totfact>
</mgrwt>
</event>
<event>
 8    1  0.1865596E-007  0.1271666E+03  0.7546771E-02  0.1231728E+00
         -5   -1    0    0    0  501 -0.00000000000E+00  0.00000000000E+00  0.16929540821E+02  0.17569842128E+02  0.47000000000E+01 0.  1.
          5   -1    0    0  501    0  0.00000000000E+00 -0.00000000000E+00 -0.94976660393E+03  0.94977823303E+03  0.47000000000E+01 0.  1.
         25    2    1    2    0    0  0.77009360722E+00  0.23276423561E+02 -0.40976649349E+03  0.42904534909E+03  0.12501578881E+03 0.  0.
         25    2    1    2    0    0 -0.77009360722E+00 -0.23276423561E+02 -0.52307056961E+03  0.53830272606E+03  0.12499847660E+03 0.  0.
          5    1    4    4  502    0 -0.58361452968E+02 -0.33925421448E+02 -0.25113901479E+03  0.26009592108E+03  0.47000000000E+01 0.  1.
         -5    1    4    4    0  502  0.57591359361E+02  0.10648997886E+02 -0.27193155482E+03  0.27820680498E+03  0.47000000000E+01 0.  1.
          5    1    3    3  503    0 -0.37394448441E+02 -0.17057839364E+02 -0.49574876398E+02  0.64568359340E+02  0.47000000000E+01 0. -1.
         -5    1    3    3    0  503  0.38164542048E+02  0.40334262926E+02 -0.36019161709E+03  0.36447698975E+03  0.47000000000E+01 0. -1.
<mgrwt>
<rscale>  0 0.12716230E+03</rscale>
<asrwt>0</asrwt>
<pdfrwt beam="2">  1        5 0.14616805E+00 0.12716655E+03</pdfrwt>
<pdfrwt beam="1">  1       -5 0.26546940E-02 0.12716655E+03</pdfrwt>
<totfact> 0.15554885E+02</totfact>
</mgrwt>
</event>
<event>
 8    1  0.1865596E-007  0.1453505E+03  0.7546771E-02  0.1206306E+00
         -5   -1    0    0    0  501 -0.00000000000E+00  0.00000000000E+00  0.28279072298E+02  0.28666983274E+02  0.47000000000E+01 0.  1.
          5   -1    0    0  501    0  0.00000000000E+00 -0.00000000000E+00 -0.74673712663E+03  0.74675191750E+03  0.47000000000E+01 0.  1.
         25    2    1    2    0    0  0.37733344647E+02  0.63856684049E+02 -0.32706613037E+03  0.35790923324E+03  0.12500113683E+03 0.  0.
         25    2    1    2    0    0 -0.37733344647E+02 -0.63856684049E+02 -0.39139192397E+03  0.41750966753E+03  0.12500081177E+03 0.  0.
          5    1    4    4  502    0 -0.20757370880E+02 -0.18791577987E+02 -0.35704711223E+03  0.35817415066E+03  0.47000000000E+01 0. -1.
         -5    1    4    4    0  502 -0.16975973767E+02 -0.45065106062E+02 -0.34344811739E+02  0.59335516877E+02  0.47000000000E+01 0. -1.
          5    1    3    3  503    0 -0.39098762808E+01 -0.13605011282E+02 -0.21433689180E+03  0.21485524581E+03  0.47000000000E+01 0. -1.
         -5    1    3    3    0  503  0.41643220928E+02  0.77461695330E+02 -0.11272923857E+03  0.14305398744E+03  0.47000000000E+01 0. -1.
<mgrwt>
<rscale>  0 0.14535042E+03</rscale>
<asrwt>0</asrwt>
<pdfrwt beam="2">  1        5 0.11491360E+00 0.14535049E+03</pdfrwt>
<pdfrwt beam="1">  1       -5 0.43816041E-02 0.14535049E+03</pdfrwt>
<totfact> 0.13457983E+02</totfact>
</mgrwt>
</event>
<event>
 8    1  0.1865596E-007  0.1796382E+03  0.7546771E-02  0.1168155E+00
          5   -1    0    0  501    0  0.00000000000E+00  0.00000000000E+00  0.26080419090E+02  0.26500533200E+02  0.47000000000E+01 0. -1.
         -5   -1    0    0    0  501 -0.00000000000E+00 -0.00000000000E+00 -0.13015396874E+04  0.13015481735E+04  0.47000000000E+01 0. -1.
         25    2    1    2    0    0  0.68930243372E+02  0.10907163348E+03 -0.79662467448E+03  0.81662671105E+03  0.12498125272E+03 0.  0.
         25    2    1    2    0    0 -0.68930243372E+02 -0.10907163348E+03 -0.47883459385E+03  0.51142199564E+03  0.12498755809E+03 0.  0.
          5    1    4    4  502    0 -0.24783298925E+02  0.78901390039E+01 -0.24323652732E+03  0.24466827425E+03  0.47000000000E+01 0. -1.
         -5    1    4    4    0  502 -0.44146944448E+02 -0.11696177249E+03 -0.23559806653E+03  0.26675372140E+03  0.47000000000E+01 0. -1.
          5    1    3    3  503    0  0.46730722893E+02  0.92631813131E+02 -0.27044682226E+03  0.28970327395E+03  0.47000000000E+01 0.  1.
         -5    1    3    3    0  503  0.22199520479E+02  0.16439820352E+02 -0.52617785222E+03  0.52692343710E+03  0.47000000000E+01 0.  1.
<mgrwt>
<rscale>  0 0.17963712E+03</rscale>
<asrwt>0</asrwt>
<pdfrwt beam="1">  1        5 0.40453424E-02 0.17963822E+03</pdfrwt>
<pdfrwt beam="2">  1       -5 0.20026979E+00 0.17963822E+03</pdfrwt>
<totfact> 0.34801372E+01</totfact>
</mgrwt>
</event>
<event>
 8    1  0.1865596E-007  0.1889860E+03  0.7546771E-02  0.1159382E+00
         -5   -1    0    0    0  501 -0.00000000000E+00  0.00000000000E+00  0.10983912349E+03  0.10993963366E+03  0.47000000000E+01 0.  1.
          5   -1    0    0  501    0  0.00000000000E+00 -0.00000000000E+00 -0.40949904904E+03  0.40952602013E+03  0.47000000000E+01 0.  1.
         25    2    1    2    0    0  0.37933684271E+02 -0.13657353882E+03 -0.31773110855E+02  0.19162565747E+03  0.12497826259E+03 0.  0.
         25    2    1    2    0    0 -0.37933684271E+02  0.13657353882E+03 -0.26788681469E+03  0.32783999631E+03  0.12499768713E+03 0.  0.
          5    1    3    3  502    0  0.53234612023E+02 -0.36858796471E+01 -0.20302268772E+02  0.57286837435E+02  0.47000000000E+01 0. -1.
         -5    1    3    3    0  502 -0.15300927753E+02 -0.13288765918E+03 -0.11470842083E+02  0.13433882004E+03  0.47000000000E+01 0. -1.
          5    1    4    4  503    0 -0.79105905506E+02  0.55405508567E+02 -0.15597127939E+03  0.18351197416E+03  0.47000000000E+01 0. -1.
         -5    1    4    4    0  503  0.41172221235E+02  0.81168030256E+02 -0.11191553530E+03  0.14432802215E+03  0.47000000000E+01 0. -1.
<mgrwt>
<rscale>  0 0.18898281E+03</rscale>
<asrwt>0</asrwt>
<pdfrwt beam="2">  1        5 0.63009659E-01 0.18898603E+03</pdfrwt>
<pdfrwt beam="1">  1       -5 0.16908133E-01 0.18898603E+03</pdfrwt>
<totfact> 0.57645593E+01</totfact>
</mgrwt>
</event>
<event>
 8    1  0.1865596E-007  0.1378753E+03  0.7546771E-02  0.1216222E+00
         -5   -1    0    0    0  501 -0.00000000000E+00  0.00000000000E+00  0.37829984253E+03  0.37832903783E+03  0.47000000000E+01 0.  1.
          5   -1    0    0  501    0  0.00000000000E+00 -0.00000000000E+00 -0.55491128710E+02  0.55689813840E+02  0.47000000000E+01 0.  1.
         25    2    1    2    0    0 -0.47759528344E+02  0.33204670739E+02  0.22888505822E+03  0.26720400123E+03  0.12500434267E+03 0.  0.
         25    2    1    2    0    0  0.47759528344E+02 -0.33204670739E+02  0.93923655603E+02  0.16681485044E+03  0.12498807359E+03 0.  0.
          5    1    4    4  502    0  0.51669195082E+01 -0.15898374885E+02  0.11479891116E+03  0.11610484651E+03  0.47000000000E+01 0.  1.
         -5    1    4    4    0  502  0.42592608836E+02 -0.17306295854E+02 -0.20875255555E+02  0.50710003925E+02  0.47000000000E+01 0.  1.
          5    1    3    3  503    0 -0.93752586795E+01  0.47567336606E+02  0.17386084314E+02  0.51719560273E+02  0.47000000000E+01 0. -1.
         -5    1    3    3    0  503 -0.38384269664E+02 -0.14362665867E+02  0.21149897391E+03  0.21548444095E+03  0.47000000000E+01 0. -1.
<mgrwt>
<rscale>  0 0.13787165E+03</rscale>
<asrwt>0</asrwt>
<pdfrwt beam="2">  1        5 0.85546258E-02 0.13787534E+03</pdfrwt>
<pdfrwt beam="1">  1       -5 0.58217506E-01 0.13787534E+03</pdfrwt>
<totfact> 0.20947491E+02</totfact>
</mgrwt>
</event>
<event>
 8    1  0.1865596E-007  0.1269983E+03  0.7546771E-02  0.1231984E+00
         -5   -1    0    0    0  501 -0.00000000000E+00  0.00000000000E+00  0.42178790062E+03  0.42181408595E+03  0.47000000000E+01 0. -1.
          5   -1    0    0  501    0  0.00000000000E+00 -0.00000000000E+00 -0.38752063926E+02  0.39036040508E+02  0.47000000000E+01 0. -1.
         25    2    1    2    0    0 -0.17346649858E+02 -0.14067210404E+02  0.22211061539E+03  0.25584894687E+03  0.12500706171E+03 0.  0.
         25    2    1    2    0    0  0.17346649858E+02  0.14067210404E+02  0.16092522131E+03  0.20500117959E+03  0.12501905499E+03 0.  0.
          5    1    3    3  502    0 -0.55844682459E+02  0.31802111249E+02  0.13995261062E+03  0.15407409275E+03  0.47000000000E+01 0. -1.
         -5    1    3    3    0  502  0.38498032601E+02 -0.45869321652E+02  0.82158004765E+02  0.10177485411E+03  0.47000000000E+01 0. -1.
          5    1    4    4  503    0 -0.44942201047E+02 -0.25764155684E+02  0.54600334147E+02  0.75411402599E+02  0.47000000000E+01 0.  1.
         -5    1    4    4    0  503  0.62288850905E+02  0.39831366087E+02  0.10632488716E+03  0.12958977699E+03  0.47000000000E+01 0.  1.
<mgrwt>
<rscale>  0 0.12699530E+03</rscale>
<asrwt>0</asrwt>
<pdfrwt beam="2">  1        5 0.59857147E-02 0.12699826E+03</pdfrwt>
<pdfrwt beam="1">  1       -5 0.64914304E-01 0.12699826E+03</pdfrwt>
<totfact> 0.29406553E+02</totfact>
</mgrwt>
</event>
<event>
 8    1  0.1865596E-007  0.1547839E+03  0.7546771E-02  0.1194717E+00
          5   -1    0    0  501    0  0.00000000000E+00  0.00000000000E+00  0.20309009269E+03  0.20314447014E+03  0.47000000000E+01 0.  1.
         -5   -1    0    0    0  501 -0.00000000000E+00 -0.00000000000E+00 -0.20764123148E+03  0.20769441738E+03  0.47000000000E+01 0.  1.
         25    2    1    2    0    0 -0.79940577282E+02 -0.44040439914E+02 -0.13732196346E+03  0.20691877253E+03  0.12501200156E+03 0.  0.
         25    2    1    2    0    0  0.79940577282E+02  0.44040439914E+02  0.13277082467E+03  0.20392011499E+03  0.12500106067E+03 0.  0.
          5    1    3    3  502    0 -0.25087089034E+02  0.40691280096E+02 -0.72154373041E+02  0.86680366064E+02  0.47000000000E+01 0.  1.
         -5    1    3    3    0  502 -0.54853488248E+02 -0.84731720010E+02 -0.65167590418E+02  0.12023840647E+03  0.47000000000E+01 0.  1.
          5    1    4    4  503    0  0.15717415965E+02  0.68385475701E+02  0.11157309018E+03  0.13188728105E+03  0.47000000000E+01 0.  1.
         -5    1    4    4    0  503  0.64223161316E+02 -0.24345035787E+02  0.21197734492E+02  0.72032833934E+02  0.47000000000E+01 0.  1.
<mgrwt>
<rscale>  0 0.15478169E+03</rscale>
<asrwt>0</asrwt>
<pdfrwt beam="1">  1        5 0.31252904E-01 0.15478390E+03</pdfrwt>
<pdfrwt beam="2">  1       -5 0.31953079E-01 0.15478390E+03</pdfrwt>
<totfact> 0.69976545E+01</totfact>
</mgrwt>
</event>
<event>
 8    1  0.1865596E-007  0.1378647E+03  0.7546771E-02  0.1216244E+00
          5   -1    0    0  501    0  0.00000000000E+00  0.00000000000E+00  0.41498787563E+02  0.41764091864E+02  0.47000000000E+01 0. -1.
         -5   -1    0    0    0  501 -0.00000000000E+00 -0.00000000000E+00 -0.76028836853E+03  0.76030289577E+03  0.47000000000E+01 0. -1.
         25    2    1    2    0    0  0.53105145306E+02  0.23727543578E+02 -0.61296596247E+03  0.62827025416E+03  0.12495234427E+03 0.  0.
         25    2    1    2    0    0 -0.53105145306E+02 -0.23727543578E+02 -0.10582361850E+03  0.17379673348E+03  0.12499405407E+03 0.  0.
          5    1    3    3  502    0  0.18439570658E+02  0.71544874397E+02 -0.25871418232E+03  0.26909813257E+03  0.47000000000E+01 0.  1.
         -5    1    3    3    0  502  0.34665574648E+02 -0.47817330818E+02 -0.35425178015E+03  0.35917212159E+03  0.47000000000E+01 0.  1.
          5    1    4    4  503    0  0.20313069189E+02 -0.32868599341E+02  0.62504050265E+01  0.39422368847E+02  0.47000000000E+01 0.  1.
         -5    1    4    4    0  503 -0.73418214495E+02  0.91410557626E+01 -0.11207402353E+03  0.13437436463E+03  0.47000000000E+01 0.  1.
<mgrwt>
<rscale>  0 0.13785521E+03</rscale>
<asrwt>0</asrwt>
<pdfrwt beam="1">  1        5 0.64059549E-02 0.13786467E+03</pdfrwt>
<pdfrwt beam="2">  1       -5 0.11698896E+00 0.13786467E+03</pdfrwt>
<totfact> 0.67162531E+01</totfact>
</mgrwt>
</event>
<event>
 8    1  0.1865596E-007  0.1515469E+03  0.7546771E-02  0.1198586E+00
          5   -1    0    0  501    0  0.00000000000E+00  0.00000000000E+00  0.15922154469E+03  0.15929089833E+03  0.47000000000E+01 0. -1.
         -5   -1    0    0    0  501 -0.00000000000E+00 -0.00000000000E+00 -0.14747640220E+03  0.14755127653E+03  0.47000000000E+01 0. -1.
         25    2    1    2    0    0 -0.24661144961E+02  0.82051710062E+02 -0.17335707172E+02  0.15253027039E+03  0.12499720576E+03 0.  0.
         25    2    1    2    0    0  0.24661144961E+02 -0.82051710062E+02  0.29080849656E+02  0.15431190448E+03  0.12500325137E+03 0.  0.
          5    1    4    4  502    0  0.36586058968E+02 -0.58983462226E+02  0.74406911523E+02  0.10186298155E+03  0.47000000000E+01 0.  1.
         -5    1    4    4    0  502 -0.11924914007E+02 -0.23068247836E+02 -0.45326061868E+02  0.52448922932E+02  0.47000000000E+01 0.  1.
          5    1    3    3  503    0 -0.17897614509E+02  0.71144179529E+02 -0.67948493085E+02  0.10010447841E+03  0.47000000000E+01 0.  1.
         -5    1    3    3    0  503 -0.67635304516E+01  0.10907530533E+02  0.50612785913E+02  0.52425791977E+02  0.47000000000E+01 0.  1.
<mgrwt>
<rscale>  0 0.15154567E+03</rscale>
<asrwt>0</asrwt>
<pdfrwt beam="1">  1        5 0.24506717E-01 0.15154692E+03</pdfrwt>
<pdfrwt beam="2">  1       -5 0.22699772E-01 0.15154692E+03</pdfrwt>
<totfact> 0.21645682E+02</totfact>
</mgrwt>
</event>
<event>
 8    1  0.1865596E-007  0.1289934E+03  0.7546771E-02  0.1228963E+00
         -5   -1    0    0    0  501 -0.00000000000E+00  0.00000000000E+00  0.14424209742E+04  0.14424286315E+04  0.47000000000E+01 0.  1.
          5   -1    0    0  501    0  0.00000000000E+00 -0.00000000000E+00 -0.11866550733E+02  0.12763425335E+02  0.47000000000E+01 0.  1.
         25    2    1    2    0    0 -0.29808013720E+02  0.11199883854E+02  0.89928859890E+03  0.90849042548E+03  0.12498365488E+03 0.  0.
         25    2    1    2    0    0  0.29808013720E+02 -0.11199883854E+02  0.53126582458E+03  0.54670163132E+03  0.12500136895E+03 0.  0.
          5    1    4    4  502    0  0.39905525092E+02 -0.54340317796E+02  0.17392724983E+03  0.18659608599E+03  0.47000000000E+01 0. -1.
         -5    1    4    4    0  502 -0.10097511372E+02  0.43140433942E+02  0.35733857475E+03  0.36010554533E+03  0.47000000000E+01 0. -1.
          5    1    3    3  503    0  0.29696491667E+02  0.49592732245E+02  0.39870229433E+03  0.40289816358E+03  0.47000000000E+01 0.  1.
         -5    1    3    3    0  503 -0.59504505387E+02 -0.38392848391E+02  0.50058630457E+03  0.50559226190E+03  0.47000000000E+01 0.  1.
<mgrwt>
<rscale>  0 0.12898911E+03</rscale>
<asrwt>0</asrwt>
<pdfrwt beam="2">  1        5 0.18952029E-02 0.12899340E+03</pdfrwt>
<pdfrwt beam="1">  1       -5 0.22198046E+00 0.12899340E+03</pdfrwt>
<totfact> 0.77548139E+01</totfact>
</mgrwt>
</event>
<event>
 8    1  0.1865596E-007  0.1456722E+03  0.7546771E-02  0.1205895E+00
          5   -1    0    0  501    0  0.00000000000E+00  0.00000000000E+00  0.34057923173E+02  0.34380694159E+02  0.47000000000E+01 0. -1.
         -5   -1    0    0    0  501 -0.00000000000E+00 -0.00000000000E+00 -0.69799190443E+03  0.69800772822E+03  0.47000000000E+01 0. -1.
         25    2    1    2    0    0  0.21850562418E+02 -0.71534810707E+02 -0.45450906841E+03  0.47728221485E+03  0.12500057249E+03 0.  0.
         25    2    1    2    0    0 -0.21850562418E+02  0.71534810707E+02 -0.20942491285E+03  0.25510620753E+03  0.12500282707E+03 0.  0.
          5    1    4    4  502    0 -0.36869583685E+02  0.17266400869E+02 -0.19148631940E+03  0.19582286719E+03  0.47000000000E+01 0.  1.
         -5    1    4    4    0  502  0.15019021267E+02  0.54268409837E+02 -0.17938593453E+02  0.59283340334E+02  0.47000000000E+01 0.  1.
          5    1    3    3  503    0 -0.66382325902E+01 -0.24632874222E+02 -0.39629276801E+03  0.39714089767E+03  0.47000000000E+01 0.  1.
         -5    1    3    3    0  503  0.28488795009E+02 -0.46901936485E+02 -0.58216300397E+02  0.80141317178E+02  0.47000000000E+01 0.  1.
<mgrwt>
<rscale>  0 0.14567169E+03</rscale>
<asrwt>0</asrwt>
<pdfrwt beam="1">  1        5 0.52657267E-02 0.14567218E+03</pdfrwt>
<pdfrwt beam="2">  1       -5 0.10740941E+00 0.14567218E+03</pdfrwt>
<totfact> 0.11750231E+02</totfact>
</mgrwt>
</event>
<event>
 8    1  0.1865596E-007  0.1298346E+03  0.7546771E-02  0.1227705E+00
         -5   -1    0    0    0  501 -0.00000000000E+00  0.00000000000E+00  0.10707482926E+04  0.10707586078E+04  0.47000000000E+01 0. -1.
          5   -1    0    0  501    0  0.00000000000E+00 -0.00000000000E+00 -0.15407754445E+02  0.16108659070E+02  0.47000000000E+01 0. -1.
         25    2    1    2    0    0 -0.71720286439E+01 -0.34358063671E+02  0.50538909708E+03  0.52179770120E+03  0.12499114767E+03 0.  0.
         25    2    1    2    0    0  0.71720286439E+01  0.34358063671E+02  0.54995144112E+03  0.56506956568E+03  0.12500044774E+03 0.  0.
          5    1    3    3  502    0  0.42706745868E+01 -0.77805708236E+02  0.23409322478E+03  0.24676647824E+03  0.47000000000E+01 0. -1.
         -5    1    3    3    0  502 -0.11442703231E+02  0.43447644565E+02  0.27129587230E+03  0.27503122296E+03  0.47000000000E+01 0. -1.
          5    1    4    4  503    0  0.19713520768E+02 -0.10455897628E+02  0.13331884347E+02  0.26415484787E+02  0.47000000000E+01 0. -1.
         -5    1    4    4    0  503 -0.12541492124E+02  0.44813961299E+02  0.53661955678E+03  0.53865408090E+03  0.47000000000E+01 0. -1.
<mgrwt>
<rscale>  0 0.12983237E+03</rscale>
<asrwt>0</asrwt>
<pdfrwt beam="2">  1        5 0.24251330E-02 0.12983461E+03</pdfrwt>
<pdfrwt beam="1">  1       -5 0.16478522E+00 0.12983461E+03</pdfrwt>
<totfact> 0.13002850E+02</totfact>
</mgrwt>
</event>
<event>
 8    1  0.1865596E-007  0.1279985E+03  0.7546771E-02  0.1230461E+00
          5   -1    0    0  501    0  0.00000000000E+00  0.00000000000E+00  0.10499271807E+02  0.11503247736E+02  0.47000000000E+01 0. -1.
         -5   -1    0    0    0  501 -0.00000000000E+00 -0.00000000000E+00 -0.15033352345E+04  0.15033425815E+04  0.47000000000E+01 0. -1.
         25    2    1    2    0    0 -0.11951147930E+02 -0.24774790204E+02 -0.67014398844E+03  0.68225606696E+03  0.12499502190E+03 0.  0.
         25    2    1    2    0    0  0.11951147930E+02  0.24774790204E+02 -0.82269197428E+03  0.83258976228E+03  0.12500802990E+03 0.  0.
          5    1    3    3  502    0 -0.50178171365E+02 -0.19486498944E+02 -0.13091766567E+03  0.14163014406E+03  0.47000000000E+01 0.  1.
         -5    1    3    3    0  502  0.38227023435E+02 -0.52882912607E+01 -0.53922632277E+03  0.54062592290E+03  0.47000000000E+01 0.  1.
          5    1    4    4  503    0 -0.25713832001E+02  0.50655808826E+02 -0.19346481531E+03  0.20168772121E+03  0.47000000000E+01 0. -1.
         -5    1    4    4    0  503  0.37664979931E+02 -0.25881018622E+02 -0.62922715897E+03  0.63090204107E+03  0.47000000000E+01 0. -1.
<mgrwt>
<rscale>  0 0.12799537E+03</rscale>
<asrwt>0</asrwt>
<pdfrwt beam="1">  1        5 0.16930678E-02 0.12799855E+03</pdfrwt>
<pdfrwt beam="2">  1       -5 0.23135998E+00 0.12799855E+03</pdfrwt>
<totfact> 0.80413698E+01</totfact>
</mgrwt>
</event>
<event>
 8    1  0.1865596E-007  0.1298958E+03  0.7546771E-02  0.1227611E+00
         -5   -1    0    0    0  501 -0.00000000000E+00  0.00000000000E+00  0.78992156755E+02  0.79131857231E+02  0.47000000000E+01 0. -1.
          5   -1    0    0  501    0  0.00000000000E+00 -0.00000000000E+00 -0.23710785754E+03  0.23715443515E+03  0.47000000000E+01 0. -1.
         25    2    1    2    0    0  0.35233353722E+02 -0.24810193193E+01 -0.28909276503E+02  0.13307268550E+03  0.12500019474E+03 0.  0.
         25    2    1    2    0    0 -0.35233353722E+02  0.24810193193E+01 -0.12920642429E+03  0.18321360688E+03  0.12500152398E+03 0.  0.
          5    1    4    4  502    0 -0.59326824071E+02 -0.45057851367E+02 -0.89753468272E+02  0.11673755647E+03  0.47000000000E+01 0.  1.
         -5    1    4    4    0  502  0.24093470349E+02  0.47538870686E+02 -0.39452956014E+02  0.66476050408E+02  0.47000000000E+01 0.  1.
          5    1    3    3  503    0 -0.31061579831E+01 -0.30741626573E+02 -0.65667166084E+02  0.72725253683E+02  0.47000000000E+01 0.  1.
         -5    1    3    3    0  503  0.38339511705E+02  0.28260607253E+02  0.36757889581E+02  0.60347431814E+02  0.47000000000E+01 0.  1.
<mgrwt>
<rscale>  0 0.12989551E+03</rscale>
<asrwt>0</asrwt>
<pdfrwt beam="2">  1        5 0.36492461E-01 0.12989583E+03</pdfrwt>
<pdfrwt beam="1">  1       -5 0.12166969E-01 0.12989583E+03</pdfrwt>
<totfact> 0.29456929E+02</totfact>
</mgrwt>
</event>
<event>
 8    1  0.1865596E-007  0.1258701E+03  0.7546771E-02  0.1233716E+00
          5   -1    0    0  501    0  0.00000000000E+00  0.00000000000E+00  0.11791485933E+03  0.11800849143E+03  0.47000000000E+01 0. -1.
         -5   -1    0    0    0  501 -0.00000000000E+00 -0.00000000000E+00 -0.20398157906E+03  0.20403571892E+03  0.47000000000E+01 0. -1.
         25    2    1    2    0    0  0.14687344621E+02  0.15906769376E+01 -0.13719412893E+03  0.18618658291E+03  0.12499986518E+03 0.  0.
         25    2    1    2    0    0 -0.14687344621E+02 -0.15906769376E+01  0.51127409203E+02  0.13585762745E+03  0.12500013847E+03 0.  0.
          5    1    4    4  502    0  0.32775149136E+02 -0.16968259183E+02  0.72413246453E+02  0.81411918553E+02  0.47000000000E+01 0.  1.
         -5    1    4    4    0  502 -0.47462493757E+02  0.15377582245E+02 -0.21285837251E+02  0.54445708893E+02  0.47000000000E+01 0.  1.
          5    1    3    3  503    0  0.65838318905E+02  0.45372050323E+01 -0.43152802704E+02  0.78990663037E+02  0.47000000000E+01 0. -1.
         -5    1    3    3    0  503 -0.51150974284E+02 -0.29465280947E+01 -0.94041326228E+02  0.10719591987E+03  0.47000000000E+01 0. -1.
<mgrwt>
<rscale>  0 0.12587004E+03</rscale>
<asrwt>0</asrwt>
<pdfrwt beam="1">  1        5 0.18152115E-01 0.12587010E+03</pdfrwt>
<pdfrwt beam="2">  1       -5 0.31393148E-01 0.12587010E+03</pdfrwt>
<totfact> 0.19080581E+02</totfact>
</mgrwt>
</event>
<event>
 8    1  0.1865596E-007  0.1307930E+03  0.7546771E-02  0.1226289E+00
          5   -1    0    0  501    0  0.00000000000E+00  0.00000000000E+00  0.11247794769E+02  0.12190278387E+02  0.47000000000E+01 0. -1.
         -5   -1    0    0    0  501 -0.00000000000E+00 -0.00000000000E+00 -0.15252058409E+04  0.15252130825E+04  0.47000000000E+01 0. -1.
         25    2    1    2    0    0 -0.15352031591E+02 -0.35258928183E+02 -0.91754215508E+03  0.92681735393E+03  0.12501169669E+03 0.  0.
         25    2    1    2    0    0  0.15352031591E+02  0.35258928183E+02 -0.59641589105E+03  0.61058600698E+03  0.12499791972E+03 0.  0.
          5    1    4    4  502    0  0.47637989139E+02  0.67453543155E+02 -0.32699611244E+03  0.33729498372E+03  0.47000000000E+01 0. -1.
         -5    1    4    4    0  502 -0.32285957547E+02 -0.32194614972E+02 -0.26941977861E+03  0.27329102326E+03  0.47000000000E+01 0. -1.
          5    1    3    3  503    0  0.26081298745E+01 -0.53933961002E+02 -0.16220108161E+03  0.17101741246E+03  0.47000000000E+01 0.  1.
         -5    1    3    3    0  503 -0.17960161466E+02  0.18675032819E+02 -0.75534107347E+03  0.75579994147E+03  0.47000000000E+01 0.  1.
<mgrwt>
<rscale>  0 0.13078968E+03</rscale>
<asrwt>0</asrwt>
<pdfrwt beam="1">  1        5 0.18034870E-02 0.13079297E+03</pdfrwt>
<pdfrwt beam="2">  1       -5 0.23471995E+00 0.13079297E+03</pdfrwt>
<totfact> 0.69730579E+01</totfact>
</mgrwt>
</event>
<event>
 8    1  0.1865596E-007  0.1388856E+03  0.7546771E-02  0.1214837E+00
         -5   -1    0    0    0  501 -0.00000000000E+00  0.00000000000E+00  0.56570122732E+02  0.56765031366E+02  0.47000000000E+01 0. -1.
          5   -1    0    0  501    0  0.00000000000E+00 -0.00000000000E+00 -0.35481468230E+03  0.35484580987E+03  0.47000000000E+01 0. -1.
         25    2    1    2    0    0 -0.15352365497E+02 -0.58547805612E+02 -0.10732905156E+03  0.17552198130E+03  0.12499959977E+03 0.  0.
         25    2    1    2    0    0  0.15352365497E+02  0.58547805612E+02 -0.19091550801E+03  0.23608885993E+03  0.12500271163E+03 0.  0.
          5    1    4    4  502    0 -0.23604117860E+02  0.13545670491E+02 -0.17089915610E+03  0.17311629364E+03  0.47000000000E+01 0. -1.
         -5    1    4    4    0  502  0.38956483358E+02  0.45002135120E+02 -0.20016351912E+02  0.62972566287E+02  0.47000000000E+01 0. -1.
          5    1    3    3  503    0  0.35582148908E+02 -0.50872138104E+02 -0.10700295013E+03  0.12379735495E+03  0.47000000000E+01 0. -1.
         -5    1    3    3    0  503 -0.50934514406E+02 -0.76756675072E+01 -0.32610143677E+00  0.51724626355E+02  0.47000000000E+01 0. -1.
<mgrwt>
<rscale>  0 0.13888493E+03</rscale>
<asrwt>0</asrwt>
<pdfrwt beam="2">  1        5 0.54604260E-01 0.13888563E+03</pdfrwt>
<pdfrwt beam="1">  1       -5 0.87204834E-02 0.13888563E+03</pdfrwt>
<totfact> 0.23336309E+02</totfact>
</mgrwt>
</event>
<event>
 8    1  0.1865596E-007  0.2019801E+03  0.7546771E-02  0.1148082E+00
          5   -1    0    0  501    0  0.00000000000E+00  0.00000000000E+00  0.29759632028E+04  0.29759669142E+04  0.47000000000E+01 0. -1.
         -5   -1    0    0    0  501 -0.00000000000E+00 -0.00000000000E+00 -0.15119757321E+02  0.15833415975E+02  0.47000000000E+01 0. -1.
         25    2    1    2    0    0 -0.15573583463E+03 -0.30239482889E+02  0.97425205586E+03  0.99496884824E+03  0.12501145592E+03 0.  0.
         25    2    1    2    0    0  0.15573583463E+03  0.30239482889E+02  0.19865913896E+04  0.19968314819E+04  0.12499016530E+03 0.  0.
          5    1    3    3  502    0 -0.14039096396E+03 -0.19276189329E+02  0.96109795686E+03  0.97150016310E+03  0.47000000000E+01 0. -1.
         -5    1    3    3    0  502 -0.15344870668E+02 -0.10963293560E+02  0.13154099002E+02  0.23468685137E+02  0.47000000000E+01 0. -1.
          5    1    4    4  503    0  0.16487725567E+02 -0.12754752141E+02  0.92792751939E+03  0.92817352905E+03  0.47000000000E+01 0. -1.
         -5    1    4    4    0  503  0.13924810906E+03  0.42994235031E+02  0.10586638702E+04  0.10686579528E+04  0.47000000000E+01 0. -1.
<mgrwt>
<rscale>  0 0.20197676E+03</rscale>
<asrwt>0</asrwt>
<pdfrwt beam="1">  1        5 0.45789533E+00 0.20198005E+03</pdfrwt>
<pdfrwt beam="2">  1       -5 0.23813006E-02 0.20198005E+03</pdfrwt>
<totfact> 0.15353646E+00</totfact>
</mgrwt>
</event>
<event>
 8    1  0.1865596E-007  0.1384875E+03  0.7546771E-02  0.1215383E+00
         -5   -1    0    0    0  501 -0.00000000000E+00  0.00000000000E+00  0.56413177324E+03  0.56415135166E+03  0.47000000000E+01 0.  1.
          5   -1    0    0  501    0  0.00000000000E+00 -0.00000000000E+00 -0.35539701213E+02  0.35849133355E+02  0.47000000000E+01 0.  1.
         25    2    1    2    0    0  0.22640073430E+02 -0.55119650522E+02  0.33015132879E+03  0.35802051963E+03  0.12501217450E+03 0.  0.
         25    2    1    2    0    0 -0.22640073430E+02  0.55119650522E+02  0.19844074324E+03  0.24197996539E+03  0.12499930509E+03 0.  0.
          5    1    4    4  502    0  0.30060623751E+02 -0.11709882583E+02  0.12589929854E+03  0.13005185820E+03  0.47000000000E+01 0. -1.
         -5    1    4    4    0  502 -0.52700697182E+02  0.66829533104E+02  0.72541444700E+02  0.11192810718E+03  0.47000000000E+01 0. -1.
          5    1    3    3  503    0  0.18904884385E+02  0.26081681169E+02  0.21992584282E+02  0.39286289079E+02  0.47000000000E+01 0. -1.
         -5    1    3    3    0  503  0.37351890451E+01 -0.81201331691E+02  0.30815874451E+03  0.31873423055E+03  0.47000000000E+01 0. -1.
<mgrwt>
<rscale>  0 0.13848461E+03</rscale>
<asrwt>0</asrwt>
<pdfrwt beam="2">  1        5 0.54929549E-02 0.13848752E+03</pdfrwt>
<pdfrwt beam="1">  1       -5 0.86814811E-01 0.13848752E+03</pdfrwt>
<totfact> 0.18016529E+02</totfact>
</mgrwt>
</event>
<event>
 8    1  0.1865596E-007  0.1280226E+03  0.7546771E-02  0.1230424E+00
         -5   -1    0    0    0  501 -0.00000000000E+00  0.00000000000E+00  0.11501247565E+03  0.11510846865E+03  0.47000000000E+01 0. -1.
          5   -1    0    0  501    0  0.00000000000E+00 -0.00000000000E+00 -0.17209580156E+03  0.17215996897E+03  0.47000000000E+01 0. -1.
         25    2    1    2    0    0  0.58250617365E+01 -0.27033564133E+02  0.31196085349E+02  0.13176870876E+03  0.12500020774E+03 0.  0.
         25    2    1    2    0    0 -0.58250617365E+01  0.27033564133E+02 -0.88279411264E+02  0.15549972886E+03  0.12498866464E+03 0.  0.
          5    1    4    4  502    0 -0.38191837973E+02 -0.21967974561E+02 -0.85762115970E+02  0.96532061667E+02  0.47000000000E+01 0.  1.
         -5    1    4    4    0  502  0.32366776236E+02  0.49001538694E+02 -0.25172952945E+01  0.58967667190E+02  0.47000000000E+01 0.  1.
          5    1    3    3  503    0  0.58118546001E+01  0.21021881945E+02  0.67671949769E+02  0.71255034629E+02  0.47000000000E+01 0. -1.
         -5    1    3    3    0  503  0.13207136445E-01 -0.48055446078E+02 -0.36475864420E+02  0.60513674135E+02  0.47000000000E+01 0. -1.
<mgrwt>
<rscale>  0 0.12801982E+03</rscale>
<asrwt>0</asrwt>
<pdfrwt beam="2">  1        5 0.26488597E-01 0.12802264E+03</pdfrwt>
<pdfrwt beam="1">  1       -5 0.17706547E-01 0.12802264E+03</pdfrwt>
<totfact> 0.27984534E+02</totfact>
</mgrwt>
</event>
<event>
 8    1  0.1865596E-007  0.1502952E+03  0.7546771E-02  0.1200111E+00
          5   -1    0    0  501    0  0.00000000000E+00  0.00000000000E+00  0.72002410734E+02  0.72155645320E+02  0.47000000000E+01 0. -1.
         -5   -1    0    0    0  501 -0.00000000000E+00 -0.00000000000E+00 -0.32753703628E+03  0.32757075592E+03  0.47000000000E+01 0. -1.
         25    2    1    2    0    0 -0.66440718451E+02  0.50486018719E+02 -0.16955025452E+03  0.22657431876E+03  0.12500170382E+03 0.  0.
         25    2    1    2    0    0  0.66440718451E+02 -0.50486018719E+02 -0.85984371025E+02  0.17315208248E+03  0.12500049781E+03 0.  0.
          5    1    3    3  502    0 -0.52536251046E+02 -0.33664612744E+02 -0.91601170295E+02  0.11093344052E+03  0.47000000000E+01 0. -1.
         -5    1    3    3    0  502 -0.13904467405E+02  0.84150631463E+02 -0.77949084226E+02  0.11564087824E+03  0.47000000000E+01 0. -1.
          5    1    4    4  503    0  0.35264541146E+02 -0.66679870799E+02 -0.10770946644E+03  0.13157968001E+03  0.47000000000E+01 0. -1.
         -5    1    4    4    0  503  0.31176177305E+02  0.16193852080E+02  0.21725095410E+02  0.41572402471E+02  0.47000000000E+01 0. -1.
<mgrwt>
<rscale>  0 0.15029490E+03</rscale>
<asrwt>0</asrwt>
<pdfrwt beam="1">  1        5 0.11091675E-01 0.15029515E+03</pdfrwt>
<pdfrwt beam="2">  1       -5 0.50404694E-01 0.15029515E+03</pdfrwt>
<totfact> 0.18686408E+02</totfact>
</mgrwt>
</event>
<event>
 8    1  0.1865596E-007  0.1368213E+03  0.7546771E-02  0.1217677E+00
         -5   -1    0    0    0  501 -0.00000000000E+00  0.00000000000E+00  0.18558777065E+03  0.18564727473E+03  0.47000000000E+01 0.  1.
          5   -1    0    0  501    0  0.00000000000E+00 -0.00000000000E+00 -0.11041794024E+03  0.11051792401E+03  0.47000000000E+01 0.  1.
         25    2    1    2    0    0  0.53412534593E+02 -0.15571849601E+02  0.81423246522E+02  0.15920104278E+03  0.12497938069E+03 0.  0.
         25    2    1    2    0    0 -0.53412534593E+02  0.15571849601E+02 -0.62534161115E+01  0.13696415595E+03  0.12499877380E+03 0.  0.
          5    1    4    4  502    0 -0.13593424169E+02 -0.37961149563E+02  0.38933254733E+02  0.56246941081E+02  0.47000000000E+01 0. -1.
         -5    1    4    4    0  502 -0.39819110425E+02  0.53532999164E+02 -0.45186670845E+02  0.80717214871E+02  0.47000000000E+01 0. -1.
          5    1    3    3  503    0  0.91492458175E+02 -0.17610685064E+01  0.36778324954E+02  0.98735537937E+02  0.47000000000E+01 0.  1.
         -5    1    3    3    0  503 -0.38079923582E+02 -0.13810781095E+02  0.44644921568E+02  0.60465504846E+02  0.47000000000E+01 0.  1.
<mgrwt>
<rscale>  0 0.13681689E+03</rscale>
<asrwt>0</asrwt>
<pdfrwt beam="2">  1        5 0.16999644E-01 0.13682132E+03</pdfrwt>
<pdfrwt beam="1">  1       -5 0.28564233E-01 0.13682132E+03</pdfrwt>
<totfact> 0.26673380E+02</totfact>
</mgrwt>
</event>
<event>
 8    1  0.1865596E-007  0.1714623E+03  0.7546771E-02  0.1176332E+00
          5   -1    0    0  501    0  0.00000000000E+00  0.00000000000E+00  0.66085504173E+03  0.66087175472E+03  0.47000000000E+01 0.  1.
         -5   -1    0    0    0  501 -0.00000000000E+00 -0.00000000000E+00 -0.62208297222E+02  0.62385593234E+02  0.47000000000E+01 0.  1.
         25    2    1    2    0    0 -0.30588727723E+02  0.11330893111E+03  0.10589664320E+03  0.20152769792E+03  0.12499891941E+03 0.  0.
         25    2    1    2    0    0  0.30588727723E+02 -0.11330893111E+03  0.49275010131E+03  0.52172965003E+03  0.12499832498E+03 0.  0.
          5    1    3    3  502    0  0.45013037965E+02  0.26461332518E+02  0.53601684110E+02  0.74977371552E+02  0.47000000000E+01 0. -1.
         -5    1    3    3    0  502 -0.75601765688E+02  0.86847598597E+02  0.52294959087E+02  0.12655032636E+03  0.47000000000E+01 0. -1.
          5    1    4    4  503    0 -0.27853165781E+02 -0.22816363626E+02  0.28839958819E+03  0.29067644858E+03  0.47000000000E+01 0. -1.
         -5    1    4    4    0  503  0.58441893504E+02 -0.90492567488E+02  0.20435051312E+03  0.23105320145E+03  0.47000000000E+01 0. -1.
<mgrwt>
<rscale>  0 0.17146217E+03</rscale>
<asrwt>0</asrwt>
<pdfrwt beam="1">  1        5 0.10168494E+00 0.17146228E+03</pdfrwt>
<pdfrwt beam="2">  1       -5 0.95854305E-02 0.17146228E+03</pdfrwt>
<totfact> 0.50849205E+01</totfact>
</mgrwt>
</event>
<event>
 8    1  0.1865596E-007  0.1317464E+03  0.7546771E-02  0.1224889E+00
          5   -1    0    0  501    0  0.00000000000E+00  0.00000000000E+00  0.12964475116E+04  0.12964560310E+04  0.47000000000E+01 0. -1.
         -5   -1    0    0    0  501 -0.00000000000E+00 -0.00000000000E+00 -0.13314107028E+02  0.14119328807E+02  0.47000000000E+01 0. -1.
         25    2    1    2    0    0  0.12181006742E+02 -0.39822430247E+02  0.53878249873E+03  0.55465514067E+03  0.12498616426E+03 0.  0.
         25    2    1    2    0    0 -0.12181006742E+02  0.39822430247E+02  0.74435090582E+03  0.75592021912E+03  0.12499161495E+03 0.  0.
          5    1    4    4  502    0 -0.28204165077E+02  0.39183857966E+01  0.67827015424E+03  0.67888387873E+03  0.47000000000E+01 0. -1.
         -5    1    4    4    0  502  0.16023158335E+02  0.35904044450E+02  0.66080751580E+02  0.77036340387E+02  0.47000000000E+01 0. -1.
          5    1    3    3  503    0  0.17299345661E+02 -0.66656123820E+02  0.15266555564E+03  0.16754452567E+03  0.47000000000E+01 0. -1.
         -5    1    3    3    0  503 -0.51183389195E+01  0.26833693573E+02  0.38611694309E+03  0.38711061500E+03  0.47000000000E+01 0. -1.
<mgrwt>
<rscale>  0 0.13174508E+03</rscale>
<asrwt>0</asrwt>
<pdfrwt beam="1">  1        5 0.19951604E+00 0.13174637E+03</pdfrwt>
<pdfrwt beam="2">  1       -5 0.21109198E-02 0.13174637E+03</pdfrwt>
<totfact> 0.92608074E+01</totfact>
</mgrwt>
</event>
<event>
 8    1  0.1865596E-007  0.1352490E+03  0.7546771E-02  0.1219872E+00
          5   -1    0    0  501    0  0.00000000000E+00  0.00000000000E+00  0.16675602744E+03  0.16682224878E+03  0.47000000000E+01 0. -1.
         -5   -1    0    0    0  501 -0.00000000000E+00 -0.00000000000E+00 -0.11003423023E+03  0.11013456234E+03  0.47000000000E+01 0. -1.
         25    2    1    2    0    0  0.49276441253E+00 -0.51638087552E+02  0.19177111397E+02  0.13659334912E+03  0.12499298588E+03 0.  0.
         25    2    1    2    0    0 -0.49276441253E+00  0.51638087552E+02  0.37544685818E+02  0.14036346200E+03  0.12500225249E+03 0.  0.
          5    1    3    3  502    0  0.47431433510E+02 -0.22443210055E+02  0.50421177317E+02  0.72923409714E+02  0.47000000000E+01 0.  1.
         -5    1    3    3    0  502 -0.46938669098E+02 -0.29194877497E+02 -0.31244065919E+02  0.63669939406E+02  0.47000000000E+01 0.  1.
          5    1    4    4  503    0 -0.32828099306E+02 -0.58445178844E+01  0.61435750918E+02  0.70059146328E+02  0.47000000000E+01 0. -1.
         -5    1    4    4    0  503  0.32335334893E+02  0.57482605437E+02 -0.23891065100E+02  0.70304315671E+02  0.47000000000E+01 0. -1.
<mgrwt>
<rscale>  0 0.13524688E+03</rscale>
<asrwt>0</asrwt>
<pdfrwt beam="1">  1        5 0.25667585E-01 0.13524902E+03</pdfrwt>
<pdfrwt beam="2">  1       -5 0.16941155E-01 0.13524902E+03</pdfrwt>
<totfact> 0.32882928E+02</totfact>
</mgrwt>
</event>
<event>
 8    1  0.1865596E-007  0.1307993E+03  0.7546771E-02  0.1226276E+00
         -5   -1    0    0    0  501 -0.00000000000E+00  0.00000000000E+00  0.35616783971E+03  0.35619884902E+03  0.47000000000E+01 0.  1.
          5   -1    0    0  501    0  0.00000000000E+00 -0.00000000000E+00 -0.63439423046E+02  0.63613287892E+02  0.47000000000E+01 0.  1.
         25    2    1    2    0    0 -0.19308292832E+02  0.33336996851E+02  0.25011233231E+03  0.28224923012E+03  0.12499713437E+03 0.  0.
         25    2    1    2    0    0  0.19308292832E+02 -0.33336996851E+02  0.42616084353E+02  0.13756290679E+03  0.12499302839E+03 0.  0.
          5    1    3    3  502    0  0.30655715203E+02  0.51207006503E+02  0.59781939236E+02  0.84604377241E+02  0.47000000000E+01 0. -1.
         -5    1    3    3    0  502 -0.49964008034E+02 -0.17870009652E+02  0.19033039307E+03  0.19764485288E+03  0.47000000000E+01 0. -1.
          5    1    4    4  503    0 -0.11456700556E+02  0.38388153131E+02  0.43565130527E+02  0.59371010487E+02  0.47000000000E+01 0.  1.
         -5    1    4    4    0  503  0.30764993388E+02 -0.71725149983E+02 -0.94904617359E+00  0.78191896299E+02  0.47000000000E+01 0.  1.
<mgrwt>
<rscale>  0 0.13079829E+03</rscale>
<asrwt>0</asrwt>
<pdfrwt beam="2">  1        5 0.97756705E-02 0.13079927E+03</pdfrwt>
<pdfrwt beam="1">  1       -5 0.54810813E-01 0.13079927E+03</pdfrwt>
<totfact> 0.18606599E+02</totfact>
</mgrwt>
</event>
<event>
 8    1  0.1865596E-007  0.1420487E+03  0.7546771E-02  0.1210599E+00
          5   -1    0    0  501    0  0.00000000000E+00  0.00000000000E+00  0.12495164312E+03  0.12504000607E+03  0.47000000000E+01 0.  1.
         -5   -1    0    0    0  501 -0.00000000000E+00 -0.00000000000E+00 -0.16853053428E+03  0.16859605862E+03  0.47000000000E+01 0.  1.
         25    2    1    2    0    0  0.65137133141E+02 -0.17616239671E+02 -0.52180665018E+02  0.15132719877E+03  0.12499568502E+03 0.  0.
         25    2    1    2    0    0 -0.65137133141E+02  0.17616239671E+02  0.86017738587E+01  0.14230886592E+03  0.12499857916E+03 0.  0.
          5    1    4    4  502    0 -0.49611300438E+02 -0.21842435075E+02  0.56313272001E+02  0.78304838322E+02  0.47000000000E+01 0. -1.
         -5    1    4    4    0  502 -0.15525832702E+02  0.39458674745E+02 -0.47711498142E+02  0.64004027598E+02  0.47000000000E+01 0. -1.
          5    1    3    3  503    0 -0.27049787055E+02  0.24000714052E+02  0.19364373289E+01  0.36518009862E+02  0.47000000000E+01 0. -1.
         -5    1    3    3    0  503  0.92186920196E+02 -0.41616953723E+02 -0.54117102347E+02  0.11480918891E+03  0.47000000000E+01 0. -1.
<mgrwt>
<rscale>  0 0.14204803E+03</rscale>
<asrwt>0</asrwt>
<pdfrwt beam="1">  1        5 0.19235167E-01 0.14204866E+03</pdfrwt>
<pdfrwt beam="2">  1       -5 0.25939612E-01 0.14204866E+03</pdfrwt>
<totfact> 0.25921805E+02</totfact>
</mgrwt>
</event>
<event>
 8    1  0.1865596E-007  0.1695212E+03  0.7546771E-02  0.1178350E+00
          5   -1    0    0  501    0  0.00000000000E+00  0.00000000000E+00  0.89532880073E+03  0.89534113689E+03  0.47000000000E+01 0.  1.
         -5   -1    0    0    0  501 -0.00000000000E+00 -0.00000000000E+00 -0.40245282829E+02  0.40518795515E+02  0.47000000000E+01 0.  1.
         25    2    1    2    0    0  0.11438906886E+03 -0.49325951324E+01  0.21543652596E+03  0.27413059519E+03  0.12500198773E+03 0.  0.
         25    2    1    2    0    0 -0.11438906886E+03  0.49325951324E+01  0.63964699194E+03  0.66172933721E+03  0.12501300675E+03 0.  0.
          5    1    4    4  502    0 -0.87291741302E+02  0.21533185139E+02  0.18293763615E+03  0.20389162534E+03  0.47000000000E+01 0. -1.
         -5    1    4    4    0  502 -0.27097327561E+02 -0.16600590006E+02  0.45670935579E+03  0.45783771188E+03  0.47000000000E+01 0. -1.
          5    1    3    3  503    0  0.12916232565E+03  0.27928898642E+02  0.15638295657E+03  0.20479416215E+03  0.47000000000E+01 0.  1.
         -5    1    3    3    0  503 -0.14773256790E+02 -0.32861493774E+02  0.59053569388E+02  0.69336433040E+02  0.47000000000E+01 0.  1.
<mgrwt>
<rscale>  0 0.16951918E+03</rscale>
<asrwt>0</asrwt>
<pdfrwt beam="1">  1        5 0.13776489E+00 0.16952121E+03</pdfrwt>
<pdfrwt beam="2">  1       -5 0.62135700E-02 0.16952121E+03</pdfrwt>
<totfact> 0.49147868E+01</totfact>
</mgrwt>
</event>
<event>
 8    1  0.1865596E-007  0.1322201E+03  0.7546771E-02  0.1224201E+00
         -5   -1    0    0    0  501 -0.00000000000E+00  0.00000000000E+00  0.97633234778E+03  0.97634366046E+03  0.47000000000E+01 0. -1.
          5   -1    0    0  501    0  0.00000000000E+00 -0.00000000000E+00 -0.18432131671E+02  0.19021920984E+02  0.47000000000E+01 0. -1.
         25    2    1    2    0    0 -0.43062274937E+02  0.58008448275E+00  0.58392674370E+03  0.59870911732E+03  0.12500987615E+03 0.  0.
         25    2    1    2    0    0  0.43062274937E+02 -0.58008448275E+00  0.37397347241E+03  0.39665646412E+03  0.12500198576E+03 0.  0.
          5    1    4    4  502    0 -0.10271508765E+02 -0.55934645423E+01 -0.52389862241E+01  0.13650191008E+02  0.47000000000E+01 0.  1.
         -5    1    4    4    0  502  0.53333783702E+02  0.50133800596E+01  0.37921245863E+03  0.38300627312E+03  0.47000000000E+01 0.  1.
          5    1    3    3  503    0 -0.84509542074E+02 -0.17332630034E+02  0.35934779162E+03  0.36958788956E+03  0.47000000000E+01 0. -1.
         -5    1    3    3    0  503  0.41447267137E+02  0.17912714517E+02  0.22457895208E+03  0.22912122776E+03  0.47000000000E+01 0. -1.
<mgrwt>
<rscale>  0 0.13221827E+03</rscale>
<asrwt>0</asrwt>
<pdfrwt beam="2">  1        5 0.28819509E-02 0.13222014E+03</pdfrwt>
<pdfrwt beam="1">  1       -5 0.15025123E+00 0.13222014E+03</pdfrwt>
<totfact> 0.12816666E+02</totfact>
</mgrwt>
</event>
<event>
 8    1  0.1865596E-007  0.1317508E+03  0.7546771E-02  0.1224899E+00
         -5   -1    0    0    0  501 -0.00000000000E+00  0.00000000000E+00  0.62995787884E+02  0.63170873756E+02  0.47000000000E+01 0.  1.
          5   -1    0    0  501    0  0.00000000000E+00 -0.00000000000E+00 -0.27536543085E+03  0.27540553826E+03  0.47000000000E+01 0.  1.
         25    2    1    2    0    0  0.23097430894E+02 -0.34420948768E+02 -0.11337401496E+03  0.17377830511E+03  0.12500775588E+03 0.  0.
         25    2    1    2    0    0 -0.23097430894E+02  0.34420948768E+02 -0.98995628007E+02  0.16479810691E+03  0.12505994022E+03 0.  0.
          5    1    4    4  502    0  0.25449800702E+02 -0.32082652401E+02 -0.79984355660E+01  0.41988735541E+02  0.47000000000E+01 0.  1.
         -5    1    4    4    0  502 -0.48547231596E+02  0.66503601169E+02 -0.90997192441E+02  0.12280937137E+03  0.47000000000E+01 0.  1.
          5    1    3    3  503    0  0.42241542507E+02 -0.58235872423E+02 -0.19126679029E+02  0.74590110611E+02  0.47000000000E+01 0.  1.
         -5    1    3    3    0  503 -0.19144111613E+02  0.23814923655E+02 -0.94247335930E+02  0.99188194499E+02  0.47000000000E+01 0.  1.
<mgrwt>
<rscale>  0 0.13173845E+03</rscale>
<asrwt>0</asrwt>
<pdfrwt beam="2">  1        5 0.42380465E-01 0.13175083E+03</pdfrwt>
<pdfrwt beam="1">  1       -5 0.97082132E-02 0.13175083E+03</pdfrwt>
<totfact> 0.32447772E+02</totfact>
</mgrwt>
</event>
<event>
 8    1  0.1865596E-007  0.1254598E+03  0.7546771E-02  0.1234355E+00
          5   -1    0    0  501    0  0.00000000000E+00  0.00000000000E+00  0.12586036074E+03  0.12594808615E+03  0.47000000000E+01 0.  1.
         -5   -1    0    0    0  501 -0.00000000000E+00 -0.00000000000E+00 -0.15851143939E+03  0.15858110360E+03  0.47000000000E+01 0.  1.
         25    2    1    2    0    0 -0.10452010266E+02 -0.22216656224E+01 -0.81822739777E+02  0.14977755158E+03  0.12499669554E+03 0.  0.
         25    2    1    2    0    0  0.10452010266E+02  0.22216656224E+01  0.49171661123E+02  0.13475163817E+03  0.12500388560E+03 0.  0.
          5    1    4    4  502    0  0.49832711933E+02  0.42933359419E+02  0.12519966789E+02  0.67122366600E+02  0.47000000000E+01 0.  1.
         -5    1    4    4    0  502 -0.39380701667E+02 -0.40711693796E+02  0.36651694334E+02  0.67629271570E+02  0.47000000000E+01 0.  1.
          5    1    3    3  503    0 -0.13648952496E+02  0.60160174275E+02 -0.31489465018E+02  0.69420579659E+02  0.47000000000E+01 0. -1.
         -5    1    3    3    0  503  0.31969422303E+01 -0.62381839898E+02 -0.50333274760E+02  0.80356971923E+02  0.47000000000E+01 0. -1.
<mgrwt>
<rscale>  0 0.12545797E+03</rscale>
<asrwt>0</asrwt>
<pdfrwt beam="1">  1        5 0.19375239E-01 0.12545976E+03</pdfrwt>
<pdfrwt beam="2">  1       -5 0.24398482E-01 0.12545976E+03</pdfrwt>
<totfact> 0.27535088E+02</totfact>
</mgrwt>
</event>
<event>
 8    1  0.1865596E-007  0.1522521E+03  0.7546771E-02  0.1197741E+00
          5   -1    0    0  501    0  0.00000000000E+00  0.00000000000E+00  0.61058186905E+03  0.61059995808E+03  0.47000000000E+01 0.  1.
         -5   -1    0    0    0  501 -0.00000000000E+00 -0.00000000000E+00 -0.42070118429E+02  0.42331842207E+02  0.47000000000E+01 0.  1.
         25    2    1    2    0    0 -0.64698325775E+01  0.86675114875E+02  0.18055842410E+03  0.23618225986E+03  0.12500512426E+03 0.  0.
         25    2    1    2    0    0  0.64698325775E+01 -0.86675114875E+02  0.38795332652E+03  0.41674954042E+03  0.12497184328E+03 0.  0.
          5    1    3    3  502    0 -0.59895956561E+02  0.76230937070E+02  0.10569675059E+03  0.14350113053E+03  0.47000000000E+01 0. -1.
         -5    1    3    3    0  502  0.53426123984E+02  0.10444177804E+02  0.74861673510E+02  0.92681129334E+02  0.47000000000E+01 0. -1.
          5    1    4    4  503    0  0.43430961628E+02  0.96357804349E+01  0.76463363760E+02  0.88587994051E+02  0.47000000000E+01 0.  1.
         -5    1    4    4    0  503 -0.36961129050E+02 -0.96310895309E+02  0.31148996276E+03  0.32816154637E+03  0.47000000000E+01 0.  1.
<mgrwt>
<rscale>  0 0.15224531E+03</rscale>
<asrwt>0</asrwt>
<pdfrwt beam="1">  1        5 0.93957188E-01 0.15225214E+03</pdfrwt>
<pdfrwt beam="2">  1       -5 0.64938505E-02 0.15225214E+03</pdfrwt>
<totfact> 0.11615784E+02</totfact>
</mgrwt>
</event>
<event>
 8    1  0.1865596E-007  0.1258177E+03  0.7546771E-02  0.1233798E+00
          5   -1    0    0  501    0  0.00000000000E+00  0.00000000000E+00  0.34997146809E+03  0.35000302638E+03  0.47000000000E+01 0. -1.
         -5   -1    0    0    0  501 -0.00000000000E+00 -0.00000000000E+00 -0.80415489915E+02  0.80552721980E+02  0.47000000000E+01 0. -1.
         25    2    1    2    0    0  0.69297328914E+01 -0.12516724338E+02 -0.77391580494E+01  0.12605172885E+03  0.12499781675E+03 0.  0.
         25    2    1    2    0    0 -0.69297328914E+01  0.12516724338E+02  0.27729513622E+03  0.30450401951E+03  0.12500166295E+03 0.  0.
          5    1    4    4  502    0 -0.58016066062E+00 -0.63005642454E+01 -0.12072470889E+02  0.14417636754E+02  0.47000000000E+01 0.  1.
         -5    1    4    4    0  502 -0.63495722308E+01  0.18817288584E+02  0.28936760711E+03  0.29008638276E+03  0.47000000000E+01 0.  1.
          5    1    3    3  503    0  0.56414148510E+02 -0.38407486539E+02  0.49488606483E+01  0.68587698577E+02  0.47000000000E+01 0.  1.
         -5    1    3    3    0  503 -0.49484415619E+02  0.25890762200E+02 -0.12688018698E+02  0.57464030270E+02  0.47000000000E+01 0.  1.
<mgrwt>
<rscale>  0 0.12581679E+03</rscale>
<asrwt>0</asrwt>
<pdfrwt beam="1">  1        5 0.53854747E-01 0.12581775E+03</pdfrwt>
<pdfrwt beam="2">  1       -5 0.12384598E-01 0.12581775E+03</pdfrwt>
<totfact> 0.12578634E+02</totfact>
</mgrwt>
</event>
<event>
 8    1  0.1865596E-007  0.1282020E+03  0.7546771E-02  0.1230149E+00
          5   -1    0    0  501    0  0.00000000000E+00  0.00000000000E+00  0.14050099193E+03  0.14057958150E+03  0.47000000000E+01 0. -1.
         -5   -1    0    0    0  501 -0.00000000000E+00 -0.00000000000E+00 -0.13057213067E+03  0.13065669255E+03  0.47000000000E+01 0. -1.
         25    2    1    2    0    0 -0.22091674022E+02  0.17950070056E+02 -0.39019140802E+02  0.13400836596E+03  0.12500200687E+03 0.  0.
         25    2    1    2    0    0  0.22091674022E+02 -0.17950070056E+02  0.48948002066E+02  0.13722790809E+03  0.12500137909E+03 0.  0.
          5    1    3    3  502    0 -0.20365966442E+01  0.45362177220E+02 -0.72764785763E+02  0.85899236872E+02  0.47000000000E+01 0. -1.
         -5    1    3    3    0  502 -0.20055077378E+02 -0.27412107164E+02  0.33745644961E+02  0.48109129088E+02  0.47000000000E+01 0. -1.
          5    1    4    4  503    0 -0.51589197593E+02  0.84259607389E+00  0.16003074356E+02  0.54224935825E+02  0.47000000000E+01 0.  1.
         -5    1    4    4    0  503  0.73680871615E+02 -0.18792666130E+02  0.32944927710E+02  0.83002972260E+02  0.47000000000E+01 0.  1.
<mgrwt>
<rscale>  0 0.12820183E+03</rscale>
<asrwt>0</asrwt>
<pdfrwt beam="1">  1        5 0.21628087E-01 0.12820198E+03</pdfrwt>
<pdfrwt beam="2">  1       -5 0.20100570E-01 0.12820198E+03</pdfrwt>
<totfact> 0.32564669E+02</totfact>
</mgrwt>
</event>
<event>
 8    1  0.1865596E-007  0.1341721E+03  0.7546771E-02  0.1221393E+00
          5   -1    0    0  501    0  0.00000000000E+00  0.00000000000E+00  0.19225679331E+03  0.19231423394E+03  0.47000000000E+01 0. -1.
         -5   -1    0    0    0  501 -0.00000000000E+00 -0.00000000000E+00 -0.20470246378E+03  0.20475641304E+03  0.47000000000E+01 0. -1.
         25    2    1    2    0    0 -0.47248135367E+02 -0.11964738771E+02 -0.15249828249E+03  0.20311992454E+03  0.12500574513E+03 0.  0.
         25    2    1    2    0    0  0.47248135367E+02  0.11964738771E+02  0.14005261201E+03  0.19395072243E+03  0.12500642915E+03 0.  0.
          5    1    3    3  502    0 -0.84509847310E+02  0.16752985768E+02 -0.89053175939E+02  0.12399651192E+03  0.47000000000E+01 0. -1.
         -5    1    3    3    0  502  0.37261711943E+02 -0.28717724539E+02 -0.63445106547E+02  0.79123412619E+02  0.47000000000E+01 0. -1.
          5    1    4    4  503    0  0.70589653339E+02  0.45984733592E+02  0.12277760899E+03  0.14897626036E+03  0.47000000000E+01 0.  1.
         -5    1    4    4    0  503 -0.23341517972E+02 -0.34019994821E+02  0.17275003022E+02  0.44974462067E+02  0.47000000000E+01 0.  1.
<mgrwt>
<rscale>  0 0.13417193E+03</rscale>
<asrwt>0</asrwt>
<pdfrwt beam="1">  1        5 0.29586537E-01 0.13417209E+03</pdfrwt>
<pdfrwt beam="2">  1       -5 0.31501255E-01 0.13417209E+03</pdfrwt>
<totfact> 0.76655966E+01</totfact>
</mgrwt>
</event>
<event>
 8    1  0.1865596E-007  0.1298800E+03  0.7546771E-02  0.1227641E+00
         -5   -1    0    0    0  501 -0.00000000000E+00  0.00000000000E+00  0.11318494605E+03  0.11328248766E+03  0.47000000000E+01 0. -1.
          5   -1    0    0  501    0  0.00000000000E+00 -0.00000000000E+00 -0.17453988742E+03  0.17460315662E+03  0.47000000000E+01 0. -1.
         25    2    1    2    0    0  0.35133816473E+02 -0.30401059360E+01  0.24555760339E+02  0.13216324169E+03  0.12498203784E+03 0.  0.
         25    2    1    2    0    0 -0.35133816473E+02  0.30401059360E+01 -0.85910701717E+02  0.15572240260E+03  0.12500076279E+03 0.  0.
          5    1    4    4  502    0 -0.76356459756E+02 -0.77264145721E+00 -0.22313326021E+02  0.79692411430E+02  0.47000000000E+01 0. -1.
         -5    1    4    4    0  502  0.41222643283E+02  0.38127473933E+01 -0.63597375696E+02  0.76029991170E+02  0.47000000000E+01 0. -1.
          5    1    3    3  503    0  0.23560608817E+02 -0.57249313234E+02 -0.15038839818E+02  0.63881475066E+02  0.47000000000E+01 0. -1.
         -5    1    3    3    0  503  0.11573207656E+02  0.54209207298E+02  0.39594600156E+02  0.68281766621E+02  0.47000000000E+01 0. -1.
<mgrwt>
<rscale>  0 0.12987551E+03</rscale>
<asrwt>0</asrwt>
<pdfrwt beam="2">  1        5 0.26864661E-01 0.12988001E+03</pdfrwt>
<pdfrwt beam="1">  1       -5 0.17425439E-01 0.12988001E+03</pdfrwt>
<totfact> 0.28193626E+02</totfact>
</mgrwt>
</event>
<event>
 8    1  0.1865596E-007  0.1297592E+03  0.7546771E-02  0.1227817E+00
          5   -1    0    0  501    0  0.00000000000E+00  0.00000000000E+00  0.66032532529E+01  0.81051189703E+01  0.47000000000E+01 0. -1.
         -5   -1    0    0    0  501 -0.00000000000E+00 -0.00000000000E+00 -0.22960873754E+04  0.22960921857E+04  0.47000000000E+01 0. -1.
         25    2    1    2    0    0  0.34799965993E+02  0.56552942936E+00 -0.12138088843E+04  0.12207249727E+04  0.12500437582E+03 0.  0.
         25    2    1    2    0    0 -0.34799965993E+02 -0.56552942936E+00 -0.10756752379E+04  0.10834723320E+04  0.12499487761E+03 0.  0.
          5    1    3    3  502    0 -0.47105419921E+02 -0.45352863255E+01 -0.43993110418E+03  0.44249401785E+03  0.47000000000E+01 0.  1.
         -5    1    3    3    0  502  0.81905385914E+02  0.51008157549E+01 -0.77387778008E+03  0.77823095484E+03  0.47000000000E+01 0.  1.
          5    1    4    4  503    0 -0.29135486493E+02 -0.29760895492E+02 -0.10137431617E+04  0.10146092229E+04  0.47000000000E+01 0. -1.
         -5    1    4    4    0  503 -0.56644795001E+01  0.29195366063E+02 -0.61932076204E+02  0.68863109068E+02  0.47000000000E+01 0. -1.
<mgrwt>
<rscale>  0 0.12975692E+03</rscale>
<asrwt>0</asrwt>
<pdfrwt beam="1">  1        5 0.11317851E-02 0.12975921E+03</pdfrwt>
<pdfrwt beam="2">  1       -5 0.35335954E+00 0.12975921E+03</pdfrwt>
<totfact> 0.25360146E+01</totfact>
</mgrwt>
</event>
<event>
 8    1  0.1865596E-007  0.1599662E+03  0.7546771E-02  0.1188749E+00
          5   -1    0    0  501    0  0.00000000000E+00  0.00000000000E+00  0.54229594682E+03  0.54231631355E+03  0.47000000000E+01 0.  1.
         -5   -1    0    0    0  501 -0.00000000000E+00 -0.00000000000E+00 -0.55021709192E+02  0.55222083286E+02  0.47000000000E+01 0.  1.
         25    2    1    2    0    0 -0.97835174074E+02 -0.19567413283E+02  0.13001609476E+03  0.20610186961E+03  0.12497676109E+03 0.  0.
         25    2    1    2    0    0  0.97835174074E+02  0.19567413283E+02  0.35725814287E+03  0.39143652722E+03  0.12503827112E+03 0.  0.
          5    1    3    3  502    0  0.18255004897E+02  0.19984797433E+02  0.57042793184E+02  0.63313565580E+02  0.47000000000E+01 0. -1.
         -5    1    3    3    0  502 -0.11609017897E+03 -0.39552210716E+02  0.72973301572E+02  0.14278830403E+03  0.47000000000E+01 0. -1.
          5    1    4    4  503    0 -0.23212807946E+02  0.20762164028E+02  0.13159457245E+03  0.13531120946E+03  0.47000000000E+01 0.  1.
         -5    1    4    4    0  503  0.12104798202E+03 -0.11947507450E+01  0.22566357042E+03  0.25612531776E+03  0.47000000000E+01 0.  1.
<mgrwt>
<rscale>  0 0.15995415E+03</rscale>
<asrwt>0</asrwt>
<pdfrwt beam="1">  1        5 0.83447126E-01 0.15996617E+03</pdfrwt>
<pdfrwt beam="2">  1       -5 0.84818584E-02 0.15996617E+03</pdfrwt>
<totfact> 0.98993051E+01</totfact>
</mgrwt>
</event>
<event>
 8    1  0.1865596E-007  0.1264991E+03  0.7546771E-02  0.1232748E+00
         -5   -1    0    0    0  501 -0.00000000000E+00  0.00000000000E+00  0.22140530469E+03  0.22145518496E+03  0.47000000000E+01 0. -1.
          5   -1    0    0  501    0  0.00000000000E+00 -0.00000000000E+00 -0.76820175065E+02  0.76963818103E+02  0.47000000000E+01 0. -1.
         25    2    1    2    0    0 -0.48845061739E+00  0.19425062581E+02  0.10909380239E+03  0.16704332889E+03  0.12499777745E+03 0.  0.
         25    2    1    2    0    0  0.48845061739E+00 -0.19425062581E+02  0.35491327232E+02  0.13137567417E+03  0.12498944681E+03 0.  0.
          5    1    3    3  502    0  0.17781063214E+02  0.67652567972E+02  0.40063975862E+02  0.80748054615E+02  0.47000000000E+01 0.  1.
         -5    1    3    3    0  502 -0.18269513831E+02 -0.48227505391E+02  0.69029826531E+02  0.86295274278E+02  0.47000000000E+01 0.  1.
          5    1    4    4  503    0  0.38919517100E+02  0.13815432756E+02  0.61399978028E+02  0.74146087525E+02  0.47000000000E+01 0.  1.
         -5    1    4    4    0  503 -0.38431066482E+02 -0.33240495337E+02 -0.25908650796E+02  0.57229586642E+02  0.47000000000E+01 0.  1.
<mgrwt>
<rscale>  0 0.12649702E+03</rscale>
<asrwt>0</asrwt>
<pdfrwt beam="2">  1        5 0.11833375E-01 0.12649908E+03</pdfrwt>
<pdfrwt beam="1">  1       -5 0.34077240E-01 0.12649908E+03</pdfrwt>
<totfact> 0.35151724E+02</totfact>
</mgrwt>
</event>
<event>
 8    1  0.1865596E-007  0.1290864E+03  0.7546771E-02  0.1228819E+00
          5   -1    0    0  501    0  0.00000000000E+00  0.00000000000E+00  0.37838756779E+03  0.37841675631E+03  0.47000000000E+01 0.  1.
         -5   -1    0    0    0  501 -0.00000000000E+00 -0.00000000000E+00 -0.48042361539E+02  0.48271715343E+02  0.47000000000E+01 0.  1.
         25    2    1    2    0    0 -0.28694138162E+02 -0.14666671639E+02  0.10255090158E+03  0.16486354967E+03  0.12499935109E+03 0.  0.
         25    2    1    2    0    0  0.28694138162E+02  0.14666671639E+02  0.22779430467E+03  0.26182492199E+03  0.12499431872E+03 0.  0.
          5    1    4    4  502    0  0.63351362541E+02 -0.15069399570E+00  0.21088877809E+03  0.22024891502E+03  0.47000000000E+01 0.  1.
         -5    1    4    4    0  502 -0.34657224379E+02  0.14817365635E+02  0.16905526576E+02  0.41576006961E+02  0.47000000000E+01 0.  1.
          5    1    3    3  503    0 -0.37896718003E+01 -0.15652109224E+02  0.12790528277E+03  0.12900078099E+03  0.47000000000E+01 0. -1.
         -5    1    3    3    0  503 -0.24904466361E+02  0.98543758460E+00 -0.25354381187E+02  0.35862768679E+02  0.47000000000E+01 0. -1.
<mgrwt>
<rscale>  0 0.12908520E+03</rscale>
<asrwt>0</asrwt>
<pdfrwt beam="1">  1        5 0.58233361E-01 0.12908642E+03</pdfrwt>
<pdfrwt beam="2">  1       -5 0.74110202E-02 0.12908642E+03</pdfrwt>
<totfact> 0.26166781E+02</totfact>
</mgrwt>
</event>
<event>
 8    1  0.1865596E-007  0.1442214E+03  0.7546771E-02  0.1207762E+00
         -5   -1    0    0    0  501 -0.00000000000E+00  0.00000000000E+00  0.85864310536E+03  0.85865596858E+03  0.47000000000E+01 0.  1.
          5   -1    0    0  501    0  0.00000000000E+00 -0.00000000000E+00 -0.33102866181E+02  0.33434858298E+02  0.47000000000E+01 0.  1.
         25    2    1    2    0    0 -0.65077561001E+02  0.30603735914E+02  0.64547799150E+03  0.66139141912E+03  0.12500037668E+03 0.  0.
         25    2    1    2    0    0  0.65077561001E+02 -0.30603735914E+02  0.18006224768E+03  0.23069940776E+03  0.12501250380E+03 0.  0.
          5    1    4    4  502    0  0.27223677216E+02  0.20717338696E+02 -0.50088814360E+01  0.34892916431E+02  0.47000000000E+01 0. -1.
         -5    1    4    4    0  502  0.37853883785E+02 -0.51321074610E+02  0.18507112911E+03  0.19580649133E+03  0.47000000000E+01 0. -1.
          5    1    3    3  503    0 -0.32120429965E+02  0.28501365110E+02  0.54833806230E+02  0.69806060911E+02  0.47000000000E+01 0.  1.
         -5    1    3    3    0  503 -0.32957131037E+02  0.21023708045E+01  0.59064418527E+03  0.59158535821E+03  0.47000000000E+01 0.  1.
<mgrwt>
<rscale>  0 0.14421874E+03</rscale>
<asrwt>0</asrwt>
<pdfrwt beam="2">  1        5 0.51192761E-02 0.14422137E+03</pdfrwt>
<pdfrwt beam="1">  1       -5 0.13212546E+00 0.14422137E+03</pdfrwt>
<totfact> 0.72486995E+01</totfact>
</mgrwt>
</event>
<event>
 8    1  0.1865596E-007  0.1299228E+03  0.7546771E-02  0.1227573E+00
         -5   -1    0    0    0  501 -0.00000000000E+00  0.00000000000E+00  0.28170686245E+03  0.28174606714E+03  0.47000000000E+01 0. -1.
          5   -1    0    0  501    0  0.00000000000E+00 -0.00000000000E+00 -0.12095684617E+03  0.12104812529E+03  0.47000000000E+01 0. -1.
         25    2    1    2    0    0  0.27021828570E+02  0.22847681599E+02  0.22349655106E+03  0.25851298493E+03  0.12500423698E+03 0.  0.
         25    2    1    2    0    0 -0.27021828570E+02 -0.22847681599E+02 -0.62746534788E+02  0.14428120751E+03  0.12501097327E+03 0.  0.
          5    1    3    3  502    0 -0.30451072463E+02  0.12412514023E+02  0.66361575460E+01  0.33874280885E+02  0.47000000000E+01 0.  1.
         -5    1    3    3    0  502  0.57472901033E+02  0.10435167576E+02  0.21686039352E+03  0.22463870404E+03  0.47000000000E+01 0.  1.
          5    1    4    4  503    0 -0.65063839552E+02 -0.40480003836E+02 -0.66970962103E+02  0.10187803342E+03  0.47000000000E+01 0.  1.
         -5    1    4    4    0  503  0.38042010982E+02  0.17632322237E+02  0.42244273147E+01  0.42403174093E+02  0.47000000000E+01 0.  1.
<mgrwt>
<rscale>  0 0.12992120E+03</rscale>
<asrwt>0</asrwt>
<pdfrwt beam="2">  1        5 0.18618783E-01 0.12992282E+03</pdfrwt>
<pdfrwt beam="1">  1       -5 0.43349554E-01 0.12992282E+03</pdfrwt>
<totfact> 0.95987761E+01</totfact>
</mgrwt>
</event>
<event>
 8    1  0.1865596E-007  0.1678875E+03  0.7546771E-02  0.1180069E+00
          5   -1    0    0  501    0  0.00000000000E+00  0.00000000000E+00  0.48797840293E+03  0.48800103660E+03  0.47000000000E+01 0. -1.
         -5   -1    0    0    0  501 -0.00000000000E+00 -0.00000000000E+00 -0.58135064157E+02  0.58324743330E+02  0.47000000000E+01 0. -1.
         25    2    1    2    0    0  0.97005030162E+02 -0.56129221147E+02  0.18978488819E+03  0.25338503442E+03  0.12500082616E+03 0.  0.
         25    2    1    2    0    0 -0.97005030162E+02  0.56129221147E+02  0.24005845058E+03  0.29294074551E+03  0.12500302132E+03 0.  0.
          5    1    3    3  502    0  0.23585074909E+02 -0.47091344267E+02  0.36131483158E+01  0.52999955699E+02  0.47000000000E+01 0.  1.
         -5    1    3    3    0  502  0.73419955253E+02 -0.90378768796E+01  0.18617173987E+03  0.20038507872E+03  0.47000000000E+01 0.  1.
          5    1    4    4  503    0 -0.44588313112E+02  0.14719898769E+02  0.37629542610E+01  0.47339654738E+02  0.47000000000E+01 0.  1.
         -5    1    4    4    0  503 -0.52416717050E+02  0.41409322378E+02  0.23629549632E+03  0.24560109077E+03  0.47000000000E+01 0.  1.
<mgrwt>
<rscale>  0 0.16788712E+03</rscale>
<asrwt>0</asrwt>
<pdfrwt beam="1">  1        5 0.75089932E-01 0.16788752E+03</pdfrwt>
<pdfrwt beam="2">  1       -5 0.89601878E-02 0.16788752E+03</pdfrwt>
<totfact> 0.11660767E+02</totfact>
</mgrwt>
</event>
<event>
 8    1  0.1865596E-007  0.1690425E+03  0.7546771E-02  0.1178852E+00
         -5   -1    0    0    0  501 -0.00000000000E+00  0.00000000000E+00  0.48191830405E+02  0.48420476224E+02  0.47000000000E+01 0.  1.
          5   -1    0    0  501    0  0.00000000000E+00 -0.00000000000E+00 -0.60357415287E+03  0.60359245192E+03  0.47000000000E+01 0.  1.
         25    2    1    2    0    0 -0.74489225492E+01  0.11355356991E+03 -0.32419510242E+03  0.36561654753E+03  0.12499238260E+03 0.  0.
         25    2    1    2    0    0  0.74489225492E+01 -0.11355356991E+03 -0.23118722005E+03  0.28639638062E+03  0.12500182571E+03 0.  0.
          5    1    3    3  502    0  0.38792241371E+02  0.10170652868E+03 -0.27977535861E+03  0.30024223096E+03  0.47000000000E+01 0.  1.
         -5    1    3    3    0  502 -0.46241163920E+02  0.11847041224E+02 -0.44419743810E+02  0.65374316567E+02  0.47000000000E+01 0.  1.
          5    1    4    4  503    0  0.26537385165E+02 -0.10624078031E+03 -0.23984696555E+03  0.26370436685E+03  0.47000000000E+01 0. -1.
         -5    1    4    4    0  503 -0.19088462616E+02 -0.73127896013E+01  0.86597455011E+01  0.22692013770E+02  0.47000000000E+01 0. -1.
<mgrwt>
<rscale>  0 0.16904072E+03</rscale>
<asrwt>0</asrwt>
<pdfrwt beam="2">  1        5 0.92876552E-01 0.16904247E+03</pdfrwt>
<pdfrwt beam="1">  1       -5 0.74331240E-02 0.16904247E+03</pdfrwt>
<totfact> 0.97934544E+01</totfact>
</mgrwt>
</event>
<event>
 8    1  0.1865596E-007  0.1333339E+03  0.7546771E-02  0.1222598E+00
         -5   -1    0    0    0  501 -0.00000000000E+00  0.00000000000E+00  0.84691428940E+02  0.84821743297E+02  0.47000000000E+01 0. -1.
          5   -1    0    0  501    0  0.00000000000E+00 -0.00000000000E+00 -0.21271706222E+03  0.21276897932E+03  0.47000000000E+01 0. -1.
         25    2    1    2    0    0 -0.24403441576E+02 -0.39418029904E+02 -0.45910925454E+02  0.14101682149E+03  0.12501448646E+03 0.  0.
         25    2    1    2    0    0  0.24403441576E+02  0.39418029904E+02 -0.82114707828E+02  0.15657390113E+03  0.12499300872E+03 0.  0.
          5    1    3    3  502    0 -0.44498717837E+02  0.29181370567E+02 -0.44239648921E+02  0.69360830546E+02  0.47000000000E+01 0. -1.
         -5    1    3    3    0  502  0.20095276261E+02 -0.68599400471E+02 -0.16712765332E+01  0.71655990945E+02  0.47000000000E+01 0. -1.
          5    1    4    4  503    0  0.22075697016E+02 -0.97035723099E+01 -0.10080500733E+03  0.10375565149E+03  0.47000000000E+01 0. -1.
         -5    1    4    4    0  503  0.23277445599E+01  0.49121602214E+02  0.18690299500E+02  0.52818249632E+02  0.47000000000E+01 0. -1.
<mgrwt>
<rscale>  0 0.13332887E+03</rscale>
<asrwt>0</asrwt>
<pdfrwt beam="2">  1        5 0.32739719E-01 0.13333391E+03</pdfrwt>
<pdfrwt beam="1">  1       -5 0.13043468E-01 0.13333391E+03</pdfrwt>
<totfact> 0.32641274E+02</totfact>
</mgrwt>
</event>
<event>
 8    1  0.1865596E-007  0.1308561E+03  0.7546771E-02  0.1226192E+00
         -5   -1    0    0    0  501 -0.00000000000E+00  0.00000000000E+00  0.49479435781E+02  0.49702158557E+02  0.47000000000E+01 0.  1.
          5   -1    0    0  501    0  0.00000000000E+00 -0.00000000000E+00 -0.44711396218E+03  0.44713866437E+03  0.47000000000E+01 0.  1.
         25    2    1    2    0    0  0.28302511623E+02 -0.26399704352E+02 -0.80154906057E+02  0.15345093330E+03  0.12499761362E+03 0.  0.
         25    2    1    2    0    0 -0.28302511623E+02  0.26399704352E+02 -0.31747962034E+03  0.34338988963E+03  0.12500132165E+03 0.  0.
          5    1    3    3  502    0 -0.29266394456E+02  0.25472845783E+02 -0.62692774062E+02  0.73877341833E+02  0.47000000000E+01 0. -1.
         -5    1    3    3    0  502  0.57568906079E+02 -0.51872550134E+02 -0.17462131995E+02  0.79573591463E+02  0.47000000000E+01 0. -1.
          5    1    4    4  503    0 -0.23494443579E+02  0.34321288844E+02 -0.21184823912E+02  0.46912967410E+02  0.47000000000E+01 0. -1.
         -5    1    4    4    0  503 -0.48080680443E+01 -0.79215844924E+01 -0.29629479643E+03  0.29647692222E+03  0.47000000000E+01 0. -1.
<mgrwt>
<rscale>  0 0.13085517E+03</rscale>
<asrwt>0</asrwt>
<pdfrwt beam="2">  1        5 0.68805794E-01 0.13085605E+03</pdfrwt>
<pdfrwt beam="1">  1       -5 0.76312539E-02 0.13085605E+03</pdfrwt>
<totfact> 0.17306528E+02</totfact>
</mgrwt>
</event>
<event>
 8    1  0.1865596E-007  0.1402740E+03  0.7546771E-02  0.1212961E+00
         -5   -1    0    0    0  501 -0.00000000000E+00  0.00000000000E+00  0.65975059822E+03  0.65976733918E+03  0.47000000000E+01 0. -1.
          5   -1    0    0  501    0  0.00000000000E+00 -0.00000000000E+00 -0.33707103627E+02  0.34033201949E+02  0.47000000000E+01 0. -1.
         25    2    1    2    0    0 -0.23298331592E+02  0.59229265827E+02  0.43314061077E+03  0.45528780064E+03  0.12500109811E+03 0.  0.
         25    2    1    2    0    0  0.23298331592E+02 -0.59229265827E+02  0.19290288383E+03  0.23851274050E+03  0.12500354637E+03 0.  0.
          5    1    3    3  502    0 -0.73348984906E+02  0.19091386592E+02  0.23631673717E+03  0.24821813973E+03  0.47000000000E+01 0.  1.
         -5    1    3    3    0  502  0.50050653314E+02  0.40137879234E+02  0.19682387360E+03  0.20706966090E+03  0.47000000000E+01 0.  1.
          5    1    4    4  503    0 -0.10396860369E+02  0.28975137316E+02  0.10146054776E+02  0.32751881099E+02  0.47000000000E+01 0. -1.
         -5    1    4    4    0  503  0.33695191961E+02 -0.88204403143E+02  0.18275682905E+03  0.20576085940E+03  0.47000000000E+01 0. -1.
<mgrwt>
<rscale>  0 0.14027349E+03</rscale>
<asrwt>0</asrwt>
<pdfrwt beam="2">  1        5 0.52120802E-02 0.14027403E+03</pdfrwt>
<pdfrwt beam="1">  1       -5 0.10152647E+00 0.14027403E+03</pdfrwt>
<totfact> 0.13569608E+02</totfact>
</mgrwt>
</event>
<event>
 8    1  0.1865596E-007  0.1508081E+03  0.7546771E-02  0.1199487E+00
          5   -1    0    0  501    0  0.00000000000E+00  0.00000000000E+00  0.28976934260E+03  0.28980745662E+03  0.47000000000E+01 0.  1.
         -5   -1    0    0    0  501 -0.00000000000E+00 -0.00000000000E+00 -0.10298202707E+03  0.10308922301E+03  0.47000000000E+01 0.  1.
         25    2    1    2    0    0  0.16790237665E+02 -0.82659300219E+02 -0.25769043382E+01  0.15081840101E+03  0.12500031061E+03 0.  0.
         25    2    1    2    0    0 -0.16790237665E+02  0.82659300219E+02  0.18936421987E+03  0.24207827862E+03  0.12501445204E+03 0.  0.
          5    1    4    4  502    0  0.41793505122E+02  0.40560791198E+02  0.27039131103E+02  0.64382291539E+02  0.47000000000E+01 0. -1.
         -5    1    4    4    0  502 -0.58583742787E+02  0.42098509021E+02  0.16232508877E+03  0.17769598708E+03  0.47000000000E+01 0. -1.
          5    1    3    3  503    0 -0.46616574402E+02 -0.20122505354E+02  0.25911369547E+02  0.57197109214E+02  0.47000000000E+01 0.  1.
         -5    1    3    3    0  503  0.63406812067E+02 -0.62536794865E+02 -0.28488273885E+02  0.93621291795E+02  0.47000000000E+01 0.  1.
<mgrwt>
<rscale>  0 0.15080518E+03</rscale>
<asrwt>0</asrwt>
<pdfrwt beam="1">  1        5 0.44591076E-01 0.15080811E+03</pdfrwt>
<pdfrwt beam="2">  1       -5 0.15854567E-01 0.15080811E+03</pdfrwt>
<totfact> 0.12762754E+02</totfact>
</mgrwt>
</event>
<event>
 8    1  0.1865596E-007  0.1467714E+03  0.7546771E-02  0.1204503E+00
         -5   -1    0    0    0  501 -0.00000000000E+00  0.00000000000E+00  0.98105529412E+02  0.98218047736E+02  0.47000000000E+01 0. -1.
          5   -1    0    0  501    0  0.00000000000E+00 -0.00000000000E+00 -0.23046360451E+03  0.23051152467E+03  0.47000000000E+01 0. -1.
         25    2    1    2    0    0  0.64488714923E+02 -0.41875760652E+02 -0.29994530055E+02  0.14978788479E+03  0.12499745963E+03 0.  0.
         25    2    1    2    0    0 -0.64488714923E+02  0.41875760652E+02 -0.10236354505E+03  0.17894168761E+03  0.12501783284E+03 0.  0.
          5    1    4    4  502    0 -0.76109574307E+02  0.64361777493E+02 -0.11329462118E+03  0.15097306678E+03  0.47000000000E+01 0. -1.
         -5    1    4    4    0  502  0.11620859384E+02 -0.22486016841E+02  0.10931076133E+02  0.27968620838E+02  0.47000000000E+01 0. -1.
          5    1    3    3  503    0 -0.27514476832E+02 -0.39971933535E+02  0.92719540477E+01  0.49627220733E+02  0.47000000000E+01 0. -1.
         -5    1    3    3    0  503  0.92003191756E+02 -0.19038271174E+01 -0.39266484103E+02  0.10016066406E+03  0.47000000000E+01 0. -1.
<mgrwt>
<rscale>  0 0.14676702E+03</rscale>
<asrwt>0</asrwt>
<pdfrwt beam="2">  1        5 0.35468280E-01 0.14677136E+03</pdfrwt>
<pdfrwt beam="1">  1       -5 0.15105500E-01 0.14677136E+03</pdfrwt>
<totfact> 0.22068234E+02</totfact>
</mgrwt>
</event>
<event>
 8    1  0.1865596E-007  0.1351720E+03  0.7546771E-02  0.1219978E+00
         -5   -1    0    0    0  501 -0.00000000000E+00  0.00000000000E+00  0.39604449998E+03  0.39607238727E+03  0.47000000000E+01 0. -1.
          5   -1    0    0  501    0  0.00000000000E+00 -0.00000000000E+00 -0.46824435913E+02  0.47059725866E+02  0.47000000000E+01 0. -1.
         25    2    1    2    0    0 -0.51450798479E+02 -0.18247586236E+00  0.20420430595E+03  0.24488951566E+03  0.12499703336E+03 0.  0.
         25    2    1    2    0    0  0.51450798479E+02  0.18247586236E+00  0.14501575811E+03  0.19824259748E+03  0.12499335740E+03 0.  0.
          5    1    3    3  502    0 -0.42237882657E+02 -0.53509545603E+02  0.60521133540E+02  0.91280927947E+02  0.47000000000E+01 0.  1.
         -5    1    3    3    0  502 -0.92129158225E+01  0.53327069741E+02  0.14368317241E+03  0.15360858771E+03  0.47000000000E+01 0.  1.
          5    1    4    4  503    0  0.80857709500E+02  0.31112731022E+02  0.68668023884E+02  0.11064971180E+03  0.47000000000E+01 0.  1.
         -5    1    4    4    0  503 -0.29406911021E+02 -0.30930255160E+02  0.76347734231E+02  0.87592885683E+02  0.47000000000E+01 0.  1.
<mgrwt>
<rscale>  0 0.13517118E+03</rscale>
<asrwt>0</asrwt>
<pdfrwt beam="2">  1        5 0.72240040E-02 0.13517202E+03</pdfrwt>
<pdfrwt beam="1">  1       -5 0.60950166E-01 0.13517202E+03</pdfrwt>
<totfact> 0.25143195E+02</totfact>
</mgrwt>
</event>
<event>
 8    1  0.1865596E-007  0.1330283E+03  0.7546771E-02  0.1223032E+00
         -5   -1    0    0    0  501 -0.00000000000E+00  0.00000000000E+00  0.73634899124E+02  0.73784743470E+02  0.47000000000E+01 0.  1.
          5   -1    0    0  501    0  0.00000000000E+00 -0.00000000000E+00 -0.24085083140E+03  0.24089668529E+03  0.47000000000E+01 0.  1.
         25    2    1    2    0    0 -0.40363485375E+02 -0.21011991072E+02 -0.73739326068E+02  0.15209870360E+03  0.12500325079E+03 0.  0.
         25    2    1    2    0    0  0.40363485375E+02  0.21011991072E+02 -0.93476606206E+02  0.16258272516E+03  0.12499820756E+03 0.  0.
          5    1    4    4  502    0 -0.35211762516E+02 -0.21292427380E+02 -0.10907571184E+02  0.42828737926E+02  0.47000000000E+01 0. -1.
         -5    1    4    4    0  502  0.75575247891E+02  0.42304418453E+02 -0.82569035023E+02  0.11975398724E+03  0.47000000000E+01 0. -1.
          5    1    3    3  503    0 -0.31708812824E+02  0.23185736017E+02  0.22661685697E+02  0.45592424415E+02  0.47000000000E+01 0.  1.
         -5    1    3    3    0  503 -0.86546725505E+01 -0.44197727090E+02 -0.96401011764E+02  0.10650627919E+03  0.47000000000E+01 0.  1.
<mgrwt>
<rscale>  0 0.13302711E+03</rscale>
<asrwt>0</asrwt>
<pdfrwt beam="2">  1        5 0.37069027E-01 0.13302830E+03</pdfrwt>
<pdfrwt beam="1">  1       -5 0.11343500E-01 0.13302830E+03</pdfrwt>
<totfact> 0.32582668E+02</totfact>
</mgrwt>
</event>
<event>
 8    1  0.1865596E-007  0.1633664E+03  0.7546771E-02  0.1184949E+00
          5   -1    0    0  501    0  0.00000000000E+00  0.00000000000E+00  0.48169530205E+03  0.48171823094E+03  0.47000000000E+01 0. -1.
         -5   -1    0    0    0  501 -0.00000000000E+00 -0.00000000000E+00 -0.55334543012E+02  0.55533788366E+02  0.47000000000E+01 0. -1.
         25    2    1    2    0    0  0.10088701797E+03  0.29736461951E+02  0.20477495207E+03  0.26195680164E+03  0.12500454938E+03 0.  0.
         25    2    1    2    0    0 -0.10088701797E+03 -0.29736461951E+02  0.22158580697E+03  0.27529521766E+03  0.12499895781E+03 0.  0.
          5    1    3    3  502    0  0.64290241203E+01  0.33962409459E+02 -0.15831329580E+01  0.34919534897E+02  0.47000000000E+01 0. -1.
         -5    1    3    3    0  502  0.94457993851E+02 -0.42259475083E+01  0.20635808503E+03  0.22703726674E+03  0.47000000000E+01 0. -1.
          5    1    4    4  503    0  0.23389398979E+01 -0.56129878356E+02  0.85173091121E+02  0.10213999870E+03  0.47000000000E+01 0. -1.
         -5    1    4    4    0  503 -0.10322595787E+03  0.26393416405E+02  0.13641271585E+03  0.17315521896E+03  0.47000000000E+01 0. -1.
<mgrwt>
<rscale>  0 0.16336534E+03</rscale>
<asrwt>0</asrwt>
<pdfrwt beam="1">  1        5 0.74124059E-01 0.16336641E+03</pdfrwt>
<pdfrwt beam="2">  1       -5 0.85300971E-02 0.16336641E+03</pdfrwt>
<totfact> 0.12974300E+02</totfact>
</mgrwt>
</event>
<event>
 8    1  0.1865596E-007  0.1387229E+03  0.7546771E-02  0.1215061E+00
         -5   -1    0    0    0  501 -0.00000000000E+00  0.00000000000E+00  0.14116658636E+02  0.14878509706E+02  0.47000000000E+01 0.  1.
          5   -1    0    0  501    0  0.00000000000E+00 -0.00000000000E+00 -0.13869265099E+04  0.13869344735E+04  0.47000000000E+01 0.  1.
         25    2    1    2    0    0 -0.52188978175E+02  0.29887446593E+02 -0.54018893576E+03  0.55771486407E+03  0.12499933754E+03 0.  0.
         25    2    1    2    0    0  0.52188978175E+02 -0.29887446593E+02 -0.83262091551E+03  0.84409811916E+03  0.12500838744E+03 0.  0.
          5    1    4    4  502    0  0.30325543495E+02  0.87365433902E+01 -0.74575708835E+03  0.74643934154E+03  0.47000000000E+01 0.  1.
         -5    1    4    4    0  502  0.21863434680E+02 -0.38623989983E+02 -0.86863827156E+02  0.97658777621E+02  0.47000000000E+01 0.  1.
          5    1    3    3  503    0  0.25543846695E+02 -0.25991975354E+02 -0.85973582282E+02  0.93496618854E+02  0.47000000000E+01 0. -1.
         -5    1    3    3    0  503 -0.77732824869E+02  0.55879421947E+02 -0.45421535348E+03  0.46421824522E+03  0.47000000000E+01 0. -1.
<mgrwt>
<rscale>  0 0.13872087E+03</rscale>
<asrwt>0</asrwt>
<pdfrwt beam="2">  1        5 0.21343242E+00 0.13872291E+03</pdfrwt>
<pdfrwt beam="1">  1       -5 0.22310112E-02 0.13872291E+03</pdfrwt>
<totfact> 0.69542166E+01</totfact>
</mgrwt>
</event>
<event>
 8    1  0.1865596E-007  0.1302225E+03  0.7546771E-02  0.1227127E+00
         -5   -1    0    0    0  501 -0.00000000000E+00  0.00000000000E+00  0.77523800524E+03  0.77525225235E+03  0.47000000000E+01 0.  1.
          5   -1    0    0  501    0  0.00000000000E+00 -0.00000000000E+00 -0.24423644416E+02  0.24871759217E+02  0.47000000000E+01 0.  1.
         25    2    1    2    0    0  0.32777343255E+02 -0.16071558694E+02  0.50992327079E+03  0.52628855578E+03  0.12500101050E+03 0.  0.
         25    2    1    2    0    0 -0.32777343255E+02  0.16071558694E+02  0.24089109004E+03  0.27383545578E+03  0.12499876141E+03 0.  0.
          5    1    3    3  502    0  0.57811015647E+02 -0.51713488241E+02  0.22555245279E+03  0.23856319363E+03  0.47000000000E+01 0. -1.
         -5    1    3    3    0  502 -0.25033672392E+02  0.35641929547E+02  0.28437081800E+03  0.28772536215E+03  0.47000000000E+01 0. -1.
          5    1    4    4  503    0 -0.12766940424E+02 -0.24745410811E+02 -0.41325160295E+00  0.28241651880E+02  0.47000000000E+01 0.  1.
         -5    1    4    4    0  503 -0.20010402831E+02  0.40816969505E+02  0.24130434164E+03  0.24559380390E+03  0.47000000000E+01 0.  1.
<mgrwt>
<rscale>  0 0.13022197E+03</rscale>
<asrwt>0</asrwt>
<pdfrwt beam="2">  1        5 0.37930498E-02 0.13022251E+03</pdfrwt>
<pdfrwt beam="1">  1       -5 0.11930296E+00 0.13022251E+03</pdfrwt>
<totfact> 0.14973758E+02</totfact>
</mgrwt>
</event>
<event>
 8    1  0.1865596E-007  0.1296274E+03  0.7546771E-02  0.1228011E+00
         -5   -1    0    0    0  501 -0.00000000000E+00  0.00000000000E+00  0.18085369218E+03  0.18091475334E+03  0.47000000000E+01 0. -1.
          5   -1    0    0  501    0  0.00000000000E+00 -0.00000000000E+00 -0.93504508233E+02  0.93622556363E+02  0.47000000000E+01 0. -1.
         25    2    1    2    0    0 -0.33536087933E+02  0.72531389255E+01  0.31529375535E+02  0.13340679472E+03  0.12500397648E+03 0.  0.
         25    2    1    2    0    0  0.33536087933E+02 -0.72531389255E+01  0.55819808412E+02  0.14113051498E+03  0.12499877611E+03 0.  0.
          5    1    4    4  502    0  0.25321983639E+02  0.31910035290E+01 -0.38133290157E+02  0.46126165862E+02  0.47000000000E+01 0.  1.
         -5    1    4    4    0  502  0.82141042940E+01 -0.10444142455E+02  0.93953098569E+02  0.95004349120E+02  0.47000000000E+01 0.  1.
          5    1    3    3  503    0  0.19515787191E+01  0.34271155700E+02 -0.37520260740E+02  0.51070350875E+02  0.47000000000E+01 0. -1.
         -5    1    3    3    0  503 -0.35487666652E+02 -0.27018016775E+02  0.69049636275E+02  0.82336443842E+02  0.47000000000E+01 0. -1.
<mgrwt>
<rscale>  0 0.12962618E+03</rscale>
<asrwt>0</asrwt>
<pdfrwt beam="2">  1        5 0.14399087E-01 0.12962743E+03</pdfrwt>
<pdfrwt beam="1">  1       -5 0.27837423E-01 0.12962743E+03</pdfrwt>
<totfact> 0.37202718E+02</totfact>
</mgrwt>
</event>
<event>
 8    1  0.1865596E-007  0.1286692E+03  0.7546771E-02  0.1229451E+00
          5   -1    0    0  501    0  0.00000000000E+00  0.00000000000E+00  0.26679856710E+03  0.26683996217E+03  0.47000000000E+01 0. -1.
         -5   -1    0    0    0  501 -0.00000000000E+00 -0.00000000000E+00 -0.69690765020E+02  0.69849071068E+02  0.47000000000E+01 0. -1.
         25    2    1    2    0    0 -0.16844593789E+02 -0.25433712756E+02  0.42391063238E+02  0.13547237943E+03  0.12500059704E+03 0.  0.
         25    2    1    2    0    0  0.16844593789E+02  0.25433712756E+02  0.15471673885E+03  0.20121665381E+03  0.12498103218E+03 0.  0.
          5    1    3    3  502    0 -0.70816222558E+02 -0.64870595551E+01  0.22733239730E+02  0.74805811991E+02  0.47000000000E+01 0.  1.
         -5    1    3    3    0  502  0.53971628769E+02 -0.18946653201E+02  0.19657823508E+02  0.60666567437E+02  0.47000000000E+01 0.  1.
          5    1    4    4  503    0  0.22574502977E+02 -0.18110820876E+01 -0.16036292172E+02  0.28144997239E+02  0.47000000000E+01 0. -1.
         -5    1    4    4    0  503 -0.57299091879E+01  0.27244794844E+02  0.17075303102E+03  0.17307165657E+03  0.47000000000E+01 0. -1.
<mgrwt>
<rscale>  0 0.12866445E+03</rscale>
<asrwt>0</asrwt>
<pdfrwt beam="1">  1        5 0.41061294E-01 0.12866920E+03</pdfrwt>
<pdfrwt beam="2">  1       -5 0.10737018E-01 0.12866920E+03</pdfrwt>
<totfact> 0.28793237E+02</totfact>
</mgrwt>
</event>
<event>
 8    1  0.1865596E-007  0.1724859E+03  0.7546771E-02  0.1175281E+00
          5   -1    0    0  501    0  0.00000000000E+00  0.00000000000E+00  0.25977455975E+03  0.25981707390E+03  0.47000000000E+01 0. -1.
         -5   -1    0    0    0  501 -0.00000000000E+00 -0.00000000000E+00 -0.12587261644E+03  0.12596033331E+03  0.47000000000E+01 0. -1.
         25    2    1    2    0    0 -0.97534770290E+02 -0.67907582096E+02  0.88129384922E+01  0.17271086434E+03  0.12500761438E+03 0.  0.
         25    2    1    2    0    0  0.97534770290E+02  0.67907582096E+02  0.12508900482E+03  0.21306654288E+03  0.12500248576E+03 0.  0.
          5    1    4    4  502    0  0.11601994266E+03  0.37345963417E+02  0.12814260457E+03  0.17691230931E+03  0.47000000000E+01 0.  1.
         -5    1    4    4    0  502 -0.18485172373E+02  0.30561618678E+02 -0.30535997489E+01  0.36154233574E+02  0.47000000000E+01 0.  1.
          5    1    3    3  503    0  0.24143796840E+02 -0.32382901517E+02 -0.15568258833E+02  0.43543494572E+02  0.47000000000E+01 0.  1.
         -5    1    3    3    0  503 -0.12167856713E+03 -0.35524680579E+02  0.24381197325E+02  0.12916736976E+03  0.47000000000E+01 0.  1.
<mgrwt>
<rscale>  0 0.17248494E+03</rscale>
<asrwt>0</asrwt>
<pdfrwt beam="1">  1        5 0.39975334E-01 0.17248587E+03</pdfrwt>
<pdfrwt beam="2">  1       -5 0.19375036E-01 0.17248587E+03</pdfrwt>
<totfact> 0.11517917E+02</totfact>
</mgrwt>
</event>
<event>
 8    1  0.1865596E-007  0.1447805E+03  0.7546771E-02  0.1207038E+00
         -5   -1    0    0    0  501 -0.00000000000E+00  0.00000000000E+00  0.32683327763E+02  0.33019538362E+02  0.47000000000E+01 0.  1.
          5   -1    0    0  501    0  0.00000000000E+00 -0.00000000000E+00 -0.70413544888E+03  0.70415113461E+03  0.47000000000E+01 0.  1.
         25    2    1    2    0    0  0.17087321787E+02  0.71018499042E+02 -0.22254863199E+03  0.26549821045E+03  0.12500320948E+03 0.  0.
         25    2    1    2    0    0 -0.17087321787E+02 -0.71018499042E+02 -0.44890348913E+03  0.47167246252E+03  0.12499986230E+03 0.  0.
          5    1    4    4  502    0 -0.32562804473E+02 -0.94505204824E+02 -0.22875650084E+03  0.24968619636E+03  0.47000000000E+01 0. -1.
         -5    1    4    4    0  502  0.15475482685E+02  0.23486705782E+02 -0.22014698829E+03  0.22198626617E+03  0.47000000000E+01 0. -1.
          5    1    3    3  503    0  0.92657531316E+01  0.10700157854E+03 -0.15996773996E+03  0.19273546591E+03  0.47000000000E+01 0. -1.
         -5    1    3    3    0  503  0.78215686555E+01 -0.35983079496E+02 -0.62580892021E+02  0.72762744536E+02  0.47000000000E+01 0. -1.
<mgrwt>
<rscale>  0 0.14477982E+03</rscale>
<asrwt>0</asrwt>
<pdfrwt beam="2">  1        5 0.10835559E+00 0.14478054E+03</pdfrwt>
<pdfrwt beam="1">  1       -5 0.50552737E-02 0.14478054E+03</pdfrwt>
<totfact> 0.12281739E+02</totfact>
</mgrwt>
</event>
<event>
 8    1  0.1865596E-007  0.1329537E+03  0.7546771E-02  0.1223138E+00
          5   -1    0    0  501    0  0.00000000000E+00  0.00000000000E+00  0.58475270948E+03  0.58477159751E+03  0.47000000000E+01 0. -1.
         -5   -1    0    0    0  501 -0.00000000000E+00 -0.00000000000E+00 -0.30029878017E+02  0.30395453175E+02  0.47000000000E+01 0. -1.
         25    2    1    2    0    0  0.25253464752E+02  0.37599552643E+02  0.27421373277E+03  0.30474557058E+03  0.12500091083E+03 0.  0.
         25    2    1    2    0    0 -0.25253464752E+02 -0.37599552643E+02  0.28050909870E+03  0.31042148010E+03  0.12499870805E+03 0.  0.
          5    1    4    4  502    0  0.27902609804E+02 -0.40095073627E+02  0.37913860333E+02  0.62013880449E+02  0.47000000000E+01 0. -1.
         -5    1    4    4    0  502 -0.53156074556E+02  0.24955209844E+01  0.24259523837E+03  0.24840759965E+03  0.47000000000E+01 0. -1.
          5    1    3    3  503    0 -0.31087060265E+02 -0.28980558683E+02  0.62556805883E+02  0.75774151660E+02  0.47000000000E+01 0. -1.
         -5    1    3    3    0  503  0.56340525017E+02  0.66580111326E+02  0.21165692689E+03  0.22897141892E+03  0.47000000000E+01 0. -1.
<mgrwt>
<rscale>  0 0.13295320E+03</rscale>
<asrwt>0</asrwt>
<pdfrwt beam="1">  1        5 0.89991526E-01 0.13295372E+03</pdfrwt>
<pdfrwt beam="2">  1       -5 0.46495555E-02 0.13295372E+03</pdfrwt>
<totfact> 0.21540155E+02</totfact>
</mgrwt>
</event>
<event>
 8    1  0.1865596E-007  0.1267441E+03  0.7546771E-02  0.1232370E+00
         -5   -1    0    0    0  501 -0.00000000000E+00  0.00000000000E+00  0.21849397285E+03  0.21854451760E+03  0.47000000000E+01 0. -1.
          5   -1    0    0  501    0  0.00000000000E+00 -0.00000000000E+00 -0.74166482922E+02  0.74315255426E+02  0.47000000000E+01 0. -1.
         25    2    1    2    0    0  0.27211845671E+01 -0.20778080481E+02  0.87174982986E+02  0.15382958435E+03  0.12499971955E+03 0.  0.
         25    2    1    2    0    0 -0.27211845671E+01  0.20778080481E+02  0.57152506945E+02  0.13903018868E+03  0.12499540328E+03 0.  0.
          5    1    4    4  502    0  0.68238615685E+01  0.50747353374E+02  0.83277971336E+02  0.97873231636E+02  0.47000000000E+01 0.  1.
         -5    1    4    4    0  502 -0.95450461356E+01 -0.29969272893E+02 -0.26125464390E+02  0.41156957043E+02  0.47000000000E+01 0.  1.
          5    1    3    3  503    0 -0.53525959536E+01 -0.71985617059E+02  0.64999028107E+02  0.97249899751E+02  0.47000000000E+01 0. -1.
         -5    1    3    3    0  503  0.80737805207E+01  0.51207536578E+02  0.22175954880E+02  0.56579684597E+02  0.47000000000E+01 0. -1.
<mgrwt>
<rscale>  0 0.12674302E+03</rscale>
<asrwt>0</asrwt>
<pdfrwt beam="2">  1        5 0.11425560E-01 0.12674409E+03</pdfrwt>
<pdfrwt beam="1">  1       -5 0.33629789E-01 0.12674409E+03</pdfrwt>
<totfact> 0.38421319E+02</totfact>
</mgrwt>
</event>
<event>
 8    1  0.1865596E-007  0.1292709E+03  0.7546771E-02  0.1228544E+00
          5   -1    0    0  501    0  0.00000000000E+00  0.00000000000E+00  0.65553753491E+02  0.65722025202E+02  0.47000000000E+01 0. -1.
         -5   -1    0    0    0  501 -0.00000000000E+00 -0.00000000000E+00 -0.28963597193E+03  0.28967410349E+03  0.47000000000E+01 0. -1.
         25    2    1    2    0    0 -0.12994772345E+01  0.32915446114E+02 -0.17400959345E+03  0.21677245499E+03  0.12500337354E+03 0.  0.
         25    2    1    2    0    0  0.12994772345E+01 -0.32915446114E+02 -0.50072624989E+02  0.13862367370E+03  0.12499655957E+03 0.  0.
          5    1    3    3  502    0 -0.13058072285E+02  0.70923311669E+02 -0.53892057721E+02  0.90150281615E+02  0.47000000000E+01 0. -1.
         -5    1    3    3    0  502  0.11758595050E+02 -0.38007865555E+02 -0.12011753573E+03  0.12662217338E+03  0.47000000000E+01 0. -1.
          5    1    4    4  503    0  0.21848405407E+02  0.39514660041E+02  0.43521264026E+01  0.45604738583E+02  0.47000000000E+01 0.  1.
         -5    1    4    4    0  503 -0.20548928172E+02 -0.72430106156E+02 -0.54424751391E+02  0.93018935119E+02  0.47000000000E+01 0.  1.
<mgrwt>
<rscale>  0 0.12926923E+03</rscale>
<asrwt>0</asrwt>
<pdfrwt beam="1">  1        5 0.10101070E-01 0.12927087E+03</pdfrwt>
<pdfrwt beam="2">  1       -5 0.44575257E-01 0.12927087E+03</pdfrwt>
<totfact> 0.27088892E+02</totfact>
</mgrwt>
</event>
<event>
 8    1  0.1865596E-007  0.1253376E+03  0.7546771E-02  0.1234547E+00
          5   -1    0    0  501    0  0.00000000000E+00  0.00000000000E+00  0.27317991741E+02  0.27719355562E+02  0.47000000000E+01 0.  1.
         -5   -1    0    0    0  501 -0.00000000000E+00 -0.00000000000E+00 -0.57573533056E+03  0.57575451440E+03  0.47000000000E+01 0.  1.
         25    2    1    2    0    0 -0.26706657470E+01  0.87494650692E+01 -0.30322651545E+03  0.32810491010E+03  0.12499130676E+03 0.  0.
         25    2    1    2    0    0  0.26706657470E+01 -0.87494650692E+01 -0.24519082337E+03  0.27536895986E+03  0.12500335434E+03 0.  0.
          5    1    4    4  502    0  0.18283509061E+02  0.12111277400E+02  0.56540204010E+01  0.23130665588E+02  0.47000000000E+01 0. -1.
         -5    1    4    4    0  502 -0.15612843314E+02 -0.20860742470E+02 -0.25084484377E+03  0.25223829428E+03  0.47000000000E+01 0. -1.
          5    1    3    3  503    0  0.60062272823E+02  0.46477567122E+01 -0.17663454212E+03  0.18668403715E+03  0.47000000000E+01 0. -1.
         -5    1    3    3    0  503 -0.62732938570E+02  0.41017083570E+01 -0.12659197333E+03  0.14142087295E+03  0.47000000000E+01 0. -1.
<mgrwt>
<rscale>  0 0.12533464E+03</rscale>
<asrwt>0</asrwt>
<pdfrwt beam="1">  1        5 0.42351182E-02 0.12533764E+03</pdfrwt>
<pdfrwt beam="2">  1       -5 0.88607007E-01 0.12533764E+03</pdfrwt>
<totfact> 0.25520880E+02</totfact>
</mgrwt>
</event>
<event>
 8    1  0.1865596E-007  0.1546141E+03  0.7546771E-02  0.1194915E+00
         -5   -1    0    0    0  501 -0.00000000000E+00  0.00000000000E+00  0.14331120926E+04  0.14331197996E+04  0.47000000000E+01 0.  1.
          5   -1    0    0  501    0  0.00000000000E+00 -0.00000000000E+00 -0.16358121965E+02  0.17019934025E+02  0.47000000000E+01 0.  1.
         25    2    1    2    0    0  0.53769746955E+02  0.73410374183E+02  0.68593120901E+03  0.70314091525E+03  0.12500101788E+03 0.  0.
         25    2    1    2    0    0 -0.53769746955E+02 -0.73410374183E+02  0.73082276166E+03  0.74699881840E+03  0.12500022801E+03 0.  0.
          5    1    3    3  502    0  0.80397834480E+01  0.97276074687E+02  0.52695992364E+03  0.53594414256E+03  0.47000000000E+01 0. -1.
         -5    1    3    3    0  502  0.45729963507E+02 -0.23865700504E+02  0.15897128537E+03  0.16719677269E+03  0.47000000000E+01 0. -1.
          5    1    4    4  503    0  0.87960801076E+00 -0.78975618226E+02  0.59765619135E+03  0.60287057902E+03  0.47000000000E+01 0.  1.
         -5    1    4    4    0  503 -0.54649354966E+02  0.55652440429E+01  0.13316657031E+03  0.14412823938E+03  0.47000000000E+01 0.  1.
<mgrwt>
<rscale>  0 0.15461395E+03</rscale>
<asrwt>0</asrwt>
<pdfrwt beam="2">  1        5 0.25681352E-02 0.15461411E+03</pdfrwt>
<pdfrwt beam="1">  1       -5 0.22053032E+00 0.15461411E+03</pdfrwt>
<totfact> 0.51393671E+01</totfact>
</mgrwt>
</event>
<event>
 8    1  0.1865596E-007  0.1367799E+03  0.7546771E-02  0.1217731E+00
         -5   -1    0    0    0  501 -0.00000000000E+00  0.00000000000E+00  0.11785078424E+04  0.11785172144E+04  0.47000000000E+01 0. -1.
          5   -1    0    0  501    0  0.00000000000E+00 -0.00000000000E+00 -0.16852209269E+02  0.17495341016E+02  0.47000000000E+01 0. -1.
         25    2    1    2    0    0  0.14032697981E+02 -0.53712494210E+02  0.74586921143E+03  0.75830593602E+03  0.12500025361E+03 0.  0.
         25    2    1    2    0    0 -0.14032697981E+02  0.53712494210E+02  0.41578642175E+03  0.43770661942E+03  0.12500714991E+03 0.  0.
          5    1    4    4  502    0 -0.57570021031E+02  0.54733460589E+02  0.34812987653E+03  0.35710861088E+03  0.47000000000E+01 0.  1.
         -5    1    4    4    0  502  0.43537323050E+02 -0.10209663791E+01  0.67656545217E+02  0.80598008545E+02  0.47000000000E+01 0.  1.
          5    1    3    3  503    0 -0.26085619074E+02 -0.14478429428E+02  0.61617494155E+03  0.61691468862E+03  0.47000000000E+01 0. -1.
         -5    1    3    3    0  503  0.40118317055E+02 -0.39234064782E+02  0.12969426988E+03  0.14139124741E+03  0.47000000000E+01 0. -1.
<mgrwt>
<rscale>  0 0.13677831E+03</rscale>
<asrwt>0</asrwt>
<pdfrwt beam="2">  1        5 0.26428401E-02 0.13677988E+03</pdfrwt>
<pdfrwt beam="1">  1       -5 0.18135910E+00 0.13677988E+03</pdfrwt>
<totfact> 0.87320103E+01</totfact>
</mgrwt>
</event>
<event>
 8    1  0.1865596E-007  0.1437946E+03  0.7546771E-02  0.1208316E+00
          5   -1    0    0  501    0  0.00000000000E+00  0.00000000000E+00  0.19620824850E+02  0.20175895712E+02  0.47000000000E+01 0. -1.
         -5   -1    0    0    0  501 -0.00000000000E+00 -0.00000000000E+00 -0.10459243029E+04  0.10459348629E+04  0.47000000000E+01 0. -1.
         25    2    1    2    0    0  0.42891819305E+02 -0.56656205089E+02 -0.55815537374E+03  0.57638035012E+03  0.12500901180E+03 0.  0.
         25    2    1    2    0    0 -0.42891819305E+02  0.56656205089E+02 -0.46814810434E+03  0.48973040851E+03  0.12499436659E+03 0.  0.
          5    1    4    4  502    0  0.34559020326E+02  0.18213409610E+02 -0.27827808226E+03  0.28104596642E+03  0.47000000000E+01 0. -1.
         -5    1    4    4    0  502 -0.77450839630E+02  0.38442795479E+02 -0.18987002208E+03  0.20868444209E+03  0.47000000000E+01 0. -1.
          5    1    3    3  503    0  0.71222451980E+01 -0.85855686074E+02 -0.24378482688E+03  0.25860212108E+03  0.47000000000E+01 0. -1.
         -5    1    3    3    0  503  0.35769574106E+02  0.29199480985E+02 -0.31437054685E+03  0.31777822904E+03  0.47000000000E+01 0. -1.
<mgrwt>
<rscale>  0 0.14379142E+03</rscale>
<asrwt>0</asrwt>
<pdfrwt beam="1">  1        5 0.30620993E-02 0.14379460E+03</pdfrwt>
<pdfrwt beam="2">  1       -5 0.16095490E+00 0.14379460E+03</pdfrwt>
<totfact> 0.98585737E+01</totfact>
</mgrwt>
</event>
<event>
 8    1  0.1865596E-007  0.1313233E+03  0.7546771E-02  0.1225510E+00
          5   -1    0    0  501    0  0.00000000000E+00  0.00000000000E+00  0.21703195384E+03  0.21708283899E+03  0.47000000000E+01 0. -1.
         -5   -1    0    0    0  501 -0.00000000000E+00 -0.00000000000E+00 -0.83624896318E+02  0.83756870072E+02  0.47000000000E+01 0. -1.
         25    2    1    2    0    0  0.14377546758E+02  0.37544024649E+02  0.32628431250E+02  0.13530377499E+03  0.12500491736E+03 0.  0.
         25    2    1    2    0    0 -0.14377546758E+02 -0.37544024649E+02  0.10077862627E+03  0.16553593407E+03  0.12501818396E+03 0.  0.
          5    1    4    4  502    0  0.11766163487E+02 -0.34962034105E+02 -0.19737329749E+02  0.42100339875E+02  0.47000000000E+01 0.  1.
         -5    1    4    4    0  502 -0.26143710245E+02 -0.25819905436E+01  0.12051595602E+03  0.12343559420E+03  0.47000000000E+01 0.  1.
          5    1    3    3  503    0  0.65850256487E+02 -0.12716147891E+01  0.98060191479E+01  0.66754185600E+02  0.47000000000E+01 0.  1.
         -5    1    3    3    0  503 -0.51472709729E+02  0.38815639438E+02  0.22822412102E+02  0.68549589393E+02  0.47000000000E+01 0.  1.
<mgrwt>
<rscale>  0 0.13132016E+03</rscale>
<asrwt>0</asrwt>
<pdfrwt beam="1">  1        5 0.33403597E-01 0.13132332E+03</pdfrwt>
<pdfrwt beam="2">  1       -5 0.12879435E-01 0.13132332E+03</pdfrwt>
<totfact> 0.31907189E+02</totfact>
</mgrwt>
</event>
<event>
 8    1  0.1865596E-007  0.1306937E+03  0.7546771E-02  0.1226431E+00
          5   -1    0    0  501    0  0.00000000000E+00  0.00000000000E+00  0.30416414864E+03  0.30420045910E+03  0.47000000000E+01 0.  1.
         -5   -1    0    0    0  501 -0.00000000000E+00 -0.00000000000E+00 -0.56064718279E+02  0.56261377833E+02  0.47000000000E+01 0.  1.
         25    2    1    2    0    0  0.37543149915E+02  0.67885819011E+01  0.12927407666E+03  0.18382577674E+03  0.12499822538E+03 0.  0.
         25    2    1    2    0    0 -0.37543149915E+02 -0.67885819011E+01  0.11882535370E+03  0.17663606019E+03  0.12500104051E+03 0.  0.
          5    1    3    3  502    0  0.65512635557E+02 -0.38926068647E+02  0.67494796840E+02  0.10190574978E+03  0.47000000000E+01 0. -1.
         -5    1    3    3    0  502 -0.27969485642E+02  0.45714650548E+02  0.61779279815E+02  0.81920026955E+02  0.47000000000E+01 0. -1.
          5    1    4    4  503    0 -0.92566273287E+01 -0.64772886524E+02  0.52860229283E+02  0.84246696184E+02  0.47000000000E+01 0.  1.
         -5    1    4    4    0  503 -0.28286522586E+02  0.57984304623E+02  0.65965124419E+02  0.92389364010E+02  0.47000000000E+01 0.  1.
<mgrwt>
<rscale>  0 0.13069299E+03</rscale>
<asrwt>0</asrwt>
<pdfrwt beam="1">  1        5 0.46812406E-01 0.13069366E+03</pdfrwt>
<pdfrwt beam="2">  1       -5 0.86432620E-02 0.13069366E+03</pdfrwt>
<totfact> 0.32174736E+02</totfact>
</mgrwt>
</event>
<event>
 8    1  0.1865596E-007  0.2082030E+03  0.7546771E-02  0.1142998E+00
          5   -1    0    0  501    0  0.00000000000E+00  0.00000000000E+00  0.18320340010E+03  0.18326367837E+03  0.47000000000E+01 0.  1.
         -5   -1    0    0    0  501 -0.00000000000E+00 -0.00000000000E+00 -0.27103237387E+03  0.27107312239E+03  0.47000000000E+01 0.  1.
         25    2    1    2    0    0 -0.78781479727E+02 -0.14668526635E+03 -0.12499971211E+03  0.24284171633E+03  0.12499632894E+03 0.  0.
         25    2    1    2    0    0  0.78781479727E+02  0.14668526635E+03  0.37170738345E+02  0.21149508443E+03  0.12500167213E+03 0.  0.
          5    1    4    4  502    0  0.23891785018E+02 -0.15731396847E+02  0.27116772456E+02  0.39695133033E+02  0.47000000000E+01 0.  1.
         -5    1    4    4    0  502  0.54889694709E+02  0.16241666320E+03  0.10053965889E+02  0.17179995140E+03  0.47000000000E+01 0.  1.
          5    1    3    3  503    0 -0.38778506741E+01  0.97613848062E+01  0.15688101472E+02  0.19455818846E+02  0.47000000000E+01 0. -1.
         -5    1    3    3    0  503 -0.74903629053E+02 -0.15644665116E+03 -0.14068781358E+03  0.22338589748E+03  0.47000000000E+01 0. -1.
<mgrwt>
<rscale>  0 0.20820224E+03</rscale>
<asrwt>0</asrwt>
<pdfrwt beam="1">  1        5 0.28192910E-01 0.20820304E+03</pdfrwt>
<pdfrwt beam="2">  1       -5 0.41705060E-01 0.20820304E+03</pdfrwt>
<totfact> 0.54282648E+01</totfact>
</mgrwt>
</event>
<event>
 8    1  0.1865596E-007  0.1296333E+03  0.7546771E-02  0.1228024E+00
          5   -1    0    0  501    0  0.00000000000E+00  0.00000000000E+00  0.74118962400E+03  0.74120452557E+03  0.47000000000E+01 0.  1.
         -5   -1    0    0    0  501 -0.00000000000E+00 -0.00000000000E+00 -0.28743526778E+02  0.29125252474E+02  0.47000000000E+01 0.  1.
         25    2    1    2    0    0 -0.61277842712E+00 -0.34339730131E+02  0.17678811498E+03  0.21922326516E+03  0.12500083931E+03 0.  0.
         25    2    1    2    0    0  0.61277842712E+00  0.34339730131E+02  0.53565798225E+03  0.55110651288E+03  0.12493727241E+03 0.  0.
          5    1    4    4  502    0  0.52670937951E+01 -0.39299135942E+02  0.33295566139E+03  0.33534120954E+03  0.47000000000E+01 0. -1.
         -5    1    4    4    0  502 -0.46543153680E+01  0.73638866073E+02  0.20270232085E+03  0.21576530334E+03  0.47000000000E+01 0. -1.
          5    1    3    3  503    0  0.36413106904E+02 -0.26500446314E+02  0.77525577680E+01  0.45938874183E+02  0.47000000000E+01 0.  1.
         -5    1    3    3    0  503 -0.37025885331E+02 -0.78392838167E+01  0.16903555721E+03  0.17328439098E+03  0.47000000000E+01 0.  1.
<mgrwt>
<rscale>  0 0.12961801E+03</rscale>
<asrwt>0</asrwt>
<pdfrwt beam="1">  1        5 0.11405967E+00 0.12963334E+03</pdfrwt>
<pdfrwt beam="2">  1       -5 0.44525913E-02 0.12963334E+03</pdfrwt>
<totfact> 0.12868690E+02</totfact>
</mgrwt>
</event>
<event>
 8    1  0.1865596E-007  0.1321445E+03  0.7546771E-02  0.1224308E+00
          5   -1    0    0  501    0  0.00000000000E+00  0.00000000000E+00  0.14278486049E+03  0.14286219369E+03  0.47000000000E+01 0. -1.
         -5   -1    0    0    0  501 -0.00000000000E+00 -0.00000000000E+00 -0.14495464529E+03  0.14503082152E+03  0.47000000000E+01 0. -1.
         25    2    1    2    0    0  0.18930355705E+02 -0.38461298446E+02 -0.58160278924E+02  0.14437726428E+03  0.12499818619E+03 0.  0.
         25    2    1    2    0    0 -0.18930355705E+02  0.38461298446E+02  0.55990494130E+02  0.14351575093E+03  0.12499682191E+03 0.  0.
          5    1    3    3  502    0  0.70488332851E+01 -0.65595883134E+02  0.12773894015E+02  0.67362959430E+02  0.47000000000E+01 0. -1.
         -5    1    3    3    0  502  0.11881522420E+02  0.27134584688E+02 -0.70934172939E+02  0.77014304852E+02  0.47000000000E+01 0. -1.
          5    1    4    4  503    0 -0.52037542873E+02 -0.26827457577E+02  0.22839972584E+02  0.63018828107E+02  0.47000000000E+01 0.  1.
         -5    1    4    4    0  503  0.33107187168E+02  0.65288756023E+02  0.33150521546E+02  0.80496922824E+02  0.47000000000E+01 0.  1.
<mgrwt>
<rscale>  0 0.13214421E+03</rscale>
<asrwt>0</asrwt>
<pdfrwt beam="1">  1        5 0.21978710E-01 0.13214453E+03</pdfrwt>
<pdfrwt beam="2">  1       -5 0.22312523E-01 0.13214453E+03</pdfrwt>
<totfact> 0.26259926E+02</totfact>
</mgrwt>
</event>
<event>
 8    1  0.1865596E-007  0.1451237E+03  0.7546771E-02  0.1206604E+00
         -5   -1    0    0    0  501 -0.00000000000E+00  0.00000000000E+00  0.71367216981E+02  0.71521812474E+02  0.47000000000E+01 0.  1.
          5   -1    0    0  501    0  0.00000000000E+00 -0.00000000000E+00 -0.29485209544E+03  0.29488955252E+03  0.47000000000E+01 0.  1.
         25    2    1    2    0    0  0.26323502992E+02  0.68817674581E+02 -0.10605504464E+03  0.17974579151E+03  0.12502830850E+03 0.  0.
         25    2    1    2    0    0 -0.26323502992E+02 -0.68817674581E+02 -0.11742983382E+03  0.18666557349E+03  0.12500188523E+03 0.  0.
          5    1    4    4  502    0  0.85283182547E+01  0.31255138557E+02 -0.53784711423E+02  0.62964284172E+02  0.47000000000E+01 0. -1.
         -5    1    4    4    0  502 -0.34851821247E+02 -0.10007281314E+03 -0.63645122393E+02  0.12370128931E+03  0.47000000000E+01 0. -1.
          5    1    3    3  503    0 -0.37283863595E+02  0.30467618411E+01  0.23931864677E+01  0.37778123084E+02  0.47000000000E+01 0.  1.
         -5    1    3    3    0  503  0.63607366587E+02  0.65770912740E+02 -0.10844823111E+03  0.14196766842E+03  0.47000000000E+01 0.  1.
<mgrwt>
<rscale>  0 0.14511797E+03</rscale>
<asrwt>0</asrwt>
<pdfrwt beam="2">  1        5 0.45376634E-01 0.14512366E+03</pdfrwt>
<pdfrwt beam="1">  1       -5 0.10994345E-01 0.14512366E+03</pdfrwt>
<totfact> 0.23409810E+02</totfact>
</mgrwt>
</event>
<event>
 8    1  0.1865596E-007  0.1463653E+03  0.7546771E-02  0.1205045E+00
          5   -1    0    0  501    0  0.00000000000E+00  0.00000000000E+00  0.10333802151E+03  0.10344484854E+03  0.47000000000E+01 0.  1.
         -5   -1    0    0    0  501 -0.00000000000E+00 -0.00000000000E+00 -0.22922210133E+03  0.22927028098E+03  0.47000000000E+01 0.  1.
         25    2    1    2    0    0  0.69352049433E+02 -0.31307358656E+02 -0.11483390310E+03  0.18603661008E+03  0.12503174606E+03 0.  0.
         25    2    1    2    0    0 -0.69352049433E+02  0.31307358656E+02 -0.11050176720E+02  0.14667851943E+03  0.12491046470E+03 0.  0.
          5    1    4    4  502    0  0.23848104551E+02  0.27644774382E+02  0.27188157492E+02  0.45762993227E+02  0.47000000000E+01 0. -1.
         -5    1    4    4    0  502 -0.93200153984E+02  0.36625842741E+01 -0.38238334212E+02  0.10091552621E+03  0.47000000000E+01 0. -1.
          5    1    3    3  503    0  0.19301694570E+02  0.43461552177E+02 -0.11908710949E+02  0.49248038818E+02  0.47000000000E+01 0.  1.
         -5    1    3    3    0  503  0.50050354863E+02 -0.74768910833E+02 -0.10292519215E+03  0.13678857126E+03  0.47000000000E+01 0.  1.
<mgrwt>
<rscale>  0 0.14633937E+03</rscale>
<asrwt>0</asrwt>
<pdfrwt beam="1">  1        5 0.15910081E-01 0.14636528E+03</pdfrwt>
<pdfrwt beam="2">  1       -5 0.35276862E-01 0.14636528E+03</pdfrwt>
<totfact> 0.20282119E+02</totfact>
</mgrwt>
</event>
<event>
 8    1  0.1865596E-007  0.1594665E+03  0.7546771E-02  0.1189304E+00
         -5   -1    0    0    0  501 -0.00000000000E+00  0.00000000000E+00  0.76659474890E+03  0.76660915663E+03  0.47000000000E+01 0.  1.
          5   -1    0    0  501    0  0.00000000000E+00 -0.00000000000E+00 -0.41325189454E+02  0.41591601116E+02  0.47000000000E+01 0.  1.
         25    2    1    2    0    0 -0.40054394028E+02 -0.90559735565E+02  0.54346501263E+03  0.56637777154E+03  0.12499655977E+03 0.  0.
         25    2    1    2    0    0  0.40054394028E+02  0.90559735565E+02  0.18180454681E+03  0.24182298621E+03  0.12498017135E+03 0.  0.
          5    1    3    3  502    0  0.96319819500E+01  0.27318549529E+02  0.14193139554E+03  0.14493339596E+03  0.47000000000E+01 0.  1.
         -5    1    3    3    0  502 -0.49686375978E+02 -0.11787828509E+03  0.40153361709E+03  0.42144437558E+03  0.47000000000E+01 0.  1.
          5    1    4    4  503    0  0.14035335325E+02  0.79788964090E+02  0.28694654042E+02  0.86074052994E+02  0.47000000000E+01 0.  1.
         -5    1    4    4    0  503  0.26019058703E+02  0.10770771475E+02  0.15310989277E+03  0.15574893322E+03  0.47000000000E+01 0.  1.
<mgrwt>
<rscale>  0 0.15946327E+03</rscale>
<asrwt>0</asrwt>
<pdfrwt beam="2">  1        5 0.63793230E-02 0.15946649E+03</pdfrwt>
<pdfrwt beam="1">  1       -5 0.11795925E+00 0.15946649E+03</pdfrwt>
<totfact> 0.69227527E+01</totfact>
</mgrwt>
</event>
<event>
 8    1  0.1865596E-007  0.1257840E+03  0.7546771E-02  0.1233855E+00
         -5   -1    0    0    0  501 -0.00000000000E+00  0.00000000000E+00  0.84057315473E+02  0.84188611370E+02  0.47000000000E+01 0. -1.
          5   -1    0    0  501    0  0.00000000000E+00 -0.00000000000E+00 -0.20331886551E+03  0.20337318179E+03  0.47000000000E+01 0. -1.
         25    2    1    2    0    0  0.55164912598E+01  0.12873459066E+02 -0.20049193376E+02  0.12737185641E+03  0.12500184809E+03 0.  0.
         25    2    1    2    0    0 -0.55164912598E+01 -0.12873459066E+02 -0.99212356663E+02  0.16018993675E+03  0.12498626524E+03 0.  0.
          5    1    4    4  502    0 -0.35731161087E+01 -0.59541711231E+02 -0.96020319260E+02  0.11313697117E+03  0.47000000000E+01 0. -1.
         -5    1    4    4    0  502 -0.19433751511E+01  0.46668252165E+02 -0.31920374024E+01  0.47052965580E+02  0.47000000000E+01 0. -1.
          5    1    3    3  503    0  0.28600883691E+02 -0.21599164795E+01 -0.66831528038E+02  0.72878110068E+02  0.47000000000E+01 0.  1.
         -5    1    3    3    0  503 -0.23084392432E+02  0.15033375545E+02  0.46782334662E+02  0.54493746344E+02  0.47000000000E+01 0.  1.
<mgrwt>
<rscale>  0 0.12578015E+03</rscale>
<asrwt>0</asrwt>
<pdfrwt beam="2">  1        5 0.31294103E-01 0.12578402E+03</pdfrwt>
<pdfrwt beam="1">  1       -5 0.12946173E-01 0.12578402E+03</pdfrwt>
<totfact> 0.35408905E+02</totfact>
</mgrwt>
</event>
<event>
 8    1  0.1865596E-007  0.1379944E+03  0.7546771E-02  0.1216058E+00
          5   -1    0    0  501    0  0.00000000000E+00  0.00000000000E+00  0.83188496472E+02  0.83321161449E+02  0.47000000000E+01 0.  1.
         -5   -1    0    0    0  501 -0.00000000000E+00 -0.00000000000E+00 -0.22961261014E+03  0.22966070786E+03  0.47000000000E+01 0.  1.
         25    2    1    2    0    0  0.89310304666E+01  0.57774675670E+02 -0.83867748251E+02  0.16148143007E+03  0.12499910642E+03 0.  0.
         25    2    1    2    0    0 -0.89310304666E+01 -0.57774675670E+02 -0.62556365419E+02  0.15150043924E+03  0.12498563030E+03 0.  0.
          5    1    3    3  502    0 -0.12551026054E+01 -0.31122951786E+02  0.86697978807E+01  0.32672141125E+02  0.47000000000E+01 0. -1.
         -5    1    3    3    0  502  0.10186133072E+02  0.88897627456E+02 -0.92537546132E+02  0.12880928894E+03  0.47000000000E+01 0. -1.
          5    1    4    4  503    0  0.18759310091E+02  0.33818652538E+02 -0.38650482513E+01  0.39148966430E+02  0.47000000000E+01 0.  1.
         -5    1    4    4    0  503 -0.27690340557E+02 -0.91593328208E+02 -0.58691317167E+02  0.11235147281E+03  0.47000000000E+01 0.  1.
<mgrwt>
<rscale>  0 0.13799134E+03</rscale>
<asrwt>0</asrwt>
<pdfrwt beam="1">  1        5 0.12812135E-01 0.13799440E+03</pdfrwt>
<pdfrwt beam="2">  1       -5 0.35338921E-01 0.13799440E+03</pdfrwt>
<totfact> 0.29277647E+02</totfact>
</mgrwt>
</event>
<event>
 8    1  0.1865596E-007  0.1445595E+03  0.7546771E-02  0.1207325E+00
          5   -1    0    0  501    0  0.00000000000E+00  0.00000000000E+00  0.16800681057E+03  0.16807253910E+03  0.47000000000E+01 0. -1.
         -5   -1    0    0    0  501 -0.00000000000E+00 -0.00000000000E+00 -0.12892773456E+03  0.12901337427E+03  0.47000000000E+01 0. -1.
         25    2    1    2    0    0  0.51249515118E+02 -0.51413342433E+02 -0.87600619376E+01  0.14482463694E+03  0.12501036836E+03 0.  0.
         25    2    1    2    0    0 -0.51249515118E+02  0.51413342433E+02  0.47839137944E+02  0.15226127643E+03  0.12500027440E+03 0.  0.
          5    1    3    3  502    0  0.51660080107E+02 -0.26458919525E+02  0.52565858257E+02  0.78448057678E+02  0.47000000000E+01 0. -1.
         -5    1    3    3    0  502 -0.41056498821E+00 -0.24954422908E+02 -0.61325920195E+02  0.66376579258E+02  0.47000000000E+01 0. -1.
          5    1    4    4  503    0 -0.64726249621E+02  0.61760642236E+02  0.77036315844E+02  0.11815476409E+03  0.47000000000E+01 0. -1.
         -5    1    4    4    0  503  0.13476734503E+02 -0.10347299803E+02 -0.29197177900E+02  0.34106512331E+02  0.47000000000E+01 0. -1.
<mgrwt>
<rscale>  0 0.14455728E+03</rscale>
<asrwt>0</asrwt>
<pdfrwt beam="1">  1        5 0.25858845E-01 0.14455946E+03</pdfrwt>
<pdfrwt beam="2">  1       -5 0.19846680E-01 0.14455946E+03</pdfrwt>
<totfact> 0.24746620E+02</totfact>
</mgrwt>
</event>
<event>
 8    1  0.1865596E-007  0.1965972E+03  0.7546771E-02  0.1152642E+00
          5   -1    0    0  501    0  0.00000000000E+00  0.00000000000E+00  0.62075530747E+02  0.62253204877E+02  0.47000000000E+01 0.  1.
         -5   -1    0    0    0  501 -0.00000000000E+00 -0.00000000000E+00 -0.82263961931E+03  0.82265304550E+03  0.47000000000E+01 0.  1.
         25    2    1    2    0    0 -0.55548089416E+01 -0.15163964699E+03 -0.59900668548E+03  0.63044354869E+03  0.12499848160E+03 0.  0.
         25    2    1    2    0    0  0.55548089416E+01  0.15163964699E+03 -0.16155740309E+03  0.25446270168E+03  0.12500013445E+03 0.  0.
          5    1    4    4  502    0  0.33377268406E+01 -0.94093459001E+01  0.12901241719E+02  0.16976697223E+02  0.47000000000E+01 0.  1.
         -5    1    4    4    0  502  0.22170821010E+01  0.16104899289E+03 -0.17445864481E+03  0.23748600446E+03  0.47000000000E+01 0.  1.
          5    1    3    3  503    0  0.55976652520E+02 -0.45662168810E+02 -0.26200127280E+03  0.27181827797E+03  0.47000000000E+01 0. -1.
         -5    1    3    3    0  503 -0.61531461462E+02 -0.10597747818E+03 -0.33700541267E+03  0.35862527073E+03  0.47000000000E+01 0. -1.
<mgrwt>
<rscale>  0 0.19659697E+03</rscale>
<asrwt>0</asrwt>
<pdfrwt beam="1">  1        5 0.95647823E-02 0.19659723E+03</pdfrwt>
<pdfrwt beam="2">  1       -5 0.12657463E+00 0.19659723E+03</pdfrwt>
<totfact> 0.30424186E+01</totfact>
</mgrwt>
</event>
<event>
 8    1  0.1865596E-007  0.1265740E+03  0.7546771E-02  0.1232631E+00
         -5   -1    0    0    0  501 -0.00000000000E+00  0.00000000000E+00  0.61739134476E+02  0.61917773909E+02  0.47000000000E+01 0. -1.
          5   -1    0    0  501    0  0.00000000000E+00 -0.00000000000E+00 -0.29146564820E+03  0.29150354043E+03  0.47000000000E+01 0. -1.
         25    2    1    2    0    0 -0.17189679850E+02 -0.10003314344E+02 -0.55832594852E+02  0.13834108191E+03  0.12500169961E+03 0.  0.
         25    2    1    2    0    0  0.17189679850E+02  0.10003314344E+02 -0.17389391887E+03  0.21508023243E+03  0.12499943987E+03 0.  0.
          5    1    3    3  502    0 -0.13011872613E+02 -0.21319910778E+02  0.36846773921E+02  0.44761838354E+02  0.47000000000E+01 0.  1.
         -5    1    3    3    0  502 -0.41778072366E+01  0.11316596435E+02 -0.92679368773E+02  0.93579243555E+02  0.47000000000E+01 0.  1.
          5    1    4    4  503    0  0.32596349957E+02 -0.33382423686E+02 -0.14470479802E+02  0.49075381072E+02  0.47000000000E+01 0. -1.
         -5    1    4    4    0  503 -0.15406670107E+02  0.43385738029E+02 -0.15942343907E+03  0.16600485135E+03  0.47000000000E+01 0. -1.
<mgrwt>
<rscale>  0 0.12657344E+03</rscale>
<asrwt>0</asrwt>
<pdfrwt beam="2">  1        5 0.44857524E-01 0.12657400E+03</pdfrwt>
<pdfrwt beam="1">  1       -5 0.95149848E-02 0.12657400E+03</pdfrwt>
<totfact> 0.29439860E+02</totfact>
</mgrwt>
</event>
<event>
 8    1  0.1865596E-007  0.1286032E+03  0.7546771E-02  0.1229545E+00
          5   -1    0    0  501    0  0.00000000000E+00  0.00000000000E+00  0.37088318275E+02  0.37384934833E+02  0.47000000000E+01 0. -1.
         -5   -1    0    0    0  501 -0.00000000000E+00 -0.00000000000E+00 -0.45941562547E+03  0.45943966625E+03  0.47000000000E+01 0. -1.
         25    2    1    2    0    0 -0.17484072910E+02  0.24633456795E+02 -0.25689644056E+03  0.28728661658E+03  0.12500127558E+03 0.  0.
         25    2    1    2    0    0  0.17484072910E+02 -0.24633456795E+02 -0.16543086663E+03  0.20953798450E+03  0.12500518115E+03 0.  0.
          5    1    3    3  502    0  0.37495959827E+02  0.45654504513E+02 -0.18493625255E+03  0.19420038180E+03  0.47000000000E+01 0. -1.
         -5    1    3    3    0  502 -0.54980032737E+02 -0.21021047718E+02 -0.71960188013E+02  0.93086234782E+02  0.47000000000E+01 0. -1.
          5    1    4    4  503    0  0.37354603689E+02 -0.20352959322E+02 -0.17939740871E+03  0.18443191053E+03  0.47000000000E+01 0.  1.
         -5    1    4    4    0  503 -0.19870530779E+02 -0.42804974729E+01  0.13966542084E+02  0.25106073963E+02  0.47000000000E+01 0.  1.
<mgrwt>
<rscale>  0 0.12860230E+03</rscale>
<asrwt>0</asrwt>
<pdfrwt beam="1">  1        5 0.57305614E-02 0.12860325E+03</pdfrwt>
<pdfrwt beam="2">  1       -5 0.70703989E-01 0.12860325E+03</pdfrwt>
<totfact> 0.26253005E+02</totfact>
</mgrwt>
</event>
<event>
 8    1  0.1865596E-007  0.1734276E+03  0.7546771E-02  0.1174322E+00
         -5   -1    0    0    0  501 -0.00000000000E+00  0.00000000000E+00  0.23838691303E+02  0.24297596651E+02  0.47000000000E+01 0.  1.
          5   -1    0    0  501    0  0.00000000000E+00 -0.00000000000E+00 -0.15748827824E+04  0.15748897956E+04  0.47000000000E+01 0.  1.
         25    2    1    2    0    0 -0.11565853877E+03  0.32735244863E+02 -0.41192285648E+03  0.44693989121E+03  0.12500533114E+03 0.  0.
         25    2    1    2    0    0  0.11565853877E+03 -0.32735244863E+02 -0.11391212346E+04  0.11522475011E+04  0.12501448988E+03 0.  0.
          5    1    3    3  502    0 -0.11169708309E+03  0.13506921980E+01 -0.17364472557E+03  0.20652516422E+03  0.47000000000E+01 0. -1.
         -5    1    3    3    0  502 -0.39614556773E+01  0.31384552665E+02 -0.23827813092E+03  0.24041472698E+03  0.47000000000E+01 0. -1.
          5    1    4    4  503    0  0.20188001088E+02 -0.48694969621E+02 -0.16411859244E+03  0.17244059220E+03  0.47000000000E+01 0. -1.
         -5    1    4    4    0  503  0.95470537682E+02  0.15959724758E+02 -0.97500264221E+03  0.97980690889E+03  0.47000000000E+01 0. -1.
<mgrwt>
<rscale>  0 0.17342590E+03</rscale>
<asrwt>0</asrwt>
<pdfrwt beam="2">  1        5 0.24232542E+00 0.17342755E+03</pdfrwt>
<pdfrwt beam="1">  1       -5 0.37033321E-02 0.17342755E+03</pdfrwt>
<totfact> 0.21096939E+01</totfact>
</mgrwt>
</event>
<event>
 8    1  0.1865596E-007  0.1271452E+03  0.7546771E-02  0.1231757E+00
         -5   -1    0    0    0  501 -0.00000000000E+00  0.00000000000E+00  0.89314388198E+02  0.89437966989E+02  0.47000000000E+01 0. -1.
          5   -1    0    0  501    0  0.00000000000E+00 -0.00000000000E+00 -0.19013954254E+03  0.19019762259E+03  0.47000000000E+01 0. -1.
         25    2    1    2    0    0  0.11196834589E+02  0.20398063238E+02 -0.19288599559E+02  0.12859221800E+03  0.12498983307E+03 0.  0.
         25    2    1    2    0    0 -0.11196834589E+02 -0.20398063238E+02 -0.81536554783E+02  0.15104337157E+03  0.12499776094E+03 0.  0.
          5    1    3    3  502    0  0.48898752965E+02 -0.33833364404E+02 -0.18215964603E+02  0.62367427034E+02  0.47000000000E+01 0.  1.
         -5    1    3    3    0  502 -0.37701918377E+02  0.54231427642E+02 -0.10726349555E+01  0.66224790970E+02  0.47000000000E+01 0.  1.
          5    1    4    4  503    0  0.11714920064E+02  0.41880686541E+02  0.25584326424E+01  0.43816285041E+02  0.47000000000E+01 0.  1.
         -5    1    4    4    0  503 -0.22911754652E+02 -0.62278749779E+02 -0.84094987426E+02  0.10722708653E+03  0.47000000000E+01 0.  1.
<mgrwt>
<rscale>  0 0.12714321E+03</rscale>
<asrwt>0</asrwt>
<pdfrwt beam="2">  1        5 0.29266211E-01 0.12714515E+03</pdfrwt>
<pdfrwt beam="1">  1       -5 0.13754649E-01 0.12714515E+03</pdfrwt>
<totfact> 0.36382229E+02</totfact>
</mgrwt>
</event>
<event>
 8    1  0.1865596E-007  0.1484174E+03  0.7546771E-02  0.1202432E+00
          5   -1    0    0  501    0  0.00000000000E+00  0.00000000000E+00  0.10739367238E+04  0.10739470083E+04  0.47000000000E+01 0. -1.
         -5   -1    0    0    0  501 -0.00000000000E+00 -0.00000000000E+00 -0.20439812005E+02  0.20973218990E+02  0.47000000000E+01 0. -1.
         25    2    1    2    0    0 -0.34131499124E+02 -0.72370798663E+02  0.47215651190E+03  0.49493324001E+03  0.12499859440E+03 0.  0.
         25    2    1    2    0    0  0.34131499124E+02  0.72370798663E+02  0.58134039987E+03  0.59998698730E+03  0.12500093071E+03 0.  0.
          5    1    4    4  502    0 -0.30514697590E+02 -0.18445151463E+02  0.11542004708E+03  0.12089353849E+03  0.47000000000E+01 0. -1.
         -5    1    4    4    0  502  0.64646196714E+02  0.90815950126E+02  0.46592035279E+03  0.47909344881E+03  0.47000000000E+01 0. -1.
          5    1    3    3  503    0  0.30129664823E+02 -0.62042565138E+02  0.34664863811E+03  0.35347481508E+03  0.47000000000E+01 0. -1.
         -5    1    3    3    0  503 -0.64261163947E+02 -0.10328233525E+02  0.12550787379E+03  0.14145842492E+03  0.47000000000E+01 0. -1.
<mgrwt>
<rscale>  0 0.14841691E+03</rscale>
<asrwt>0</asrwt>
<pdfrwt beam="1">  1        5 0.16526290E+00 0.14841740E+03</pdfrwt>
<pdfrwt beam="2">  1       -5 0.31864081E-02 0.14841740E+03</pdfrwt>
<totfact> 0.86597323E+01</totfact>
</mgrwt>
</event>
<event>
 8    1  0.1865596E-007  0.1362510E+03  0.7546771E-02  0.1218467E+00
          5   -1    0    0  501    0  0.00000000000E+00  0.00000000000E+00  0.55415978538E+03  0.55417971609E+03  0.47000000000E+01 0. -1.
         -5   -1    0    0    0  501 -0.00000000000E+00 -0.00000000000E+00 -0.35546003671E+02  0.35855381423E+02  0.47000000000E+01 0. -1.
         25    2    1    2    0    0  0.30265842272E+01  0.54120699660E+02  0.18570644530E+03  0.23032461816E+03  0.12499734221E+03 0.  0.
         25    2    1    2    0    0 -0.30265842272E+01 -0.54120699660E+02  0.33290733641E+03  0.35971047936E+03  0.12500449585E+03 0.  0.
          5    1    3    3  502    0  0.49276645948E+02  0.71098261699E+02  0.11348887531E+03  0.14277592750E+03  0.47000000000E+01 0. -1.
         -5    1    3    3    0  502 -0.46250061721E+02 -0.16977562038E+02  0.72217569986E+02  0.87548690662E+02  0.47000000000E+01 0. -1.
          5    1    4    4  503    0  0.17228398863E+02 -0.12727679188E+02  0.30467437549E+03  0.30546256174E+03  0.47000000000E+01 0. -1.
         -5    1    4    4    0  503 -0.20254983090E+02 -0.41393020473E+02  0.28232960919E+02  0.54247917620E+02  0.47000000000E+01 0. -1.
<mgrwt>
<rscale>  0 0.13624936E+03</rscale>
<asrwt>0</asrwt>
<pdfrwt beam="1">  1        5 0.85280671E-01 0.13625100E+03</pdfrwt>
<pdfrwt beam="2">  1       -5 0.54939481E-02 0.13625100E+03</pdfrwt>
<totfact> 0.18680791E+02</totfact>
</mgrwt>
</event>
<event>
 8    1  0.1865596E-007  0.1266508E+03  0.7546771E-02  0.1232512E+00
         -5   -1    0    0    0  501 -0.00000000000E+00  0.00000000000E+00  0.32440481572E+03  0.32443886090E+03  0.47000000000E+01 0. -1.
          5   -1    0    0  501    0  0.00000000000E+00 -0.00000000000E+00 -0.50170419101E+02  0.50390087843E+02  0.47000000000E+01 0. -1.
         25    2    1    2    0    0  0.16432157505E+02 -0.12075565575E+02  0.16178183253E+03  0.20545950292E+03  0.12499764365E+03 0.  0.
         25    2    1    2    0    0 -0.16432157505E+02  0.12075565575E+02  0.11245256409E+03  0.16936944583E+03  0.12499837969E+03 0.  0.
          5    1    3    3  502    0 -0.76032520291E+01  0.36773885115E+02  0.14261477868E+03  0.14755064611E+03  0.47000000000E+01 0.  1.
         -5    1    3    3    0  502  0.24035409535E+02 -0.48849450690E+02  0.19167053845E+02  0.57908856812E+02  0.47000000000E+01 0.  1.
          5    1    4    4  503    0 -0.62666295433E+02  0.14246872089E+02  0.22776926843E+02  0.68344102482E+02  0.47000000000E+01 0.  1.
         -5    1    4    4    0  503  0.46234137927E+02 -0.21713065138E+01  0.89675637251E+02  0.10102534335E+03  0.47000000000E+01 0.  1.
<mgrwt>
<rscale>  0 0.12665064E+03</rscale>
<asrwt>0</asrwt>
<pdfrwt beam="2">  1        5 0.77380426E-02 0.12665082E+03</pdfrwt>
<pdfrwt beam="1">  1       -5 0.49927949E-01 0.12665082E+03</pdfrwt>
<totfact> 0.33576831E+02</totfact>
</mgrwt>
</event>
<event>
 8    1  0.1865596E-007  0.1295786E+03  0.7546771E-02  0.1228083E+00
          5   -1    0    0  501    0  0.00000000000E+00  0.00000000000E+00  0.60890567281E+02  0.61071688890E+02  0.47000000000E+01 0.  1.
         -5   -1    0    0    0  501 -0.00000000000E+00 -0.00000000000E+00 -0.28561937665E+03  0.28565804438E+03  0.47000000000E+01 0.  1.
         25    2    1    2    0    0  0.72559192016E+01 -0.33367499700E+02 -0.14556896198E+03  0.19488700499E+03  0.12499833448E+03 0.  0.
         25    2    1    2    0    0 -0.72559192016E+01  0.33367499700E+02 -0.79159847391E+02  0.15184272828E+03  0.12499557709E+03 0.  0.
          5    1    4    4  502    0 -0.76144045689E+01  0.37162683547E+02  0.26179087752E+02  0.46330107283E+02  0.47000000000E+01 0.  1.
         -5    1    4    4    0  502  0.35848536726E+00 -0.37951838462E+01 -0.10533893514E+03  0.10551262099E+03  0.47000000000E+01 0.  1.
          5    1    3    3  503    0  0.20712539580E+02 -0.41996265903E+02  0.12965279557E+01  0.47079365229E+02  0.47000000000E+01 0. -1.
         -5    1    3    3    0  503 -0.13456620378E+02  0.86287662032E+01 -0.14686548993E+03  0.14780763976E+03  0.47000000000E+01 0. -1.
<mgrwt>
<rscale>  0 0.12957797E+03</rscale>
<asrwt>0</asrwt>
<pdfrwt beam="1">  1        5 0.93846866E-02 0.12957863E+03</pdfrwt>
<pdfrwt beam="2">  1       -5 0.43958349E-01 0.12957863E+03</pdfrwt>
<totfact> 0.31717502E+02</totfact>
</mgrwt>
</event>
<event>
 8    1  0.1865596E-007  0.1269000E+03  0.7546771E-02  0.1232133E+00
         -5   -1    0    0    0  501 -0.00000000000E+00  0.00000000000E+00  0.13126544357E+03  0.13134955910E+03  0.47000000000E+01 0. -1.
          5   -1    0    0  501    0  0.00000000000E+00 -0.00000000000E+00 -0.12319492112E+03  0.12328454319E+03  0.47000000000E+01 0. -1.
         25    2    1    2    0    0 -0.14139499311E+02 -0.16632895416E+02  0.13569931468E+02  0.12761496734E+03  0.12499943279E+03 0.  0.
         25    2    1    2    0    0  0.14139499311E+02  0.16632895416E+02 -0.54994090173E+01  0.12701913495E+03  0.12500815371E+03 0.  0.
          5    1    4    4  502    0 -0.27801674803E+00 -0.51760846516E+02  0.14875970834E+02  0.54061511574E+02  0.47000000000E+01 0. -1.
         -5    1    4    4    0  502  0.14417516060E+02  0.68393741932E+02 -0.20375379851E+02  0.72957623377E+02  0.47000000000E+01 0. -1.
          5    1    3    3  503    0 -0.41802139826E+02 -0.40440999441E+02 -0.33952176396E+02  0.67510988823E+02  0.47000000000E+01 0. -1.
         -5    1    3    3    0  503  0.27662640514E+02  0.23808104025E+02  0.47522107864E+02  0.60103978515E+02  0.47000000000E+01 0. -1.
<mgrwt>
<rscale>  0 0.12689788E+03</rscale>
<asrwt>0</asrwt>
<pdfrwt beam="2">  1        5 0.18966429E-01 0.12690003E+03</pdfrwt>
<pdfrwt beam="1">  1       -5 0.20208048E-01 0.12690003E+03</pdfrwt>
<totfact> 0.41043088E+02</totfact>
</mgrwt>
</event>
<event>
 8    1  0.1865596E-007  0.1407189E+03  0.7546771E-02  0.1212370E+00
          5   -1    0    0  501    0  0.00000000000E+00  0.00000000000E+00  0.84771877118E+03  0.84773180017E+03  0.47000000000E+01 0.  1.
         -5   -1    0    0    0  501 -0.00000000000E+00 -0.00000000000E+00 -0.29501004451E+02  0.29873052466E+02  0.47000000000E+01 0.  1.
         25    2    1    2    0    0 -0.39939094373E+02 -0.50817449916E+02  0.20628966560E+03  0.24970531992E+03  0.12497910300E+03 0.  0.
         25    2    1    2    0    0  0.39939094373E+02  0.50817449916E+02  0.61192810112E+03  0.62789953271E+03  0.12499711099E+03 0.  0.
          5    1    3    3  502    0  0.28965442252E+02 -0.46438629534E+02  0.15238875599E+03  0.16198754924E+03  0.47000000000E+01 0.  1.
         -5    1    3    3    0  502 -0.68904536625E+02 -0.43788203815E+01  0.53900909618E+02  0.87717770681E+02  0.47000000000E+01 0.  1.
          5    1    4    4  503    0  0.30535322344E+02 -0.29239077394E+02  0.87496829281E+02  0.97288821001E+02  0.47000000000E+01 0.  1.
         -5    1    4    4    0  503  0.94037720294E+01  0.80056527310E+02  0.52443127184E+03  0.53061071171E+03  0.47000000000E+01 0.  1.
<mgrwt>
<rscale>  0 0.14071495E+03</rscale>
<asrwt>0</asrwt>
<pdfrwt beam="1">  1        5 0.13044787E+00 0.14071895E+03</pdfrwt>
<pdfrwt beam="2">  1       -5 0.45682382E-02 0.14071895E+03</pdfrwt>
<totfact> 0.89852165E+01</totfact>
</mgrwt>
</event>
<event>
 8    1  0.1865596E-007  0.1452304E+03  0.7546771E-02  0.1206460E+00
         -5   -1    0    0    0  501 -0.00000000000E+00  0.00000000000E+00  0.11914370528E+03  0.11923637242E+03  0.47000000000E+01 0.  1.
          5   -1    0    0  501    0  0.00000000000E+00 -0.00000000000E+00 -0.38583473175E+03  0.38586335693E+03  0.47000000000E+01 0.  1.
         25    2    1    2    0    0 -0.61184160805E+02  0.41503998332E+02  0.52495721326E+02  0.15442600391E+03  0.12500202605E+03 0.  0.
         25    2    1    2    0    0  0.61184160805E+02 -0.41503998332E+02 -0.31918674779E+03  0.35067372544E+03  0.12500319331E+03 0.  0.
          5    1    4    4  502    0  0.35390948782E+02 -0.16928700098E+02 -0.31141027427E+03  0.31390691146E+03  0.47000000000E+01 0. -1.
         -5    1    4    4    0  502  0.25793212024E+02 -0.24575298234E+02 -0.77764735224E+01  0.36766813980E+02  0.47000000000E+01 0. -1.
          5    1    3    3  503    0  0.22184928765E+02 -0.14669638490E+02 -0.17191476128E+02  0.32015718158E+02  0.47000000000E+01 0. -1.
         -5    1    3    3    0  503 -0.83369089570E+02  0.56173636821E+02  0.69687197454E+02  0.12241028575E+03  0.47000000000E+01 0. -1.
<mgrwt>
<rscale>  0 0.14523019E+03</rscale>
<asrwt>0</asrwt>
<pdfrwt beam="2">  1        5 0.59368519E-01 0.14523044E+03</pdfrwt>
<pdfrwt beam="1">  1       -5 0.18339131E-01 0.14523044E+03</pdfrwt>
<totfact> 0.52419577E+01</totfact>
</mgrwt>
</event>
<event>
 8    1  0.1865596E-007  0.1264118E+03  0.7546771E-02  0.1232882E+00
         -5   -1    0    0    0  501 -0.00000000000E+00  0.00000000000E+00  0.32497453075E+03  0.32500851626E+03  0.47000000000E+01 0. -1.
          5   -1    0    0  501    0  0.00000000000E+00 -0.00000000000E+00 -0.50308067626E+02  0.50527137939E+02  0.47000000000E+01 0. -1.
         25    2    1    2    0    0  0.18286644740E+02  0.43806346797E+01  0.10737903446E+03  0.16585728106E+03  0.12499915720E+03 0.  0.
         25    2    1    2    0    0 -0.18286644740E+02 -0.43806346797E+01  0.16728742867E+03  0.20967837314E+03  0.12500538003E+03 0.  0.
          5    1    4    4  502    0 -0.35119722408E+02 -0.90865887176E+01  0.18244157601E+03  0.18607251181E+03  0.47000000000E+01 0. -1.
         -5    1    4    4    0  502  0.16833077668E+02  0.47059540379E+01 -0.15154147341E+02  0.23605861323E+02  0.47000000000E+01 0. -1.
          5    1    3    3  503    0  0.42828735892E+02 -0.20395024422E+02  0.11948621354E+03  0.12864409378E+03  0.47000000000E+01 0. -1.
         -5    1    3    3    0  503 -0.24542091152E+02  0.24775659102E+02 -0.12107179076E+02  0.37213187276E+02  0.47000000000E+01 0. -1.
<mgrwt>
<rscale>  0 0.12641023E+03</rscale>
<asrwt>0</asrwt>
<pdfrwt beam="2">  1        5 0.77591683E-02 0.12641177E+03</pdfrwt>
<pdfrwt beam="1">  1       -5 0.50015549E-01 0.12641177E+03</pdfrwt>
<totfact> 0.33274031E+02</totfact>
</mgrwt>
</event>
<event>
 8    1  0.1865596E-007  0.1270559E+03  0.7546771E-02  0.1231894E+00
          5   -1    0    0  501    0  0.00000000000E+00  0.00000000000E+00  0.32979657988E+03  0.32983006852E+03  0.47000000000E+01 0. -1.
         -5   -1    0    0    0  501 -0.00000000000E+00 -0.00000000000E+00 -0.48918077118E+02  0.49143344095E+02  0.47000000000E+01 0. -1.
         25    2    1    2    0    0  0.21907259545E+02 -0.60352812663E+01  0.13101871310E+03  0.18250165191E+03  0.12499838850E+03 0.  0.
         25    2    1    2    0    0 -0.21907259545E+02  0.60352812663E+01  0.14985978966E+03  0.19647176070E+03  0.12500737400E+03 0.  0.
          5    1    4    4  502    0 -0.63126483745E+02  0.68038465734E+01  0.14003906464E+03  0.15383196970E+03  0.47000000000E+01 0. -1.
         -5    1    4    4    0  502  0.41219224200E+02 -0.76856530717E+00  0.98207250207E+01  0.42639790997E+02  0.47000000000E+01 0. -1.
          5    1    3    3  503    0 -0.97247990349E+01 -0.59321244900E+02  0.40248054241E+02  0.72495363182E+02  0.47000000000E+01 0.  1.
         -5    1    3    3    0  503  0.31632058580E+02  0.53285963634E+02  0.90770658862E+02  0.11000628873E+03  0.47000000000E+01 0.  1.
<mgrwt>
<rscale>  0 0.12705367E+03</rscale>
<asrwt>0</asrwt>
<pdfrwt beam="1">  1        5 0.50757840E-01 0.12705588E+03</pdfrwt>
<pdfrwt beam="2">  1       -5 0.75457622E-02 0.12705588E+03</pdfrwt>
<totfact> 0.33886621E+02</totfact>
</mgrwt>
</event>
<event>
 8    1  0.1865596E-007  0.1483706E+03  0.7546771E-02  0.1202508E+00
          5   -1    0    0  501    0  0.00000000000E+00  0.00000000000E+00  0.33359666202E+02  0.33689127758E+02  0.47000000000E+01 0. -1.
         -5   -1    0    0    0  501 -0.00000000000E+00 -0.00000000000E+00 -0.71196056396E+03  0.71197607729E+03  0.47000000000E+01 0. -1.
         25    2    1    2    0    0 -0.60407687593E+02 -0.52342643558E+02 -0.44369169504E+03  0.46782322475E+03  0.12492961341E+03 0.  0.
         25    2    1    2    0    0  0.60407687593E+02  0.52342643558E+02 -0.23490920272E+03  0.27784198030E+03  0.12499996577E+03 0.  0.
          5    1    4    4  502    0  0.26954150842E+02  0.23942196747E+02  0.24261008343E+01  0.36438043278E+02  0.47000000000E+01 0. -1.
         -5    1    4    4    0  502  0.33453536751E+02  0.28400446811E+02 -0.23733530355E+03  0.24140393703E+03  0.47000000000E+01 0. -1.
          5    1    3    3  503    0 -0.11925648824E+02  0.81484994200E+01  0.20850779714E+01  0.15331558721E+02  0.47000000000E+01 0. -1.
         -5    1    3    3    0  503 -0.48482038769E+02 -0.60491142978E+02 -0.44577677302E+03  0.45249166602E+03  0.47000000000E+01 0. -1.
<mgrwt>
<rscale>  0 0.14835577E+03</rscale>
<asrwt>0</asrwt>
<pdfrwt beam="1">  1        5 0.51587934E-02 0.14837059E+03</pdfrwt>
<pdfrwt beam="2">  1       -5 0.10955892E+00 0.14837059E+03</pdfrwt>
<totfact> 0.11641791E+02</totfact>
</mgrwt>
</event>
<event>
 8    1  0.1865596E-007  0.1377350E+03  0.7546771E-02  0.1216411E+00
         -5   -1    0    0    0  501 -0.00000000000E+00  0.00000000000E+00  0.21424228362E+03  0.21429383120E+03  0.47000000000E+01 0. -1.
          5   -1    0    0  501    0  0.00000000000E+00 -0.00000000000E+00 -0.89840926561E+02  0.89963782075E+02  0.47000000000E+01 0. -1.
         25    2    1    2    0    0  0.53860055504E+02  0.21088188516E+02  0.81300907159E+02  0.15993985072E+03  0.12500120427E+03 0.  0.
         25    2    1    2    0    0 -0.53860055504E+02 -0.21088188516E+02  0.43100449897E+02  0.14431776256E+03  0.12499740211E+03 0.  0.
          5    1    4    4  502    0 -0.81221582087E+02 -0.78513294530E+01  0.66743322902E+02  0.10552416748E+03  0.47000000000E+01 0. -1.
         -5    1    4    4    0  502  0.27361526583E+02 -0.13236859063E+02 -0.23642873005E+02  0.38793595074E+02  0.47000000000E+01 0. -1.
          5    1    3    3  503    0  0.75440038030E+02  0.68377921100E+01  0.10153802746E+03  0.12676756588E+03  0.47000000000E+01 0.  1.
         -5    1    3    3    0  503 -0.21579982526E+02  0.14250396406E+02 -0.20237120296E+02  0.33172284839E+02  0.47000000000E+01 0.  1.
<mgrwt>
<rscale>  0 0.13773409E+03</rscale>
<asrwt>0</asrwt>
<pdfrwt beam="2">  1        5 0.13835097E-01 0.13773496E+03</pdfrwt>
<pdfrwt beam="1">  1       -5 0.32973767E-01 0.13773496E+03</pdfrwt>
<totfact> 0.29285188E+02</totfact>
</mgrwt>
</event>
<event>
 8    1  0.1865596E-007  0.1251522E+03  0.7546771E-02  0.1234843E+00
         -5   -1    0    0    0  501 -0.00000000000E+00  0.00000000000E+00  0.23500710249E+02  0.23966088170E+02  0.47000000000E+01 0. -1.
          5   -1    0    0  501    0  0.00000000000E+00 -0.00000000000E+00 -0.76750460004E+03  0.76751899070E+03  0.47000000000E+01 0. -1.
         25    2    1    2    0    0  0.47403353653E+01  0.38047648770E+01 -0.22351295486E+03  0.25616618191E+03  0.12500449891E+03 0.  0.
         25    2    1    2    0    0 -0.47403353653E+01 -0.38047648770E+01 -0.52049093494E+03  0.53531889696E+03  0.12497424167E+03 0.  0.
          5    1    4    4  502    0 -0.25876339361E+02 -0.24070226291E+02 -0.49479783635E+03  0.49608058780E+03  0.47000000000E+01 0.  1.
         -5    1    4    4    0  502  0.21136003996E+02  0.20265461414E+02 -0.25693098583E+02  0.39238309164E+02  0.47000000000E+01 0.  1.
          5    1    3    3  503    0 -0.11779769311E+02 -0.20174831506E+02  0.61547359377E+01  0.24612142649E+02  0.47000000000E+01 0.  1.
         -5    1    3    3    0  503  0.16520104676E+02  0.23979596383E+02 -0.22966769080E+03  0.23155403926E+03  0.47000000000E+01 0.  1.
<mgrwt>
<rscale>  0 0.12514464E+03</rscale>
<asrwt>0</asrwt>
<pdfrwt beam="2">  1        5 0.11811452E+00 0.12515219E+03</pdfrwt>
<pdfrwt beam="1">  1       -5 0.36523997E-02 0.12515219E+03</pdfrwt>
<totfact> 0.16113541E+02</totfact>
</mgrwt>
</event>
<event>
 8    1  0.1865596E-007  0.1272594E+03  0.7546771E-02  0.1231586E+00
         -5   -1    0    0    0  501 -0.00000000000E+00  0.00000000000E+00  0.41265799429E+03  0.41268475893E+03  0.47000000000E+01 0.  1.
          5   -1    0    0  501    0  0.00000000000E+00 -0.00000000000E+00 -0.40586104872E+02  0.40857336045E+02  0.47000000000E+01 0.  1.
         25    2    1    2    0    0  0.12059040534E+02 -0.20515617049E+02  0.22966583524E+03  0.26255925430E+03  0.12499862055E+03 0.  0.
         25    2    1    2    0    0 -0.12059040534E+02  0.20515617049E+02  0.14240605418E+03  0.19098284068E+03  0.12501459981E+03 0.  0.
          5    1    3    3  502    0  0.56289203240E+02 -0.23190649521E+01  0.19572230936E+03  0.20372325554E+03  0.47000000000E+01 0.  1.
         -5    1    3    3    0  502 -0.44230162705E+02 -0.18196552097E+02  0.33943525875E+02  0.58835998759E+02  0.47000000000E+01 0.  1.
          5    1    4    4  503    0 -0.43838375384E+00 -0.49482655588E+02  0.30267139517E+02  0.58197208858E+02  0.47000000000E+01 0.  1.
         -5    1    4    4    0  503 -0.11620656780E+02  0.69998272637E+02  0.11213891466E+03  0.13278563182E+03  0.47000000000E+01 0.  1.
<mgrwt>
<rscale>  0 0.12725550E+03</rscale>
<asrwt>0</asrwt>
<pdfrwt beam="2">  1        5 0.62669392E-02 0.12725942E+03</pdfrwt>
<pdfrwt beam="1">  1       -5 0.63508765E-01 0.12725942E+03</pdfrwt>
<totfact> 0.28595362E+02</totfact>
</mgrwt>
</event>
<event>
 8    1  0.1865596E-007  0.1356488E+03  0.7546771E-02  0.1219308E+00
          5   -1    0    0  501    0  0.00000000000E+00  0.00000000000E+00  0.13429729920E+03  0.13437951694E+03  0.47000000000E+01 0. -1.
         -5   -1    0    0    0  501 -0.00000000000E+00 -0.00000000000E+00 -0.15576390508E+03  0.15583479754E+03  0.47000000000E+01 0. -1.
         25    2    1    2    0    0  0.52385586425E+02 -0.54888612519E+01 -0.61279050603E+02  0.14884801723E+03  0.12500493161E+03 0.  0.
         25    2    1    2    0    0 -0.52385586425E+02  0.54888612519E+01  0.39812444722E+02  0.14136629725E+03  0.12500008792E+03 0.  0.
          5    1    3    3  502    0 -0.37275355013E+02 -0.81253555108E+01 -0.42084869665E+02  0.56997366152E+02  0.47000000000E+01 0.  1.
         -5    1    3    3    0  502  0.89660941438E+02  0.26364942589E+01 -0.19194180938E+02  0.91850651077E+02  0.47000000000E+01 0.  1.
          5    1    4    4  503    0  0.36395365971E+02 -0.21464692707E+02  0.87118992813E+01  0.43397498617E+02  0.47000000000E+01 0.  1.
         -5    1    4    4    0  503 -0.88780952395E+02  0.26953553959E+02  0.31100545440E+02  0.97968798635E+02  0.47000000000E+01 0.  1.
<mgrwt>
<rscale>  0 0.13564773E+03</rscale>
<asrwt>0</asrwt>
<pdfrwt beam="1">  1        5 0.20672901E-01 0.13564885E+03</pdfrwt>
<pdfrwt beam="2">  1       -5 0.23975455E-01 0.13564885E+03</pdfrwt>
<totfact> 0.25939649E+02</totfact>
</mgrwt>
</event>
<event>
 8    1  0.1865596E-007  0.1605751E+03  0.7546771E-02  0.1188053E+00
          5   -1    0    0  501    0  0.00000000000E+00  0.00000000000E+00  0.68779850695E+02  0.68940248488E+02  0.47000000000E+01 0.  1.
         -5   -1    0    0    0  501 -0.00000000000E+00 -0.00000000000E+00 -0.39336317954E+03  0.39339125692E+03  0.47000000000E+01 0.  1.
         25    2    1    2    0    0  0.86891279569E+02 -0.51037326234E+02 -0.21325345161E+03  0.26694830096E+03  0.12501782924E+03 0.  0.
         25    2    1    2    0    0 -0.86891279569E+02  0.51037326234E+02 -0.11132987724E+03  0.19538320444E+03  0.12500140751E+03 0.  0.
          5    1    3    3  502    0  0.59153591292E+02  0.68621333428E+01 -0.18890517299E+03  0.19812493689E+03  0.47000000000E+01 0.  1.
         -5    1    3    3    0  502  0.27737688277E+02 -0.57899459577E+02 -0.24348278624E+02  0.68823364072E+02  0.47000000000E+01 0.  1.
          5    1    4    4  503    0 -0.79753967487E+02 -0.24836066641E+02 -0.50153491386E+02  0.97544801165E+02  0.47000000000E+01 0. -1.
         -5    1    4    4    0  503 -0.71373120818E+01  0.75873392875E+02 -0.61176385849E+02  0.97838403276E+02  0.47000000000E+01 0. -1.
<mgrwt>
<rscale>  0 0.16057190E+03</rscale>
<asrwt>0</asrwt>
<pdfrwt beam="1">  1        5 0.10596014E-01 0.16057509E+03</pdfrwt>
<pdfrwt beam="2">  1       -5 0.60531909E-01 0.16057509E+03</pdfrwt>
<totfact> 0.13927013E+02</totfact>
</mgrwt>
</event>
<event>
 8    1  0.1865596E-007  0.1297363E+03  0.7546771E-02  0.1227848E+00
         -5   -1    0    0    0  501 -0.00000000000E+00  0.00000000000E+00  0.13497754894E+02  0.14292634018E+02  0.47000000000E+01 0. -1.
          5   -1    0    0  501    0  0.00000000000E+00 -0.00000000000E+00 -0.12108767859E+04  0.12108859074E+04  0.47000000000E+01 0. -1.
         25    2    1    2    0    0  0.33312674894E+02  0.98192721218E+01 -0.58813649839E+03  0.60227573443E+03  0.12500146853E+03 0.  0.
         25    2    1    2    0    0 -0.33312674894E+02 -0.98192721218E+01 -0.60924253263E+03  0.62290280695E+03  0.12500116373E+03 0.  0.
          5    1    3    3  502    0 -0.29776375155E+02  0.45176964282E+02 -0.19059733006E+03  0.19818431534E+03  0.47000000000E+01 0.  1.
         -5    1    3    3    0  502  0.63089050049E+02 -0.35357692160E+02 -0.39753916833E+03  0.40409141909E+03  0.47000000000E+01 0.  1.
          5    1    4    4  503    0 -0.36343478434E+02 -0.47311274863E+02 -0.14160159777E+03  0.15372803143E+03  0.47000000000E+01 0.  1.
         -5    1    4    4    0  503  0.30308035399E+01  0.37492002741E+02 -0.46764093485E+03  0.46917477552E+03  0.47000000000E+01 0.  1.
<mgrwt>
<rscale>  0 0.12973627E+03</rscale>
<asrwt>0</asrwt>
<pdfrwt beam="2">  1        5 0.18635050E+00 0.12973635E+03</pdfrwt>
<pdfrwt beam="1">  1       -5 0.21384248E-02 0.12973635E+03</pdfrwt>
<totfact> 0.11113362E+02</totfact>
</mgrwt>
</event>
<event>
 8    1  0.1865596E-007  0.1391065E+03  0.7546771E-02  0.1214537E+00
         -5   -1    0    0    0  501 -0.00000000000E+00  0.00000000000E+00  0.95763835620E+02  0.95879102064E+02  0.47000000000E+01 0. -1.
          5   -1    0    0  501    0  0.00000000000E+00 -0.00000000000E+00 -0.21629059483E+03  0.21634165436E+03  0.47000000000E+01 0. -1.
         25    2    1    2    0    0  0.42238361588E+02  0.44050228025E+02 -0.19868195595E+02  0.14051528638E+03  0.12500119492E+03 0.  0.
         25    2    1    2    0    0 -0.42238361588E+02 -0.44050228025E+02 -0.10065856362E+03  0.17170547005E+03  0.12500448086E+03 0.  0.
          5    1    4    4  502    0 -0.77745708552E+02 -0.11769813358E+01 -0.34723068449E+02  0.85285180224E+02  0.47000000000E+01 0.  1.
         -5    1    4    4    0  502  0.35507346964E+02 -0.42873246689E+02 -0.65935495168E+02  0.86420289823E+02  0.47000000000E+01 0.  1.
          5    1    3    3  503    0  0.62821861659E+02 -0.53465192540E+01 -0.48460978886E+02  0.79660078113E+02  0.47000000000E+01 0.  1.
         -5    1    3    3    0  503 -0.20583500071E+02  0.49396747279E+02  0.28592783291E+02  0.60855208267E+02  0.47000000000E+01 0.  1.
<mgrwt>
<rscale>  0 0.13910577E+03</rscale>
<asrwt>0</asrwt>
<pdfrwt beam="2">  1        5 0.33288270E-01 0.13910651E+03</pdfrwt>
<pdfrwt beam="1">  1       -5 0.14745692E-01 0.13910651E+03</pdfrwt>
<totfact> 0.25705609E+02</totfact>
</mgrwt>
</event>
<event>
 8    1  0.1865596E-007  0.1579765E+03  0.7546771E-02  0.1191002E+00
         -5   -1    0    0    0  501 -0.00000000000E+00  0.00000000000E+00  0.34514833873E+03  0.34518033798E+03  0.47000000000E+01 0.  1.
          5   -1    0    0  501    0  0.00000000000E+00 -0.00000000000E+00 -0.78938566186E+02  0.79078361336E+02  0.47000000000E+01 0.  1.
         25    2    1    2    0    0 -0.66212803883E+01  0.96372759227E+02  0.19504743979E+03  0.25099397488E+03  0.12499168605E+03 0.  0.
         25    2    1    2    0    0  0.66212803883E+01 -0.96372759227E+02  0.71162332755E+02  0.17326472444E+03  0.12500014823E+03 0.  0.
          5    1    4    4  502    0  0.37440613629E+02 -0.99439226294E+02  0.12930069984E+02  0.10714119649E+03  0.47000000000E+01 0.  1.
         -5    1    4    4    0  502 -0.30819333241E+02  0.30664670666E+01  0.58232262771E+02  0.66123527954E+02  0.47000000000E+01 0.  1.
          5    1    3    3  503    0  0.53706430926E+02  0.62252950771E+02  0.70607082764E+02  0.10847700558E+03  0.47000000000E+01 0.  1.
         -5    1    3    3    0  503 -0.60327711315E+02  0.34119808456E+02  0.12444035703E+03  0.14251696930E+03  0.47000000000E+01 0.  1.
<mgrwt>
<rscale>  0 0.15797487E+03</rscale>
<asrwt>0</asrwt>
<pdfrwt beam="2">  1        5 0.12157609E-01 0.15797654E+03</pdfrwt>
<pdfrwt beam="1">  1       -5 0.53112961E-01 0.15797654E+03</pdfrwt>
<totfact> 0.14434463E+02</totfact>
</mgrwt>
</event>
<event>
 8    1  0.1865596E-007  0.1309342E+03  0.7546771E-02  0.1226076E+00
          5   -1    0    0  501    0  0.00000000000E+00  0.00000000000E+00  0.18663303892E+02  0.19246010293E+02  0.47000000000E+01 0. -1.
         -5   -1    0    0    0  501 -0.00000000000E+00 -0.00000000000E+00 -0.93316818829E+03  0.93318002424E+03  0.47000000000E+01 0. -1.
         25    2    1    2    0    0 -0.37202128489E+02  0.11602824695E+02 -0.54161315710E+03  0.55721502462E+03  0.12500059125E+03 0.  0.
         25    2    1    2    0    0  0.37202128489E+02 -0.11602824695E+02 -0.37289172730E+03  0.39521100991E+03  0.12499951265E+03 0.  0.
          5    1    4    4  502    0 -0.40099504117E+02 -0.12954957479E+02 -0.64114845616E+02  0.76867448130E+02  0.47000000000E+01 0. -1.
         -5    1    4    4    0  502  0.77301632606E+02  0.13521327842E+01 -0.30877688168E+03  0.31834356178E+03  0.47000000000E+01 0. -1.
          5    1    3    3  503    0 -0.74347840990E+02 -0.23874693112E+02 -0.28976285363E+03  0.30013697502E+03  0.47000000000E+01 0. -1.
         -5    1    3    3    0  503  0.37145712501E+02  0.35477517807E+02 -0.25185030347E+03  0.25707804960E+03  0.47000000000E+01 0. -1.
<mgrwt>
<rscale>  0 0.13093397E+03</rscale>
<asrwt>0</asrwt>
<pdfrwt beam="1">  1        5 0.29170123E-02 0.13093423E+03</pdfrwt>
<pdfrwt beam="2">  1       -5 0.14361003E+00 0.13093423E+03</pdfrwt>
<totfact> 0.14158630E+02</totfact>
</mgrwt>
</event>
<event>
 8    1  0.1865596E-007  0.1530559E+03  0.7546771E-02  0.1196769E+00
         -5   -1    0    0    0  501 -0.00000000000E+00  0.00000000000E+00  0.89387507919E+02  0.89510985761E+02  0.47000000000E+01 0. -1.
          5   -1    0    0  501    0  0.00000000000E+00 -0.00000000000E+00 -0.26878300035E+03  0.26882408983E+03  0.47000000000E+01 0. -1.
         25    2    1    2    0    0  0.35809067511E+02  0.80734742695E+02 -0.60701552597E+02  0.16464879853E+03  0.12499664146E+03 0.  0.
         25    2    1    2    0    0 -0.35809067511E+02 -0.80734742695E+02 -0.11869393983E+03  0.19368627706E+03  0.12500293827E+03 0.  0.
          5    1    4    4  502    0  0.76043912913E+01 -0.11027524755E+02 -0.11006841534E+03  0.11098008436E+03  0.47000000000E+01 0.  1.
         -5    1    4    4    0  502 -0.43413458802E+02 -0.69707217940E+02 -0.86255244893E+01  0.82706192699E+02  0.47000000000E+01 0.  1.
          5    1    3    3  503    0  0.10697286087E+02  0.65717183576E+02 -0.97026800346E+02  0.11776871457E+03  0.47000000000E+01 0. -1.
         -5    1    3    3    0  503  0.25111781424E+02  0.15017559119E+02  0.36325247749E+02  0.46880083961E+02  0.47000000000E+01 0. -1.
<mgrwt>
<rscale>  0 0.15305466E+03</rscale>
<asrwt>0</asrwt>
<pdfrwt beam="2">  1        5 0.41363889E-01 0.15305595E+03</pdfrwt>
<pdfrwt beam="1">  1       -5 0.13764583E-01 0.15305595E+03</pdfrwt>
<totfact> 0.19355261E+02</totfact>
</mgrwt>
</event>
<event>
 8    1  0.1865596E-007  0.1366987E+03  0.7546771E-02  0.1217845E+00
          5   -1    0    0  501    0  0.00000000000E+00  0.00000000000E+00  0.12269650568E+03  0.12278649155E+03  0.47000000000E+01 0. -1.
         -5   -1    0    0    0  501 -0.00000000000E+00 -0.00000000000E+00 -0.15243880661E+03  0.15251124471E+03  0.47000000000E+01 0. -1.
         25    2    1    2    0    0  0.55253830865E+02 -0.28780562675E+01 -0.84438345090E+01  0.13695920336E+03  0.12500102403E+03 0.  0.
         25    2    1    2    0    0 -0.55253830865E+02  0.28780562675E+01 -0.21298466420E+02  0.13833853290E+03  0.12499062357E+03 0.  0.
          5    1    4    4  502    0  0.15533575251E+02  0.61719752597E+01 -0.56475541352E+02  0.59084363496E+02  0.47000000000E+01 0.  1.
         -5    1    4    4    0  502 -0.70787406116E+02 -0.32939189922E+01  0.35177074933E+02  0.79254169403E+02  0.47000000000E+01 0.  1.
          5    1    3    3  503    0 -0.20335498565E+02  0.12987851617E+02 -0.45078564452E+02  0.51345727812E+02  0.47000000000E+01 0.  1.
         -5    1    3    3    0  503  0.75589329430E+02 -0.15865907885E+02  0.36634729943E+02  0.85613475544E+02  0.47000000000E+01 0.  1.
<mgrwt>
<rscale>  0 0.13669629E+03</rscale>
<asrwt>0</asrwt>
<pdfrwt beam="1">  1        5 0.18888880E-01 0.13669867E+03</pdfrwt>
<pdfrwt beam="2">  1       -5 0.23464618E-01 0.13669867E+03</pdfrwt>
<totfact> 0.32059482E+02</totfact>
</mgrwt>
</event>
<event>
 8    1  0.1865596E-007  0.1356992E+03  0.7546771E-02  0.1219257E+00
          5   -1    0    0  501    0  0.00000000000E+00  0.00000000000E+00  0.43051684384E+03  0.43054249828E+03  0.47000000000E+01 0.  1.
         -5   -1    0    0    0  501 -0.00000000000E+00 -0.00000000000E+00 -0.59879812398E+02  0.60063981992E+02  0.47000000000E+01 0.  1.
         25    2    1    2    0    0  0.90331559761E+01 -0.51892526995E+02  0.53776994855E+02  0.14591162447E+03  0.12499521877E+03 0.  0.
         25    2    1    2    0    0 -0.90331559761E+01  0.51892526995E+02  0.31686003658E+03  0.34469485581E+03  0.12505930022E+03 0.  0.
          5    1    3    3  502    0  0.62510163202E+01 -0.23640765073E+02  0.93557740380E+02  0.96814780707E+02  0.47000000000E+01 0.  1.
         -5    1    3    3    0  502  0.27821396558E+01 -0.28251761922E+02 -0.39780745525E+02  0.49096843761E+02  0.47000000000E+01 0.  1.
          5    1    4    4  503    0  0.11776525901E+01  0.72918753549E+02  0.31189362364E+03  0.32034084028E+03  0.47000000000E+01 0.  1.
         -5    1    4    4    0  503 -0.10210808566E+02 -0.21026226555E+02  0.49664129443E+01  0.24354015526E+02  0.47000000000E+01 0.  1.
<mgrwt>
<rscale>  0 0.13568439E+03</rscale>
<asrwt>0</asrwt>
<pdfrwt beam="1">  1        5 0.66249500E-01 0.13569916E+03</pdfrwt>
<pdfrwt beam="2">  1       -5 0.92284193E-02 0.13569916E+03</pdfrwt>
<totfact> 0.13751006E+02</totfact>
</mgrwt>
</event>
<event>
 8    1  0.1865596E-007  0.1632154E+03  0.7546771E-02  0.1185120E+00
          5   -1    0    0  501    0  0.00000000000E+00  0.00000000000E+00  0.16681018211E+03  0.16687638196E+03  0.47000000000E+01 0. -1.
         -5   -1    0    0    0  501 -0.00000000000E+00 -0.00000000000E+00 -0.16247906605E+03  0.16254702982E+03  0.47000000000E+01 0. -1.
         25    2    1    2    0    0  0.74892277218E+02  0.73531151789E+02 -0.19965225892E+02  0.16443194349E+03  0.12499428117E+03 0.  0.
         25    2    1    2    0    0 -0.74892277218E+02 -0.73531151789E+02  0.24296341951E+02  0.16499146829E+03  0.12496475065E+03 0.  0.
          5    1    4    4  502    0 -0.83325001505E+02 -0.56753590766E+02 -0.31664904917E+02  0.10577703978E+03  0.47000000000E+01 0.  1.
         -5    1    4    4    0  502  0.84327242867E+01 -0.16777561023E+02  0.55961246869E+02  0.59214428511E+02  0.47000000000E+01 0.  1.
          5    1    3    3  503    0 -0.26731734958E+02  0.32961278599E+01  0.20699658949E+02  0.34293089586E+02  0.47000000000E+01 0.  1.
         -5    1    3    3    0  503  0.10162401218E+03  0.70235023929E+02 -0.40664884841E+02  0.13013885391E+03  0.47000000000E+01 0.  1.
<mgrwt>
<rscale>  0 0.16320971E+03</rscale>
<asrwt>0</asrwt>
<pdfrwt beam="1">  1        5 0.25673425E-01 0.16321536E+03</pdfrwt>
<pdfrwt beam="2">  1       -5 0.25007100E-01 0.16321536E+03</pdfrwt>
<totfact> 0.16851793E+02</totfact>
</mgrwt>
</event>
<event>
 8    1  0.1865596E-007  0.1264522E+03  0.7546771E-02  0.1232817E+00
         -5   -1    0    0    0  501 -0.00000000000E+00  0.00000000000E+00  0.93228071412E+01  0.10440533176E+02  0.47000000000E+01 0. -1.
          5   -1    0    0  501    0  0.00000000000E+00 -0.00000000000E+00 -0.18423185247E+04  0.18423245198E+04  0.47000000000E+01 0. -1.
         25    2    1    2    0    0 -0.15206205253E+02 -0.11764967910E+02 -0.59264447138E+03  0.60598464899E+03  0.12498112737E+03 0.  0.
         25    2    1    2    0    0  0.15206205253E+02  0.11764967910E+02 -0.12403512462E+04  0.12467804040E+04  0.12498207418E+03 0.  0.
          5    1    3    3  502    0  0.30408292602E+02  0.30746172053E+02 -0.95700991338E+02  0.10512260032E+03  0.47000000000E+01 0.  1.
         -5    1    3    3    0  502 -0.45614497855E+02 -0.42511139963E+02 -0.49694348005E+03  0.50086204867E+03  0.47000000000E+01 0.  1.
          5    1    4    4  503    0  0.13929324224E+02  0.57616992114E+02 -0.10160631721E+04  0.10178016523E+04  0.47000000000E+01 0.  1.
         -5    1    4    4    0  503  0.12768810289E+01 -0.45852024204E+02 -0.22428807411E+03  0.22897875172E+03  0.47000000000E+01 0.  1.
<mgrwt>
<rscale>  0 0.12645198E+03</rscale>
<asrwt>0</asrwt>
<pdfrwt beam="2">  1        5 0.28351979E+00 0.12645221E+03</pdfrwt>
<pdfrwt beam="1">  1       -5 0.15207196E-02 0.12645221E+03</pdfrwt>
<totfact> 0.44482962E+01</totfact>
</mgrwt>
</event>
<event>
 8    1  0.1865596E-007  0.1271569E+03  0.7546771E-02  0.1231761E+00
          5   -1    0    0  501    0  0.00000000000E+00  0.00000000000E+00  0.48554880085E+03  0.48557154777E+03  0.47000000000E+01 0.  1.
         -5   -1    0    0    0  501 -0.00000000000E+00 -0.00000000000E+00 -0.44812270073E+02  0.45058068635E+02  0.47000000000E+01 0.  1.
         25    2    1    2    0    0 -0.36078462919E+01 -0.23027951899E+02  0.85203868064E+02  0.15306399549E+03  0.12500233782E+03 0.  0.
         25    2    1    2    0    0  0.36078462919E+01  0.23027951899E+02  0.35553266271E+03  0.37756562091E+03  0.12493606652E+03 0.  0.
          5    1    3    3  502    0 -0.49572812979E+02 -0.47215182520E+02  0.71584736477E+02  0.99162501701E+02  0.47000000000E+01 0. -1.
         -5    1    3    3    0  502  0.45964966688E+02  0.24187230621E+02  0.13619131586E+02  0.53901493791E+02  0.47000000000E+01 0. -1.
          5    1    4    4  503    0 -0.58609947042E+02  0.10984828297E+02  0.12732102675E+03  0.14067169650E+03  0.47000000000E+01 0. -1.
         -5    1    4    4    0  503  0.62217793334E+02  0.12043123602E+02  0.22821163597E+03  0.23689392441E+03  0.47000000000E+01 0. -1.
<mgrwt>
<rscale>  0 0.12714065E+03</rscale>
<asrwt>0</asrwt>
<pdfrwt beam="1">  1        5 0.74720469E-01 0.12715694E+03</pdfrwt>
<pdfrwt beam="2">  1       -5 0.69148531E-02 0.12715694E+03</pdfrwt>
<totfact> 0.16814917E+02</totfact>
</mgrwt>
</event>
<event>
 8    1  0.1865596E-007  0.1359601E+03  0.7546771E-02  0.1218872E+00
          5   -1    0    0  501    0  0.00000000000E+00  0.00000000000E+00  0.56912065251E+02  0.57105806808E+02  0.47000000000E+01 0. -1.
         -5   -1    0    0    0  501 -0.00000000000E+00 -0.00000000000E+00 -0.32591323911E+03  0.32594712673E+03  0.47000000000E+01 0. -1.
         25    2    1    2    0    0 -0.33652556398E+02  0.41549061871E+02 -0.14904831487E+03  0.20174152511E+03  0.12500169477E+03 0.  0.
         25    2    1    2    0    0  0.33652556398E+02 -0.41549061871E+02 -0.11995285899E+03  0.18131140843E+03  0.12500527730E+03 0.  0.
          5    1    3    3  502    0  0.69475664378E+01  0.13470044154E+02 -0.15127438750E+03  0.15210437562E+03  0.47000000000E+01 0.  1.
         -5    1    3    3    0  502 -0.40600122835E+02  0.28079017716E+02  0.22260726351E+01  0.49637149490E+02  0.47000000000E+01 0.  1.
          5    1    4    4  503    0  0.66554475077E+02 -0.61904713094E+00 -0.22330091068E+02  0.70360531118E+02  0.47000000000E+01 0.  1.
         -5    1    4    4    0  503 -0.32901918680E+02 -0.40930014740E+02 -0.97622767922E+02  0.11095087731E+03  0.47000000000E+01 0.  1.
<mgrwt>
<rscale>  0 0.13595924E+03</rscale>
<asrwt>0</asrwt>
<pdfrwt beam="1">  1        5 0.87732125E-02 0.13596006E+03</pdfrwt>
<pdfrwt beam="2">  1       -5 0.50158007E-01 0.13596006E+03</pdfrwt>
<totfact> 0.27489664E+02</totfact>
</mgrwt>
</event>
<event>
 8    1  0.1865596E-007  0.1358562E+03  0.7546771E-02  0.1219018E+00
         -5   -1    0    0    0  501 -0.00000000000E+00  0.00000000000E+00  0.14118197456E+02  0.14879969738E+02  0.47000000000E+01 0.  1.
          5   -1    0    0  501    0  0.00000000000E+00 -0.00000000000E+00 -0.13430259744E+04  0.13430341983E+04  0.47000000000E+01 0.  1.
         25    2    1    2    0    0  0.22765555976E+02 -0.48086495336E+02 -0.50851788522E+03  0.52635150133E+03  0.12499952716E+03 0.  0.
         25    2    1    2    0    0 -0.22765555976E+02  0.48086495336E+02 -0.82038989169E+03  0.83156266672E+03  0.12500525074E+03 0.  0.
          5    1    3    3  502    0  0.71679101910E+02 -0.44836175892E+02 -0.36227512407E+03  0.37203969121E+03  0.47000000000E+01 0. -1.
         -5    1    3    3    0  502 -0.48913545934E+02 -0.32503194433E+01 -0.14624276115E+03  0.15431181011E+03  0.47000000000E+01 0. -1.
          5    1    4    4  503    0  0.16593945771E+02 -0.32292140604E+02 -0.11994250218E+03  0.12540508447E+03  0.47000000000E+01 0.  1.
         -5    1    4    4    0  503 -0.39359501747E+02  0.80378635940E+02 -0.70044738951E+03  0.70615758225E+03  0.47000000000E+01 0.  1.
<mgrwt>
<rscale>  0 0.13585484E+03</rscale>
<asrwt>0</asrwt>
<pdfrwt beam="2">  1        5 0.20667851E+00 0.13585615E+03</pdfrwt>
<pdfrwt beam="1">  1       -5 0.22312619E-02 0.13585615E+03</pdfrwt>
<totfact> 0.76612083E+01</totfact>
</mgrwt>
</event>
<event>
 8    1  0.1865596E-007  0.1295633E+03  0.7546771E-02  0.1228109E+00
         -5   -1    0    0    0  501 -0.00000000000E+00  0.00000000000E+00  0.18717879362E+03  0.18723779207E+03  0.47000000000E+01 0.  1.
          5   -1    0    0  501    0  0.00000000000E+00 -0.00000000000E+00 -0.11446767411E+03  0.11456412360E+03  0.47000000000E+01 0.  1.
         25    2    1    2    0    0 -0.30760127760E+02 -0.14459776037E+02  0.10672463159E+03  0.16785941962E+03  0.12502546615E+03 0.  0.
         25    2    1    2    0    0  0.30760127760E+02  0.14459776037E+02 -0.34013512079E+02  0.13394249605E+03  0.12501360990E+03 0.  0.
          5    1    3    3  502    0  0.40147009402E+02 -0.32922049878E+02  0.65301599751E+02  0.83558558282E+02  0.47000000000E+01 0. -1.
         -5    1    3    3    0  502 -0.70907137162E+02  0.18462273841E+02  0.41423031839E+02  0.84300861340E+02  0.47000000000E+01 0. -1.
          5    1    4    4  503    0  0.22436768832E+02  0.57425950516E+02  0.19329943018E+02  0.64783370438E+02  0.47000000000E+01 0. -1.
         -5    1    4    4    0  503  0.83233589275E+01 -0.42966174479E+02 -0.53343455097E+02  0.69159125608E+02  0.47000000000E+01 0. -1.
<mgrwt>
<rscale>  0 0.12956040E+03</rscale>
<asrwt>0</asrwt>
<pdfrwt beam="2">  1        5 0.17622369E-01 0.12956326E+03</pdfrwt>
<pdfrwt beam="1">  1       -5 0.28808695E-01 0.12956326E+03</pdfrwt>
<totfact> 0.24094564E+02</totfact>
</mgrwt>
</event>
<event>
 8    1  0.1865596E-007  0.1518700E+03  0.7546771E-02  0.1198210E+00
         -5   -1    0    0    0  501 -0.00000000000E+00  0.00000000000E+00  0.14935600187E+03  0.14942993440E+03  0.47000000000E+01 0. -1.
          5   -1    0    0  501    0  0.00000000000E+00 -0.00000000000E+00 -0.15447068321E+03  0.15454216891E+03  0.47000000000E+01 0. -1.
         25    2    1    2    0    0 -0.82992212294E+02 -0.23153122343E+02 -0.86102657328E+01  0.15206184316E+03  0.12499957238E+03 0.  0.
         25    2    1    2    0    0  0.82992212294E+02  0.23153122343E+02  0.34955843923E+01  0.15191026015E+03  0.12506291878E+03 0.  0.
          5    1    3    3  502    0 -0.61279958095E+02 -0.66042115672E+02 -0.35301593328E+02  0.96876657653E+02  0.47000000000E+01 0.  1.
         -5    1    3    3    0  502 -0.21712254199E+02  0.42888993329E+02  0.26691327595E+02  0.55185185512E+02  0.47000000000E+01 0.  1.
          5    1    4    4  503    0  0.77120828213E+02 -0.12583315922E+02 -0.45697208231E+02  0.90643735713E+02  0.47000000000E+01 0. -1.
         -5    1    4    4    0  503  0.58713840810E+01  0.35736438265E+02  0.49192792623E+02  0.61266524440E+02  0.47000000000E+01 0. -1.
<mgrwt>
<rscale>  0 0.15185699E+03</rscale>
<asrwt>0</asrwt>
<pdfrwt beam="2">  1        5 0.23775906E-01 0.15187004E+03</pdfrwt>
<pdfrwt beam="1">  1       -5 0.22989032E-01 0.15187004E+03</pdfrwt>
<totfact> 0.22406029E+02</totfact>
</mgrwt>
</event>
<event>
 8    1  0.1865596E-007  0.1282447E+03  0.7546771E-02  0.1230086E+00
         -5   -1    0    0    0  501 -0.00000000000E+00  0.00000000000E+00  0.23666205322E+02  0.24128391458E+02  0.47000000000E+01 0. -1.
          5   -1    0    0  501    0  0.00000000000E+00 -0.00000000000E+00 -0.90697959029E+03  0.90699176799E+03  0.47000000000E+01 0. -1.
         25    2    1    2    0    0  0.26121747047E+02 -0.11763429834E+02 -0.21282019891E+03  0.24847362159E+03  0.12500391839E+03 0.  0.
         25    2    1    2    0    0 -0.26121747047E+02  0.11763429834E+02 -0.67049318606E+03  0.68264653786E+03  0.12499783657E+03 0.  0.
          5    1    3    3  502    0  0.18584491426E+01  0.76770493762E+01 -0.21660737874E+03  0.21680230036E+03  0.47000000000E+01 0. -1.
         -5    1    3    3    0  502  0.24263297905E+02 -0.19440479211E+02  0.37871798291E+01  0.31671321226E+02  0.47000000000E+01 0. -1.
          5    1    4    4  503    0 -0.31126186283E+02 -0.52429036016E+02 -0.25912020618E+03  0.26623864209E+03  0.47000000000E+01 0.  1.
         -5    1    4    4    0  503  0.50044392357E+01  0.64192465851E+02 -0.41137297988E+03  0.41640789577E+03  0.47000000000E+01 0.  1.
<mgrwt>
<rscale>  0 0.12824322E+03</rscale>
<asrwt>0</asrwt>
<pdfrwt beam="2">  1        5 0.13957178E+00 0.12824470E+03</pdfrwt>
<pdfrwt beam="1">  1       -5 0.36774449E-02 0.12824470E+03</pdfrwt>
<totfact> 0.10425854E+02</totfact>
</mgrwt>
</event>
<event>
 8    1  0.1865596E-007  0.1267201E+03  0.7546771E-02  0.1232411E+00
         -5   -1    0    0    0  501 -0.00000000000E+00  0.00000000000E+00  0.89575799855E+02  0.89699018499E+02  0.47000000000E+01 0.  1.
          5   -1    0    0  501    0  0.00000000000E+00 -0.00000000000E+00 -0.18657795613E+03  0.18663714451E+03  0.47000000000E+01 0.  1.
         25    2    1    2    0    0  0.24133837967E+01  0.20675157717E+02 -0.20607064939E+02  0.12836927634E+03  0.12498293250E+03 0.  0.
         25    2    1    2    0    0 -0.24133837967E+01 -0.20675157717E+02 -0.76395091333E+02  0.14796688667E+03  0.12499881201E+03 0.  0.
          5    1    4    4  502    0 -0.23252168974E+02  0.32760258947E+02 -0.80689571342E+02  0.90259597005E+02  0.47000000000E+01 0. -1.
         -5    1    4    4    0  502  0.20838785177E+02 -0.53435416664E+02  0.42944800090E+01  0.57707289663E+02  0.47000000000E+01 0. -1.
          5    1    3    3  503    0 -0.10982424786E+02 -0.44606430244E+02  0.19853170121E+02  0.50265153308E+02  0.47000000000E+01 0. -1.
         -5    1    3    3    0  503  0.13395808583E+02  0.65281587960E+02 -0.40460235060E+02  0.78104123036E+02  0.47000000000E+01 0. -1.
<mgrwt>
<rscale>  0 0.12671621E+03</rscale>
<asrwt>0</asrwt>
<pdfrwt beam="2">  1        5 0.28718332E-01 0.12672012E+03</pdfrwt>
<pdfrwt beam="1">  1       -5 0.13794924E-01 0.12672012E+03</pdfrwt>
<totfact> 0.37504459E+02</totfact>
</mgrwt>
</event>
<event>
 8    1  0.1865596E-007  0.1299331E+03  0.7546771E-02  0.1227555E+00
          5   -1    0    0  501    0  0.00000000000E+00  0.00000000000E+00  0.14296215203E+03  0.14303938937E+03  0.47000000000E+01 0. -1.
         -5   -1    0    0    0  501 -0.00000000000E+00 -0.00000000000E+00 -0.11947664281E+03  0.11956905192E+03  0.47000000000E+01 0. -1.
         25    2    1    2    0    0 -0.70671202338E+01  0.34748634233E+02 -0.31622082516E+01  0.12997089428E+03  0.12500008812E+03 0.  0.
         25    2    1    2    0    0  0.70671202338E+01 -0.34748634233E+02  0.26647717473E+02  0.13263754701E+03  0.12500082504E+03 0.  0.
          5    1    4    4  502    0 -0.29705226042E+02  0.40416357693E+01  0.61553294371E+02  0.68626768260E+02  0.47000000000E+01 0. -1.
         -5    1    4    4    0  502  0.36772346276E+02 -0.38790270003E+02 -0.34905576898E+02  0.64010778749E+02  0.47000000000E+01 0. -1.
          5    1    3    3  503    0 -0.22949909390E+02 -0.10489519574E+02  0.51236914367E+02  0.57306541998E+02  0.47000000000E+01 0.  1.
         -5    1    3    3    0  503  0.15882789156E+02  0.45238153807E+02 -0.54399122619E+02  0.72664352284E+02  0.47000000000E+01 0.  1.
<mgrwt>
<rscale>  0 0.12993295E+03</rscale>
<asrwt>0</asrwt>
<pdfrwt beam="1">  1        5 0.22007227E-01 0.12993313E+03</pdfrwt>
<pdfrwt beam="2">  1       -5 0.18394072E-01 0.12993313E+03</pdfrwt>
<totfact> 0.37341236E+02</totfact>
</mgrwt>
</event>
<event>
 8    1  0.1865596E-007  0.1256773E+03  0.7546771E-02  0.1234018E+00
          5   -1    0    0  501    0  0.00000000000E+00  0.00000000000E+00  0.39742871883E+03  0.39745650901E+03  0.47000000000E+01 0. -1.
         -5   -1    0    0    0  501 -0.00000000000E+00 -0.00000000000E+00 -0.39815549427E+02  0.40091993916E+02  0.47000000000E+01 0. -1.
         25    2    1    2    0    0 -0.12509690397E+02  0.36852740368E+01  0.16174129586E+03  0.20482425181E+03  0.12499061463E+03 0.  0.
         25    2    1    2    0    0  0.12509690397E+02 -0.36852740368E+01  0.19587187355E+03  0.23272425112E+03  0.12499885044E+03 0.  0.
          5    1    4    4  502    0 -0.14519052520E+02  0.25059148552E+02  0.19036088194E+03  0.19260872043E+03  0.47000000000E+01 0. -1.
         -5    1    4    4    0  502  0.27028742918E+02 -0.28744422589E+02  0.55109916081E+01  0.40115530686E+02  0.47000000000E+01 0. -1.
          5    1    3    3  503    0 -0.11171156049E+02  0.51024521806E+02  0.14529775029E+03  0.15447272508E+03  0.47000000000E+01 0.  1.
         -5    1    3    3    0  503 -0.13385343476E+01 -0.47339247769E+02  0.16443545566E+02  0.50351526733E+02  0.47000000000E+01 0.  1.
<mgrwt>
<rscale>  0 0.12567526E+03</rscale>
<asrwt>0</asrwt>
<pdfrwt beam="1">  1        5 0.61166284E-01 0.12567731E+03</pdfrwt>
<pdfrwt beam="2">  1       -5 0.61488716E-02 0.12567731E+03</pdfrwt>
<totfact> 0.31923905E+02</totfact>
</mgrwt>
</event>
<event>
 8    1  0.1865596E-007  0.1442834E+03  0.7546771E-02  0.1207680E+00
          5   -1    0    0  501    0  0.00000000000E+00  0.00000000000E+00  0.32392388288E+02  0.32731587480E+02  0.47000000000E+01 0. -1.
         -5   -1    0    0    0  501 -0.00000000000E+00 -0.00000000000E+00 -0.65374596134E+03  0.65376285606E+03  0.47000000000E+01 0. -1.
         25    2    1    2    0    0 -0.67155340240E+01  0.71743519092E+02 -0.36227339587E+03  0.38994724741E+03  0.12499844591E+03 0.  0.
         25    2    1    2    0    0  0.67155340240E+01 -0.71743519092E+02 -0.25908017718E+03  0.29654719613E+03  0.12500188157E+03 0.  0.
          5    1    3    3  502    0  0.10276383339E+02  0.99284473284E+02 -0.32664302126E+03  0.34158566133E+03  0.47000000000E+01 0. -1.
         -5    1    3    3    0  502 -0.16991917363E+02 -0.27540954192E+02 -0.35630374614E+02  0.48361586085E+02  0.47000000000E+01 0. -1.
          5    1    4    4  503    0 -0.36700403717E+02  0.98736917827E+01 -0.14321396977E+03  0.14824554145E+03  0.47000000000E+01 0. -1.
         -5    1    4    4    0  503  0.43415937741E+02 -0.81617210875E+02 -0.11586620741E+03  0.14830165468E+03  0.47000000000E+01 0. -1.
<mgrwt>
<rscale>  0 0.14428266E+03</rscale>
<asrwt>0</asrwt>
<pdfrwt beam="1">  1        5 0.50108367E-02 0.14428341E+03</pdfrwt>
<pdfrwt beam="2">  1       -5 0.10060368E+00 0.14428341E+03</pdfrwt>
<totfact> 0.14950822E+02</totfact>
</mgrwt>
</event>
<event>
 8    1  0.1865596E-007  0.1510119E+03  0.7546771E-02  0.1199236E+00
          5   -1    0    0  501    0  0.00000000000E+00  0.00000000000E+00  0.94964768704E+03  0.94965931759E+03  0.47000000000E+01 0.  1.
         -5   -1    0    0    0  501 -0.00000000000E+00 -0.00000000000E+00 -0.24588397714E+02  0.25033563513E+02  0.47000000000E+01 0.  1.
         25    2    1    2    0    0 -0.82897377653E+02  0.17539286719E+02  0.37452925008E+03  0.40382693675E+03  0.12499773548E+03 0.  0.
         25    2    1    2    0    0  0.82897377653E+02 -0.17539286719E+02  0.55053003924E+03  0.57086594436E+03  0.12500000210E+03 0.  0.
          5    1    3    3  502    0 -0.25424573324E+02 -0.43432336341E+02  0.24002547652E+03  0.24528982072E+03  0.47000000000E+01 0. -1.
         -5    1    3    3    0  502 -0.57472804330E+02  0.60971623060E+02  0.13450377356E+03  0.15853711603E+03  0.47000000000E+01 0. -1.
          5    1    4    4  503    0  0.10116928005E+02  0.25404828341E+01  0.41883657852E+03  0.41899281114E+03  0.47000000000E+01 0.  1.
         -5    1    4    4    0  503  0.72780449648E+02 -0.20079769553E+02  0.13169346072E+03  0.15187313322E+03  0.47000000000E+01 0.  1.
<mgrwt>
<rscale>  0 0.15101146E+03</rscale>
<asrwt>0</asrwt>
<pdfrwt beam="1">  1        5 0.14613479E+00 0.15101193E+03</pdfrwt>
<pdfrwt beam="2">  1       -5 0.38179684E-02 0.15101193E+03</pdfrwt>
<totfact> 0.91193136E+01</totfact>
</mgrwt>
</event>
<event>
 8    1  0.1865596E-007  0.1738114E+03  0.7546771E-02  0.1173944E+00
          5   -1    0    0  501    0  0.00000000000E+00  0.00000000000E+00  0.27114696269E+02  0.27519025305E+02  0.47000000000E+01 0. -1.
         -5   -1    0    0    0  501 -0.00000000000E+00 -0.00000000000E+00 -0.12271693252E+04  0.12271783255E+04  0.47000000000E+01 0. -1.
         25    2    1    2    0    0  0.11695959607E+03 -0.30062719327E+02 -0.79771685052E+03  0.81642109087E+03  0.12493162050E+03 0.  0.
         25    2    1    2    0    0 -0.11695959607E+03  0.30062719327E+02 -0.40233777840E+03  0.43827625999E+03  0.12500831145E+03 0.  0.
          5    1    3    3  502    0  0.73542143440E+02 -0.61368933481E+02 -0.68351531532E+03  0.69021001814E+03  0.47000000000E+01 0.  1.
         -5    1    3    3    0  502  0.43417452630E+02  0.31306214154E+02 -0.11420153520E+03  0.12621107273E+03  0.47000000000E+01 0.  1.
          5    1    4    4  503    0 -0.78731283329E+02  0.20463840491E+02 -0.82396764967E+02  0.11588227051E+03  0.47000000000E+01 0. -1.
         -5    1    4    4    0  503 -0.38228312740E+02  0.95988788365E+01 -0.31994101344E+03  0.32239398947E+03  0.47000000000E+01 0. -1.
<mgrwt>
<rscale>  0 0.17379758E+03</rscale>
<asrwt>0</asrwt>
<pdfrwt beam="1">  1        5 0.42032873E-02 0.17381137E+03</pdfrwt>
<pdfrwt beam="2">  1       -5 0.18882703E+00 0.17381137E+03</pdfrwt>
<totfact> 0.38865514E+01</totfact>
</mgrwt>
</event>
<event>
 8    1  0.1865596E-007  0.1442317E+03  0.7546771E-02  0.1207746E+00
         -5   -1    0    0    0  501 -0.00000000000E+00  0.00000000000E+00  0.19166788292E+03  0.19172549998E+03  0.47000000000E+01 0.  1.
          5   -1    0    0  501    0  0.00000000000E+00 -0.00000000000E+00 -0.11270913363E+03  0.11280708667E+03  0.47000000000E+01 0.  1.
         25    2    1    2    0    0 -0.70175365664E+02  0.15904666537E+02  0.69198868326E+02  0.15997108857E+03  0.12499890174E+03 0.  0.
         25    2    1    2    0    0  0.70175365664E+02 -0.15904666537E+02  0.97598809600E+01  0.14456149808E+03  0.12500092435E+03 0.  0.
          5    1    4    4  502    0 -0.22247450795E+02 -0.37274070483E+02 -0.15416154651E+02  0.46303922312E+02  0.47000000000E+01 0.  1.
         -5    1    4    4    0  502  0.92422816459E+02  0.21369403946E+02  0.25176035611E+02  0.98257575771E+02  0.47000000000E+01 0.  1.
          5    1    3    3  503    0 -0.82557190457E+02 -0.12586810036E+02 -0.36148609060E+00  0.83644116082E+02  0.47000000000E+01 0.  1.
         -5    1    3    3    0  503  0.12381824793E+02  0.28491476573E+02  0.69560354417E+02  0.76326972487E+02  0.47000000000E+01 0.  1.
<mgrwt>
<rscale>  0 0.14423122E+03</rscale>
<asrwt>0</asrwt>
<pdfrwt beam="2">  1        5 0.17351834E-01 0.14423166E+03</pdfrwt>
<pdfrwt beam="1">  1       -5 0.29499333E-01 0.14423166E+03</pdfrwt>
<totfact> 0.24554655E+02</totfact>
</mgrwt>
</event>
<event>
 8    1  0.1865596E-007  0.1374584E+03  0.7546771E-02  0.1216792E+00
          5   -1    0    0  501    0  0.00000000000E+00  0.00000000000E+00  0.23787472928E+02  0.24247347655E+02  0.47000000000E+01 0. -1.
         -5   -1    0    0    0  501 -0.00000000000E+00 -0.00000000000E+00 -0.86387212014E+03  0.86388490550E+03  0.47000000000E+01 0. -1.
         25    2    1    2    0    0 -0.55298832975E+02  0.14518037345E+02 -0.55313556955E+03  0.56995840852E+03  0.12499957925E+03 0.  0.
         25    2    1    2    0    0  0.55298832975E+02 -0.14518037345E+02 -0.28694907766E+03  0.31817384463E+03  0.12500435152E+03 0.  0.
          5    1    3    3  502    0 -0.29605285143E+01 -0.49830512691E+02 -0.14417612364E+03  0.15264563325E+03  0.47000000000E+01 0.  1.
         -5    1    3    3    0  502 -0.52338304461E+02  0.64348550036E+02 -0.40895944591E+03  0.41731277527E+03  0.47000000000E+01 0.  1.
          5    1    4    4  503    0  0.27635172833E+02 -0.67849680281E+02 -0.19371776835E+03  0.20716164139E+03  0.47000000000E+01 0. -1.
         -5    1    4    4    0  503  0.27663660142E+02  0.53331642936E+02 -0.93231309314E+02  0.11101220323E+03  0.47000000000E+01 0. -1.
<mgrwt>
<rscale>  0 0.13745735E+03</rscale>
<asrwt>0</asrwt>
<pdfrwt beam="1">  1        5 0.36959703E-02 0.13745844E+03</pdfrwt>
<pdfrwt beam="2">  1       -5 0.13293974E+00 0.13745844E+03</pdfrwt>
<totfact> 0.12023802E+02</totfact>
</mgrwt>
</event>
<event>
 8    1  0.1865596E-007  0.1340795E+03  0.7546771E-02  0.1221527E+00
          5   -1    0    0  501    0  0.00000000000E+00  0.00000000000E+00  0.52336272666E+02  0.52546887982E+02  0.47000000000E+01 0.  1.
         -5   -1    0    0    0  501 -0.00000000000E+00 -0.00000000000E+00 -0.37146592346E+03  0.37149565582E+03  0.47000000000E+01 0.  1.
         25    2    1    2    0    0  0.44880399505E+02 -0.18385340497E+02 -0.21868043375E+03  0.25650942726E+03  0.12499473255E+03 0.  0.
         25    2    1    2    0    0 -0.44880399505E+02  0.18385340497E+02 -0.10044921704E+03  0.16753311654E+03  0.12500011571E+03 0.  0.
          5    1    4    4  502    0 -0.67090938725E+02  0.54419811107E+02 -0.44708812979E+02  0.97384176631E+02  0.47000000000E+01 0. -1.
         -5    1    4    4    0  502  0.22210539221E+02 -0.36034470611E+02 -0.55740404066E+02  0.70148939907E+02  0.47000000000E+01 0. -1.
          5    1    3    3  503    0  0.81975563874E+02 -0.31176646750E+02 -0.18417880270E+03  0.20404876314E+03  0.47000000000E+01 0.  1.
         -5    1    3    3    0  503 -0.37095164370E+02  0.12791306253E+02 -0.34501631054E+02  0.52460664127E+02  0.47000000000E+01 0.  1.
<mgrwt>
<rscale>  0 0.13407820E+03</rscale>
<asrwt>0</asrwt>
<pdfrwt beam="1">  1        5 0.80702228E-02 0.13407945E+03</pdfrwt>
<pdfrwt beam="2">  1       -5 0.57167090E-01 0.13407945E+03</pdfrwt>
<totfact> 0.23864365E+02</totfact>
</mgrwt>
</event>
<event>
 8    1  0.1865596E-007  0.1326228E+03  0.7546771E-02  0.1223619E+00
          5   -1    0    0  501    0  0.00000000000E+00  0.00000000000E+00  0.25570535019E+02  0.25998889614E+02  0.47000000000E+01 0. -1.
         -5   -1    0    0    0  501 -0.00000000000E+00 -0.00000000000E+00 -0.79013651724E+03  0.79015049571E+03  0.47000000000E+01 0. -1.
         25    2    1    2    0    0  0.44035652632E+02  0.49451070234E+01 -0.53345933038E+03  0.54969780261E+03  0.12500089698E+03 0.  0.
         25    2    1    2    0    0 -0.44035652632E+02 -0.49451070234E+01 -0.23110665184E+03  0.26645158271E+03  0.12499027409E+03 0.  0.
          5    1    3    3  502    0 -0.27794278309E+02  0.11288796042E+02 -0.36669556550E+03  0.36795065781E+03  0.47000000000E+01 0. -1.
         -5    1    3    3    0  502  0.71829930942E+02 -0.63436890187E+01 -0.16676376488E+03  0.18174714481E+03  0.47000000000E+01 0. -1.
          5    1    4    4  503    0 -0.86337002827E+02 -0.17396218979E+02 -0.15782363531E+03  0.18079573102E+03  0.47000000000E+01 0.  1.
         -5    1    4    4    0  503  0.42301350195E+02  0.12451111956E+02 -0.73283016532E+02  0.85655851693E+02  0.47000000000E+01 0.  1.
<mgrwt>
<rscale>  0 0.13262033E+03</rscale>
<asrwt>0</asrwt>
<pdfrwt beam="1">  1        5 0.39679547E-02 0.13262284E+03</pdfrwt>
<pdfrwt beam="2">  1       -5 0.12159347E+00 0.13262284E+03</pdfrwt>
<totfact> 0.13332844E+02</totfact>
</mgrwt>
</event>
<event>
 8    1  0.1865596E-007  0.2666287E+03  0.7546771E-02  0.1103225E+00
         -5   -1    0    0    0  501 -0.00000000000E+00  0.00000000000E+00  0.16284477707E+03  0.16291258828E+03  0.47000000000E+01 0.  1.
          5   -1    0    0  501    0  0.00000000000E+00 -0.00000000000E+00 -0.58533823732E+03  0.58535710645E+03  0.47000000000E+01 0.  1.
         25    2    1    2    0    0 -0.88259332373E+02  0.21834822435E+03 -0.22526992522E+02  0.26757868997E+03  0.12500093241E+03 0.  0.
         25    2    1    2    0    0  0.88259332373E+02 -0.21834822435E+03 -0.39996646773E+03  0.48069100476E+03  0.12500003968E+03 0.  0.
          5    1    3    3  502    0  0.90227935369E+01  0.14231714800E+02 -0.37027213319E+02  0.40951886837E+02  0.47000000000E+01 0. -1.
         -5    1    3    3    0  502 -0.97282125910E+02  0.20411650955E+03  0.14500220797E+02  0.22662680313E+03  0.47000000000E+01 0. -1.
          5    1    4    4  503    0  0.53045725610E+00 -0.10319435444E+03 -0.25784567075E+03  0.27776939374E+03  0.47000000000E+01 0. -1.
         -5    1    4    4    0  503  0.87728875117E+02 -0.11515386992E+03 -0.14212079698E+03  0.20292161102E+03  0.47000000000E+01 0. -1.
<mgrwt>
<rscale>  0 0.26662864E+03</rscale>
<asrwt>0</asrwt>
<pdfrwt beam="2">  1        5 0.90058703E-01 0.26662875E+03</pdfrwt>
<pdfrwt beam="1">  1       -5 0.25059711E-01 0.26662875E+03</pdfrwt>
<totfact> 0.13036164E+01</totfact>
</mgrwt>
</event>
<event>
 8    1  0.1865596E-007  0.2098654E+03  0.7546771E-02  0.1141675E+00
          5   -1    0    0  501    0  0.00000000000E+00  0.00000000000E+00  0.50004643070E+03  0.50006851817E+03  0.47000000000E+01 0.  1.
         -5   -1    0    0    0  501 -0.00000000000E+00 -0.00000000000E+00 -0.88163750448E+02  0.88288939812E+02  0.47000000000E+01 0.  1.
         25    2    1    2    0    0 -0.11782167949E+03 -0.12055462211E+03  0.21909241329E+03  0.30338099465E+03  0.12499270892E+03 0.  0.
         25    2    1    2    0    0  0.11782167949E+03  0.12055462211E+03  0.19279026697E+03  0.28497646333E+03  0.12501252955E+03 0.  0.
          5    1    3    3  502    0 -0.70528336795E+01 -0.86730887523E+02  0.13294528199E+03  0.15896077289E+03  0.47000000000E+01 0. -1.
         -5    1    3    3    0  502 -0.11076884581E+03 -0.33823734587E+02  0.86147131299E+02  0.14442022176E+03  0.47000000000E+01 0. -1.
          5    1    4    4  503    0  0.13052394434E+03  0.13630232906E+03  0.17813983869E+03  0.25955869680E+03  0.47000000000E+01 0.  1.
         -5    1    4    4    0  503 -0.12702264855E+02 -0.15747706954E+02  0.14650428275E+02  0.25417766530E+02  0.47000000000E+01 0.  1.
<mgrwt>
<rscale>  0 0.20986248E+03</rscale>
<asrwt>0</asrwt>
<pdfrwt beam="1">  1        5 0.76941550E-01 0.20986543E+03</pdfrwt>
<pdfrwt beam="2">  1       -5 0.13574983E-01 0.20986543E+03</pdfrwt>
<totfact> 0.56225883E+01</totfact>
</mgrwt>
</event>
<event>
 8    1  0.1865596E-007  0.1359068E+03  0.7546771E-02  0.1218959E+00
          5   -1    0    0  501    0  0.00000000000E+00  0.00000000000E+00  0.58509566697E+02  0.58698035701E+02  0.47000000000E+01 0. -1.
         -5   -1    0    0    0  501 -0.00000000000E+00 -0.00000000000E+00 -0.37588052612E+03  0.37590990931E+03  0.47000000000E+01 0. -1.
         25    2    1    2    0    0 -0.46245897155E+02 -0.26431857602E+02 -0.24617959477E+03  0.28118412551E+03  0.12499117354E+03 0.  0.
         25    2    1    2    0    0  0.46245897155E+02  0.26431857602E+02 -0.71191364655E+02  0.15342381949E+03  0.12503332310E+03 0.  0.
          5    1    3    3  502    0  0.69982775322E+01  0.11851330748E+02  0.93777694575E+01  0.17304984511E+02  0.47000000000E+01 0. -1.
         -5    1    3    3    0  502 -0.53244174687E+02 -0.38283188350E+02 -0.25555736422E+03  0.26387914100E+03  0.47000000000E+01 0. -1.
          5    1    4    4  503    0  0.49742618874E+02  0.53781599229E+01  0.24047271808E+02  0.55710089014E+02  0.47000000000E+01 0.  1.
         -5    1    4    4    0  503 -0.34967217190E+01  0.21053697679E+02 -0.95238636463E+02  0.97713730479E+02  0.47000000000E+01 0.  1.
<mgrwt>
<rscale>  0 0.13589710E+03</rscale>
<asrwt>0</asrwt>
<pdfrwt beam="1">  1        5 0.90182299E-02 0.13590680E+03</pdfrwt>
<pdfrwt beam="2">  1       -5 0.57844530E-01 0.13590680E+03</pdfrwt>
<totfact> 0.19299289E+02</totfact>
</mgrwt>
</event>
<event>
 8    1  0.1865596E-007  0.1491186E+03  0.7546771E-02  0.1201562E+00
          5   -1    0    0  501    0  0.00000000000E+00  0.00000000000E+00  0.10045284067E+03  0.10056273266E+03  0.47000000000E+01 0. -1.
         -5   -1    0    0    0  501 -0.00000000000E+00 -0.00000000000E+00 -0.22116870555E+03  0.22121863916E+03  0.47000000000E+01 0. -1.
         25    2    1    2    0    0  0.13537030286E+02 -0.80171240644E+02 -0.63219177184E+02  0.16196610514E+03  0.12500270330E+03 0.  0.
         25    2    1    2    0    0 -0.13537030286E+02  0.80171240644E+02 -0.57496687688E+02  0.15981526668E+03  0.12499748539E+03 0.  0.
          5    1    3    3  502    0 -0.40851950349E+01  0.18110287293E+02 -0.58875945438E+02  0.61912343482E+02  0.47000000000E+01 0.  1.
         -5    1    3    3    0  502  0.17622225321E+02 -0.98281527937E+02 -0.43432317458E+01  0.10005376165E+03  0.47000000000E+01 0.  1.
          5    1    4    4  503    0 -0.39925615510E+02  0.74441549261E+02  0.11680705766E+02  0.85405666776E+02  0.47000000000E+01 0. -1.
         -5    1    4    4    0  503  0.26388585224E+02  0.57296913837E+01 -0.69177393453E+02  0.74409599908E+02  0.47000000000E+01 0. -1.
<mgrwt>
<rscale>  0 0.14911750E+03</rscale>
<asrwt>0</asrwt>
<pdfrwt beam="1">  1        5 0.15466577E-01 0.14911859E+03</pdfrwt>
<pdfrwt beam="2">  1       -5 0.34038249E-01 0.14911859E+03</pdfrwt>
<totfact> 0.23081801E+02</totfact>
</mgrwt>
</event>
<event>
 8    1  0.1865596E-007  0.1555568E+03  0.7546771E-02  0.1193807E+00
         -5   -1    0    0    0  501 -0.00000000000E+00  0.00000000000E+00  0.14321915258E+03  0.14329625140E+03  0.47000000000E+01 0.  1.
          5   -1    0    0  501    0  0.00000000000E+00 -0.00000000000E+00 -0.16882417696E+03  0.16888958738E+03  0.47000000000E+01 0.  1.
         25    2    1    2    0    0  0.63135767069E+02 -0.67729365929E+02 -0.10984525350E+02  0.15594347513E+03  0.12499726215E+03 0.  0.
         25    2    1    2    0    0 -0.63135767069E+02  0.67729365929E+02 -0.14620499036E+02  0.15624236365E+03  0.12499810045E+03 0.  0.
          5    1    3    3  502    0  0.74020529117E+02 -0.72736256489E+02 -0.49689188567E+02  0.11515514404E+03  0.47000000000E+01 0.  1.
         -5    1    3    3    0  502 -0.10884762048E+02  0.50068905596E+01  0.38704663218E+02  0.40788331085E+02  0.47000000000E+01 0.  1.
          5    1    4    4  503    0 -0.69686608681E+02  0.97637985367E+02  0.39740380470E+01  0.12011362368E+03  0.47000000000E+01 0.  1.
         -5    1    4    4    0  503  0.65508416120E+01 -0.29908619438E+02 -0.18594537083E+02  0.36128739971E+02  0.47000000000E+01 0.  1.
<mgrwt>
<rscale>  0 0.15555663E+03</rscale>
<asrwt>0</asrwt>
<pdfrwt beam="2">  1        5 0.25983913E-01 0.15555680E+03</pdfrwt>
<pdfrwt beam="1">  1       -5 0.22044678E-01 0.15555680E+03</pdfrwt>
<totfact> 0.20622458E+02</totfact>
</mgrwt>
</event>
<event>
 8    1  0.1865596E-007  0.1260885E+03  0.7546771E-02  0.1233384E+00
          5   -1    0    0  501    0  0.00000000000E+00  0.00000000000E+00  0.99376394573E+02  0.99487475585E+02  0.47000000000E+01 0.  1.
         -5   -1    0    0    0  501 -0.00000000000E+00 -0.00000000000E+00 -0.16011948818E+03  0.16018845306E+03  0.47000000000E+01 0.  1.
         25    2    1    2    0    0  0.78131962535E+01  0.14438544633E+02 -0.23921258243E+02  0.12832085727E+03  0.12499799281E+03 0.  0.
         25    2    1    2    0    0 -0.78131962535E+01 -0.14438544633E+02 -0.36821835363E+02  0.13135507138E+03  0.12501515753E+03 0.  0.
          5    1    3    3  502    0 -0.19124376070E+02  0.61411746161E+02 -0.34208776798E+02  0.73003251548E+02  0.47000000000E+01 0.  1.
         -5    1    3    3    0  502  0.26937572323E+02 -0.46973201528E+02  0.10287518555E+02  0.55317605719E+02  0.47000000000E+01 0.  1.
          5    1    4    4  503    0 -0.20319849301E+02 -0.36887979477E+02  0.34980066230E+02  0.54948287862E+02  0.47000000000E+01 0. -1.
         -5    1    4    4    0  503  0.12506653047E+02  0.22449434844E+02 -0.71801901594E+02  0.76406783519E+02  0.47000000000E+01 0. -1.
<mgrwt>
<rscale>  0 0.12608423E+03</rscale>
<asrwt>0</asrwt>
<pdfrwt beam="1">  1        5 0.15302526E-01 0.12608849E+03</pdfrwt>
<pdfrwt beam="2">  1       -5 0.24647617E-01 0.12608849E+03</pdfrwt>
<totfact> 0.41698649E+02</totfact>
</mgrwt>
</event>
<event>
 8    1  0.1865596E-007  0.1315509E+03  0.7546771E-02  0.1225174E+00
          5   -1    0    0  501    0  0.00000000000E+00  0.00000000000E+00  0.92823803240E+03  0.92824993121E+03  0.47000000000E+01 0. -1.
         -5   -1    0    0    0  501 -0.00000000000E+00 -0.00000000000E+00 -0.18544846188E+02  0.19131160972E+02  0.47000000000E+01 0. -1.
         25    2    1    2    0    0  0.40727034888E+02 -0.45628107694E+01  0.40519427099E+03  0.42601411662E+03  0.12500447872E+03 0.  0.
         25    2    1    2    0    0 -0.40727034888E+02  0.45628107694E+01  0.50449891522E+03  0.52136697556E+03  0.12499942856E+03 0.  0.
          5    1    4    4  502    0  0.30663953152E+02 -0.37360074879E+02  0.19410867326E+03  0.20009078003E+03  0.47000000000E+01 0. -1.
         -5    1    4    4    0  502 -0.71390988040E+02  0.41922885648E+02  0.31039024195E+03  0.32127619553E+03  0.47000000000E+01 0. -1.
          5    1    3    3  503    0  0.47558339086E+02  0.29361325752E+01  0.41074904601E+03  0.41353027131E+03  0.47000000000E+01 0.  1.
         -5    1    3    3    0  503 -0.68313041980E+01 -0.74989433446E+01 -0.55547750143E+01  0.12483845313E+02  0.47000000000E+01 0.  1.
<mgrwt>
<rscale>  0 0.13154967E+03</rscale>
<asrwt>0</asrwt>
<pdfrwt beam="1">  1        5 0.14285189E+00 0.13155087E+03</pdfrwt>
<pdfrwt beam="2">  1       -5 0.28990692E-02 0.13155087E+03</pdfrwt>
<totfact> 0.14527654E+02</totfact>
</mgrwt>
</event>
<event>
 8    1  0.1865596E-007  0.1466294E+03  0.7546771E-02  0.1204680E+00
          5   -1    0    0  501    0  0.00000000000E+00  0.00000000000E+00  0.20359905778E+03  0.20365329933E+03  0.47000000000E+01 0. -1.
         -5   -1    0    0    0  501 -0.00000000000E+00 -0.00000000000E+00 -0.10547517909E+03  0.10557984373E+03  0.47000000000E+01 0. -1.
         25    2    1    2    0    0  0.74031758209E+02 -0.19854705408E+02  0.48415983447E+02  0.15440727488E+03  0.12499035376E+03 0.  0.
         25    2    1    2    0    0 -0.74031758209E+02  0.19854705408E+02  0.49707895247E+02  0.15482586818E+03  0.12500105623E+03 0.  0.
          5    1    3    3  502    0  0.10732705800E+03 -0.28286068671E+02  0.43888261320E+02  0.11944650912E+03  0.47000000000E+01 0. -1.
         -5    1    3    3    0  502 -0.33295299793E+02  0.84313632631E+01  0.45277221264E+01  0.34960765759E+02  0.47000000000E+01 0. -1.
          5    1    4    4  503    0 -0.74308929133E+02  0.31948670914E+02 -0.20380263084E+02  0.83546272481E+02  0.47000000000E+01 0.  1.
         -5    1    4    4    0  503  0.27717092431E+00 -0.12093965506E+02  0.70088158331E+02  0.71279595703E+02  0.47000000000E+01 0.  1.
<mgrwt>
<rscale>  0 0.14662710E+03</rscale>
<asrwt>0</asrwt>
<pdfrwt beam="1">  1        5 0.31335155E-01 0.14662938E+03</pdfrwt>
<pdfrwt beam="2">  1       -5 0.16239174E-01 0.14662938E+03</pdfrwt>
<totfact> 0.24756234E+02</totfact>
</mgrwt>
</event>
<event>
 8    1  0.1865596E-007  0.1397660E+03  0.7546771E-02  0.1213648E+00
          5   -1    0    0  501    0  0.00000000000E+00  0.00000000000E+00  0.19499674449E+02  0.20058098205E+02  0.47000000000E+01 0.  1.
         -5   -1    0    0    0  501 -0.00000000000E+00 -0.00000000000E+00 -0.98806429264E+03  0.98807547100E+03  0.47000000000E+01 0.  1.
         25    2    1    2    0    0 -0.29226791711E+02  0.55242379870E+02 -0.46766065737E+03  0.48809577047E+03  0.12500025922E+03 0.  0.
         25    2    1    2    0    0  0.29226791711E+02 -0.55242379870E+02 -0.50090396082E+03  0.52003779874E+03  0.12501443223E+03 0.  0.
          5    1    3    3  502    0 -0.48245932698E+02 -0.17129021592E+02 -0.30083245413E+03  0.30519392009E+03  0.47000000000E+01 0.  1.
         -5    1    3    3    0  502  0.19019140987E+02  0.72371401462E+02 -0.16682820325E+03  0.18290185038E+03  0.47000000000E+01 0.  1.
          5    1    4    4  503    0 -0.26789662558E+02 -0.68275572996E+02 -0.36607593371E+03  0.37338039468E+03  0.47000000000E+01 0. -1.
         -5    1    4    4    0  503  0.56016454269E+02  0.13033193126E+02 -0.13482802711E+03  0.14665740406E+03  0.47000000000E+01 0. -1.
<mgrwt>
<rscale>  0 0.13976283E+03</rscale>
<asrwt>0</asrwt>
<pdfrwt beam="1">  1        5 0.30437662E-02 0.13976600E+03</pdfrwt>
<pdfrwt beam="2">  1       -5 0.15205367E+00 0.13976600E+03</pdfrwt>
<totfact> 0.11557644E+02</totfact>
</mgrwt>
</event>
<event>
 8    1  0.1865596E-007  0.2223540E+03  0.7546771E-02  0.1132140E+00
         -5   -1    0    0    0  501 -0.00000000000E+00  0.00000000000E+00  0.34086612110E+03  0.34089852231E+03  0.47000000000E+01 0. -1.
          5   -1    0    0  501    0  0.00000000000E+00 -0.00000000000E+00 -0.16817546694E+03  0.16824112957E+03  0.47000000000E+01 0. -1.
         25    2    1    2    0    0 -0.18141072858E+03 -0.30109713678E+02  0.18088184697E+03  0.28663482066E+03  0.12499932219E+03 0.  0.
         25    2    1    2    0    0  0.18141072858E+03  0.30109713678E+02 -0.81911928046E+01  0.22250483123E+03  0.12499942791E+03 0.  0.
          5    1    4    4  502    0  0.50019608895E+02  0.33078640092E+02 -0.56381556319E+02  0.82444694173E+02  0.47000000000E+01 0. -1.
         -5    1    4    4    0  502  0.13139111969E+03 -0.29689264141E+01  0.48190363514E+02  0.14006013706E+03  0.47000000000E+01 0. -1.
          5    1    3    3  503    0 -0.37142377074E+02  0.37024891300E+02  0.87365502581E+02  0.10200597920E+03  0.47000000000E+01 0.  1.
         -5    1    3    3    0  503 -0.14426835151E+03 -0.67134604977E+02  0.93516344386E+02  0.18462884146E+03  0.47000000000E+01 0.  1.
<mgrwt>
<rscale>  0 0.22235399E+03</rscale>
<asrwt>0</asrwt>
<pdfrwt beam="2">  1        5 0.25880693E-01 0.22235401E+03</pdfrwt>
<pdfrwt beam="1">  1       -5 0.52448484E-01 0.22235401E+03</pdfrwt>
<totfact> 0.40175127E+01</totfact>
</mgrwt>
</event>
<event>
 8    1  0.1865596E-007  0.1318831E+03  0.7546771E-02  0.1224690E+00
          5   -1    0    0  501    0  0.00000000000E+00  0.00000000000E+00  0.16887666157E+03  0.16894205167E+03  0.47000000000E+01 0. -1.
         -5   -1    0    0    0  501 -0.00000000000E+00 -0.00000000000E+00 -0.10382581431E+03  0.10393213997E+03  0.47000000000E+01 0. -1.
         25    2    1    2    0    0 -0.41441675967E+02 -0.70545171456E+01  0.45739028455E+02  0.13958461562E+03  0.12499850989E+03 0.  0.
         25    2    1    2    0    0  0.41441675967E+02  0.70545171456E+01  0.19311818801E+02  0.13328957602E+03  0.12500394398E+03 0.  0.
          5    1    3    3  502    0 -0.67309054436E+02 -0.44558430266E+02  0.47447771930E+02  0.93751499071E+02  0.47000000000E+01 0. -1.
         -5    1    3    3    0  502  0.25867378469E+02  0.37503913120E+02 -0.17087434748E+01  0.45833116548E+02  0.47000000000E+01 0. -1.
          5    1    4    4  503    0  0.33633293216E+02 -0.39349846382E+02 -0.33934415429E+02  0.62074498575E+02  0.47000000000E+01 0. -1.
         -5    1    4    4    0  503  0.78083827509E+01  0.46404363528E+02  0.53246234230E+02  0.71215077443E+02  0.47000000000E+01 0. -1.
<mgrwt>
<rscale>  0 0.13188186E+03</rscale>
<asrwt>0</asrwt>
<pdfrwt beam="1">  1        5 0.25994233E-01 0.13188315E+03</pdfrwt>
<pdfrwt beam="2">  1       -5 0.15986411E-01 0.13188315E+03</pdfrwt>
<totfact> 0.35365360E+02</totfact>
</mgrwt>
</event>
<event>
 8    1  0.1865596E-007  0.1458741E+03  0.7546771E-02  0.1205638E+00
          5   -1    0    0  501    0  0.00000000000E+00  0.00000000000E+00  0.19865132045E+03  0.19870691260E+03  0.47000000000E+01 0. -1.
         -5   -1    0    0    0  501 -0.00000000000E+00 -0.00000000000E+00 -0.11341691922E+03  0.11351426150E+03  0.47000000000E+01 0. -1.
         25    2    1    2    0    0 -0.50156557217E+02 -0.56010776000E+02  0.54883236495E+01  0.14597733725E+03  0.12500549602E+03 0.  0.
         25    2    1    2    0    0  0.50156557217E+02  0.56010776000E+02  0.79746077579E+02  0.16624383685E+03  0.12499875656E+03 0.  0.
          5    1    3    3  502    0 -0.24098935966E+02 -0.69370909100E+02 -0.45839427047E+02  0.86697317236E+02  0.47000000000E+01 0.  1.
         -5    1    3    3    0  502 -0.26057621252E+02  0.13360133100E+02  0.51327750696E+02  0.59280020017E+02  0.47000000000E+01 0.  1.
          5    1    4    4  503    0  0.54778490201E+02  0.87590576628E+02  0.31317604883E+02  0.10805403499E+03  0.47000000000E+01 0. -1.
         -5    1    4    4    0  503 -0.46219329833E+01 -0.31579800628E+02  0.48428472697E+02  0.58189801855E+02  0.47000000000E+01 0. -1.
<mgrwt>
<rscale>  0 0.14587268E+03</rscale>
<asrwt>0</asrwt>
<pdfrwt beam="1">  1        5 0.30573505E-01 0.14587413E+03</pdfrwt>
<pdfrwt beam="2">  1       -5 0.17460521E-01 0.14587413E+03</pdfrwt>
<totfact> 0.22713075E+02</totfact>
</mgrwt>
</event>
<event>
 8    1  0.1865596E-007  0.1333128E+03  0.7546771E-02  0.1222622E+00
          5   -1    0    0  501    0  0.00000000000E+00  0.00000000000E+00  0.23523296312E+03  0.23527991189E+03  0.47000000000E+01 0. -1.
         -5   -1    0    0    0  501 -0.00000000000E+00 -0.00000000000E+00 -0.75424544551E+02  0.75570840413E+02  0.47000000000E+01 0. -1.
         25    2    1    2    0    0  0.34382477452E+02  0.31065765350E+02  0.79442325513E+02  0.15518764103E+03  0.12499953725E+03 0.  0.
         25    2    1    2    0    0 -0.34382477452E+02 -0.31065765350E+02  0.80366093060E+02  0.15566311127E+03  0.12500023506E+03 0.  0.
          5    1    3    3  502    0  0.27150574763E+02  0.79413892453E+02  0.46663555586E+02  0.96142069067E+02  0.47000000000E+01 0.  1.
         -5    1    3    3    0  502  0.72319026885E+01 -0.48348127103E+02  0.32778769927E+02  0.59045571966E+02  0.47000000000E+01 0.  1.
          5    1    4    4  503    0  0.15332010230E+02  0.21380375805E+02  0.78821939241E+02  0.83229676877E+02  0.47000000000E+01 0.  1.
         -5    1    4    4    0  503 -0.49714487682E+02 -0.52446141155E+02  0.15441538186E+01  0.72433434397E+02  0.47000000000E+01 0.  1.
<mgrwt>
<rscale>  0 0.13331261E+03</rscale>
<asrwt>0</asrwt>
<pdfrwt beam="1">  1        5 0.36204551E-01 0.13331277E+03</pdfrwt>
<pdfrwt beam="2">  1       -5 0.11618641E-01 0.13331277E+03</pdfrwt>
<totfact> 0.32780110E+02</totfact>
</mgrwt>
</event>
<event>
 8    1  0.1865596E-007  0.1675286E+03  0.7546771E-02  0.1180453E+00
          5   -1    0    0  501    0  0.00000000000E+00  0.00000000000E+00  0.16878322119E+03  0.16884864748E+03  0.47000000000E+01 0.  1.
         -5   -1    0    0    0  501 -0.00000000000E+00 -0.00000000000E+00 -0.25589522035E+03  0.25593837891E+03  0.47000000000E+01 0.  1.
         25    2    1    2    0    0  0.94987090384E+02  0.58454176933E+02 -0.16931376952E+03  0.23818689887E+03  0.12500563229E+03 0.  0.
         25    2    1    2    0    0 -0.94987090384E+02 -0.58454176933E+02  0.82201770357E+02  0.18660012751E+03  0.12499215335E+03 0.  0.
          5    1    4    4  502    0  0.95034460136E+01 -0.58808021368E+02  0.12913206918E+02  0.61135421617E+02  0.47000000000E+01 0. -1.
         -5    1    4    4    0  502 -0.10449053640E+03  0.35384443452E+00  0.69288563439E+02  0.12546470590E+03  0.47000000000E+01 0. -1.
          5    1    3    3  503    0  0.81841771553E+02 -0.22795652041E+02 -0.85551529970E+02  0.12066014919E+03  0.47000000000E+01 0.  1.
         -5    1    3    3    0  503  0.13145318830E+02  0.81249828974E+02 -0.83762239546E+02  0.11752674968E+03  0.47000000000E+01 0.  1.
<mgrwt>
<rscale>  0 0.16752613E+03</rscale>
<asrwt>0</asrwt>
<pdfrwt beam="1">  1        5 0.25975002E-01 0.16752864E+03</pdfrwt>
<pdfrwt beam="2">  1       -5 0.39376848E-01 0.16752864E+03</pdfrwt>
<totfact> 0.67510854E+01</totfact>
</mgrwt>
</event>
<event>
 8    1  0.1865596E-007  0.1608115E+03  0.7546771E-02  0.1187786E+00
          5   -1    0    0  501    0  0.00000000000E+00  0.00000000000E+00  0.15928585132E+04  0.15928654473E+04  0.47000000000E+01 0.  1.
         -5   -1    0    0    0  501 -0.00000000000E+00 -0.00000000000E+00 -0.17573292025E+02  0.18190948095E+02  0.47000000000E+01 0.  1.
         25    2    1    2    0    0  0.93241525203E+02  0.39257323471E+02  0.54266887618E+03  0.56599457070E+03  0.12500090167E+03 0.  0.
         25    2    1    2    0    0 -0.93241525203E+02 -0.39257323471E+02  0.10326163450E+04  0.10450618247E+04  0.12499032736E+03 0.  0.
          5    1    4    4  502    0 -0.43640388399E+02  0.33497398077E+01  0.84816924606E+03  0.84931081721E+03  0.47000000000E+01 0.  1.
         -5    1    4    4    0  502 -0.49601136804E+02 -0.42607063279E+02  0.18444709895E+03  0.19575100747E+03  0.47000000000E+01 0.  1.
          5    1    3    3  503    0  0.11555033368E+03  0.44903489815E+02  0.51485511300E+03  0.52959048367E+03  0.47000000000E+01 0.  1.
         -5    1    3    3    0  503 -0.22308808477E+02 -0.56461663436E+01  0.27813763173E+02  0.36404087022E+02  0.47000000000E+01 0.  1.
<mgrwt>
<rscale>  0 0.16080946E+03</rscale>
<asrwt>0</asrwt>
<pdfrwt beam="1">  1        5 0.24510330E+00 0.16081152E+03</pdfrwt>
<pdfrwt beam="2">  1       -5 0.27516276E-02 0.16081152E+03</pdfrwt>
<totfact> 0.32250487E+01</totfact>
</mgrwt>
</event>
<event>
 8    1  0.1865596E-007  0.1482405E+03  0.7546771E-02  0.1202653E+00
          5   -1    0    0  501    0  0.00000000000E+00  0.00000000000E+00  0.10341678291E+04  0.10341785092E+04  0.47000000000E+01 0.  1.
         -5   -1    0    0    0  501 -0.00000000000E+00 -0.00000000000E+00 -0.21184668191E+02  0.21699773417E+02  0.47000000000E+01 0.  1.
         25    2    1    2    0    0 -0.71720969525E+02 -0.34716719518E+02  0.55801679998E+03  0.57737055954E+03  0.12499946353E+03 0.  0.
         25    2    1    2    0    0  0.71720969525E+02  0.34716719518E+02  0.45496636097E+03  0.47850772304E+03  0.12500441319E+03 0.  0.
          5    1    4    4  502    0 -0.16880171875E+02 -0.87736390984E+01  0.25206061789E+03  0.25282120567E+03  0.47000000000E+01 0.  1.
         -5    1    4    4    0  502  0.88601141400E+02  0.43490358617E+02  0.20290574308E+03  0.22568651737E+03  0.47000000000E+01 0.  1.
          5    1    3    3  503    0 -0.55458055523E+02 -0.80505602223E+02  0.40962516528E+03  0.42115509488E+03  0.47000000000E+01 0. -1.
         -5    1    3    3    0  503 -0.16262914001E+02  0.45788882705E+02  0.14839163469E+03  0.15621546466E+03  0.47000000000E+01 0. -1.
<mgrwt>
<rscale>  0 0.14823948E+03</rscale>
<asrwt>0</asrwt>
<pdfrwt beam="1">  1        5 0.15914317E+00 0.14824052E+03</pdfrwt>
<pdfrwt beam="2">  1       -5 0.32996252E-02 0.14824052E+03</pdfrwt>
<totfact> 0.90986497E+01</totfact>
</mgrwt>
</event>
<event>
 8    1  0.1865596E-007  0.2060278E+03  0.7546771E-02  0.1144751E+00
          5   -1    0    0  501    0  0.00000000000E+00  0.00000000000E+00  0.19387280293E+03  0.19392976490E+03  0.47000000000E+01 0. -1.
         -5   -1    0    0    0  501 -0.00000000000E+00 -0.00000000000E+00 -0.29375245186E+03  0.29379004914E+03  0.47000000000E+01 0. -1.
         25    2    1    2    0    0 -0.12063572977E+03 -0.11076456128E+03 -0.17307633239E+03  0.26907579186E+03  0.12499839040E+03 0.  0.
         25    2    1    2    0    0  0.12063572977E+03  0.11076456128E+03  0.73196683452E+02  0.21864402219E+03  0.12500274652E+03 0.  0.
          5    1    4    4  502    0 -0.24793755870E+02  0.57215950072E+01  0.34397355756E+01  0.26103424304E+02  0.47000000000E+01 0. -1.
         -5    1    4    4    0  502  0.14542948564E+03  0.10504296627E+03  0.69756947877E+02  0.19254059788E+03  0.47000000000E+01 0. -1.
          5    1    3    3  503    0 -0.47854350431E+02 -0.70458294708E+01 -0.12388058684E+03  0.13307205704E+03  0.47000000000E+01 0. -1.
         -5    1    3    3    0  503 -0.72781379335E+02 -0.10371873181E+03 -0.49195745543E+02  0.13600373482E+03  0.47000000000E+01 0. -1.
<mgrwt>
<rscale>  0 0.20602714E+03</rscale>
<asrwt>0</asrwt>
<pdfrwt beam="1">  1        5 0.29833859E-01 0.20602780E+03</pdfrwt>
<pdfrwt beam="2">  1       -5 0.45199959E-01 0.20602780E+03</pdfrwt>
<totfact> 0.40944344E+01</totfact>
</mgrwt>
</event>
<event>
 8    1  0.1865596E-007  0.1734361E+03  0.7546771E-02  0.1174313E+00
          5   -1    0    0  501    0  0.00000000000E+00  0.00000000000E+00  0.85704240177E+02  0.85833016866E+02  0.47000000000E+01 0.  1.
         -5   -1    0    0    0  501 -0.00000000000E+00 -0.00000000000E+00 -0.35352052820E+03  0.35355176970E+03  0.47000000000E+01 0.  1.
         25    2    1    2    0    0 -0.95970986941E+02  0.72410072406E+02 -0.15404703837E+03  0.23197105512E+03  0.12500572572E+03 0.  0.
         25    2    1    2    0    0  0.95970986941E+02 -0.72410072406E+02 -0.11376924966E+03  0.20741373145E+03  0.12499345945E+03 0.  0.
          5    1    3    3  502    0 -0.65581085278E+02 -0.68552672388E+01 -0.12626964034E+03  0.14252713954E+03  0.47000000000E+01 0.  1.
         -5    1    3    3    0  502 -0.30389901662E+02  0.79265339645E+02 -0.27777398027E+02  0.89443915574E+02  0.47000000000E+01 0.  1.
          5    1    4    4  503    0  0.12192997791E+03 -0.68470663335E+02 -0.11439880899E+03  0.18073275506E+03  0.47000000000E+01 0.  1.
         -5    1    4    4    0  503 -0.25958990974E+02 -0.39394090712E+01  0.62955933553E+00  0.26680976391E+02  0.47000000000E+01 0.  1.
<mgrwt>
<rscale>  0 0.17343389E+03</rscale>
<asrwt>0</asrwt>
<pdfrwt beam="1">  1        5 0.13197577E-01 0.17343610E+03</pdfrwt>
<pdfrwt beam="2">  1       -5 0.54400082E-01 0.17343610E+03</pdfrwt>
<totfact> 0.12176805E+02</totfact>
</mgrwt>
</event>
<event>
 8    1  0.1865596E-007  0.1363303E+03  0.7546771E-02  0.1218358E+00
         -5   -1    0    0    0  501 -0.00000000000E+00  0.00000000000E+00  0.22126734074E+02  0.22620397008E+02  0.47000000000E+01 0.  1.
          5   -1    0    0  501    0  0.00000000000E+00 -0.00000000000E+00 -0.93499122329E+03  0.93500303616E+03  0.47000000000E+01 0.  1.
         25    2    1    2    0    0 -0.31833416361E+02  0.44094862336E+02 -0.29614728549E+03  0.32602017439E+03  0.12501286385E+03 0.  0.
         25    2    1    2    0    0  0.31833416361E+02 -0.44094862336E+02 -0.61671720373E+03  0.63160325878E+03  0.12499937536E+03 0.  0.
          5    1    3    3  502    0 -0.70890525085E+02  0.48211600248E+02 -0.13422561698E+03  0.15933747581E+03  0.47000000000E+01 0. -1.
         -5    1    3    3    0  502  0.39057108725E+02 -0.41167379124E+01 -0.16192166851E+03  0.16668269858E+03  0.47000000000E+01 0. -1.
          5    1    4    4  503    0 -0.13561071217E+02 -0.35041543329E+02 -0.54373541249E+03  0.54505238391E+03  0.47000000000E+01 0.  1.
         -5    1    4    4    0  503  0.45394487578E+02 -0.90533190071E+01 -0.72981791241E+02  0.86550874867E+02  0.47000000000E+01 0.  1.
<mgrwt>
<rscale>  0 0.13632717E+03</rscale>
<asrwt>0</asrwt>
<pdfrwt beam="2">  1        5 0.14388366E+00 0.13633026E+03</pdfrwt>
<pdfrwt beam="1">  1       -5 0.34429964E-02 0.13633026E+03</pdfrwt>
<totfact> 0.10910986E+02</totfact>
</mgrwt>
</event>
<event>
 8    1  0.1865596E-007  0.1455618E+03  0.7546771E-02  0.1206036E+00
          5   -1    0    0  501    0  0.00000000000E+00  0.00000000000E+00  0.11407932509E+03  0.11417610263E+03  0.47000000000E+01 0. -1.
         -5   -1    0    0    0  501 -0.00000000000E+00 -0.00000000000E+00 -0.18636385584E+03  0.18642311220E+03  0.47000000000E+01 0. -1.
         25    2    1    2    0    0 -0.71582477798E+02  0.20951638697E+02 -0.46238486685E+02  0.15272546178E+03  0.12499618688E+03 0.  0.
         25    2    1    2    0    0  0.71582477798E+02 -0.20951638697E+02 -0.26046044063E+02  0.14787375305E+03  0.12500091255E+03 0.  0.
          5    1    4    4  502    0  0.37952744874E+02 -0.66313400646E+02 -0.44173509855E+02  0.88381372028E+02  0.47000000000E+01 0. -1.
         -5    1    4    4    0  502  0.33629732924E+02  0.45361761948E+02  0.18127465792E+02  0.59492381022E+02  0.47000000000E+01 0. -1.
          5    1    3    3  503    0 -0.61236088576E+02 -0.17161400490E+02 -0.78768105084E+02  0.10134533334E+03  0.47000000000E+01 0.  1.
         -5    1    3    3    0  503 -0.10346389223E+02  0.38113039187E+02  0.32529618399E+02  0.51380128447E+02  0.47000000000E+01 0.  1.
<mgrwt>
<rscale>  0 0.14556083E+03</rscale>
<asrwt>0</asrwt>
<pdfrwt beam="1">  1        5 0.17562668E-01 0.14556184E+03</pdfrwt>
<pdfrwt beam="2">  1       -5 0.28683365E-01 0.14556184E+03</pdfrwt>
<totfact> 0.25447897E+02</totfact>
</mgrwt>
</event>
<event>
 8    1  0.1865596E-007  0.1294395E+03  0.7546771E-02  0.1228291E+00
         -5   -1    0    0    0  501 -0.00000000000E+00  0.00000000000E+00  0.91580577786E+02  0.91701102652E+02  0.47000000000E+01 0.  1.
          5   -1    0    0  501    0  0.00000000000E+00 -0.00000000000E+00 -0.28242265150E+03  0.28246175684E+03  0.47000000000E+01 0.  1.
         25    2    1    2    0    0  0.47568172220E+01 -0.33286607120E+02  0.15728761620E+02  0.13038818291E+03  0.12499223487E+03 0.  0.
         25    2    1    2    0    0 -0.47568172220E+01  0.33286607120E+02 -0.20657083533E+03  0.24377467658E+03  0.12499582957E+03 0.  0.
          5    1    3    3  502    0  0.48150746069E+02 -0.11849759365E+02  0.50249434444E+02  0.70753139902E+02  0.47000000000E+01 0.  1.
         -5    1    3    3    0  502 -0.43393928847E+02 -0.21436847755E+02 -0.34520672825E+02  0.59635043009E+02  0.47000000000E+01 0.  1.
          5    1    4    4  503    0 -0.35289348703E+01 -0.59053736634E+01  0.15833234872E+02  0.17891566335E+02  0.47000000000E+01 0. -1.
         -5    1    4    4    0  503 -0.12278823517E+01  0.39191980783E+02 -0.22240407020E+03  0.22588311025E+03  0.47000000000E+01 0. -1.
<mgrwt>
<rscale>  0 0.12943863E+03</rscale>
<asrwt>0</asrwt>
<pdfrwt beam="2">  1        5 0.43461918E-01 0.12943950E+03</pdfrwt>
<pdfrwt beam="1">  1       -5 0.14101599E-01 0.12943950E+03</pdfrwt>
<totfact> 0.15822799E+02</totfact>
</mgrwt>
</event>
<event>
 8    1  0.1865596E-007  0.2051645E+03  0.7546771E-02  0.1145454E+00
          5   -1    0    0  501    0  0.00000000000E+00  0.00000000000E+00  0.18399714959E+03  0.18405716791E+03  0.47000000000E+01 0.  1.
         -5   -1    0    0    0  501 -0.00000000000E+00 -0.00000000000E+00 -0.27325790240E+03  0.27329831910E+03  0.47000000000E+01 0.  1.
         25    2    1    2    0    0  0.44131333875E+02 -0.15658536213E+03 -0.13701270480E+03  0.24670716399E+03  0.12500157287E+03 0.  0.
         25    2    1    2    0    0 -0.44131333875E+02  0.15658536213E+03  0.47751951994E+02  0.21064832303E+03  0.12500366719E+03 0.  0.
          5    1    4    4  502    0 -0.62517775165E+02  0.46506696669E+02 -0.19240646625E+02  0.80396750738E+02  0.47000000000E+01 0. -1.
         -5    1    4    4    0  502  0.18386441290E+02  0.11007866546E+03  0.66992598619E+02  0.13025157229E+03  0.47000000000E+01 0. -1.
          5    1    3    3  503    0  0.58749921357E+02 -0.14588637449E+03 -0.15491686909E+03  0.22080696060E+03  0.47000000000E+01 0.  1.
         -5    1    3    3    0  503 -0.14618587482E+02 -0.10698987639E+02  0.17904164287E+02  0.25900203383E+02  0.47000000000E+01 0.  1.
<mgrwt>
<rscale>  0 0.20516417E+03</rscale>
<asrwt>0</asrwt>
<pdfrwt beam="1">  1        5 0.28314980E-01 0.20516449E+03</pdfrwt>
<pdfrwt beam="2">  1       -5 0.42047403E-01 0.20516449E+03</pdfrwt>
<totfact> 0.52718605E+01</totfact>
</mgrwt>
</event>
<event>
 8    1  0.1865596E-007  0.1259123E+03  0.7546771E-02  0.1233652E+00
         -5   -1    0    0    0  501 -0.00000000000E+00  0.00000000000E+00  0.25374964273E+03  0.25379316615E+03  0.47000000000E+01 0.  1.
          5   -1    0    0  501    0  0.00000000000E+00 -0.00000000000E+00 -0.72609945640E+02  0.72761900785E+02  0.47000000000E+01 0.  1.
         25    2    1    2    0    0  0.14822494831E+02 -0.29485518274E+01  0.15189023734E+03  0.19729006245E+03  0.12499729689E+03 0.  0.
         25    2    1    2    0    0 -0.14822494831E+02  0.29485518274E+01  0.29249459745E+02  0.12926500448E+03  0.12500204070E+03 0.  0.
          5    1    3    3  502    0  0.10410170432E+02  0.60679059410E+02  0.80302912305E+02  0.10129643441E+03  0.47000000000E+01 0.  1.
         -5    1    3    3    0  502  0.44123243990E+01 -0.63627611238E+02  0.71587325035E+02  0.95993628039E+02  0.47000000000E+01 0.  1.
          5    1    4    4  503    0 -0.26196711274E+02 -0.48732762201E+02 -0.17789163873E+02  0.58306896201E+02  0.47000000000E+01 0. -1.
         -5    1    4    4    0  503  0.11374216443E+02  0.51681314028E+02  0.47038623618E+02  0.70958108284E+02  0.47000000000E+01 0. -1.
<mgrwt>
<rscale>  0 0.12591114E+03</rscale>
<asrwt>0</asrwt>
<pdfrwt beam="2">  1        5 0.11185798E-01 0.12591231E+03</pdfrwt>
<pdfrwt beam="1">  1       -5 0.39053443E-01 0.12591231E+03</pdfrwt>
<totfact> 0.29451223E+02</totfact>
</mgrwt>
</event>
<event>
 8    1  0.1865596E-007  0.1312960E+03  0.7546771E-02  0.1225548E+00
         -5   -1    0    0    0  501 -0.00000000000E+00  0.00000000000E+00  0.61593640865E+03  0.61595434043E+03  0.47000000000E+01 0. -1.
          5   -1    0    0  501    0  0.00000000000E+00 -0.00000000000E+00 -0.27826402639E+02  0.28220536561E+02  0.47000000000E+01 0. -1.
         25    2    1    2    0    0  0.40045698183E+02  0.25933231329E+01  0.27971312546E+03  0.30899525507E+03  0.12501300666E+03 0.  0.
         25    2    1    2    0    0 -0.40045698183E+02 -0.25933231329E+01  0.30839688055E+03  0.33517962192E+03  0.12500543889E+03 0.  0.
          5    1    3    3  502    0  0.80599723792E+02  0.16815948338E+02  0.22245166279E+03  0.23724654659E+03  0.47000000000E+01 0. -1.
         -5    1    3    3    0  502 -0.40554025609E+02 -0.14222625205E+02  0.57261462673E+02  0.71748708478E+02  0.47000000000E+01 0. -1.
          5    1    4    4  503    0 -0.24217440035E+02  0.53924817669E+02  0.22763802014E+03  0.23523504963E+03  0.47000000000E+01 0.  1.
         -5    1    4    4    0  503 -0.15828258148E+02 -0.56518140802E+02  0.80758860415E+02  0.99944572295E+02  0.47000000000E+01 0.  1.
<mgrwt>
<rscale>  0 0.13129418E+03</rscale>
<asrwt>0</asrwt>
<pdfrwt beam="2">  1        5 0.43126825E-02 0.13129598E+03</pdfrwt>
<pdfrwt beam="1">  1       -5 0.94791143E-01 0.13129598E+03</pdfrwt>
<totfact> 0.21450593E+02</totfact>
</mgrwt>
</event>
<event>
 8    1  0.1865596E-007  0.1490594E+03  0.7546771E-02  0.1201635E+00
          5   -1    0    0  501    0  0.00000000000E+00  0.00000000000E+00  0.34957615917E+02  0.35272154890E+02  0.47000000000E+01 0. -1.
         -5   -1    0    0    0  501 -0.00000000000E+00 -0.00000000000E+00 -0.65798847247E+03  0.65800525826E+03  0.47000000000E+01 0. -1.
         25    2    1    2    0    0 -0.53520827545E+01 -0.81018916242E+02 -0.24317480792E+03  0.28522187911E+03  0.12499929414E+03 0.  0.
         25    2    1    2    0    0  0.53520827545E+01  0.81018916242E+02 -0.37985604863E+03  0.40805553404E+03  0.12500396636E+03 0.  0.
          5    1    4    4  502    0 -0.98182721342E+01  0.11137417776E+03 -0.32110248342E+03  0.34004338076E+03  0.47000000000E+01 0.  1.
         -5    1    4    4    0  502  0.15170354889E+02 -0.30355261523E+02 -0.58753565210E+02  0.68012153285E+02  0.47000000000E+01 0.  1.
          5    1    3    3  503    0 -0.54435865671E+02 -0.78556643368E+02 -0.12718167166E+03  0.15915928278E+03  0.47000000000E+01 0. -1.
         -5    1    3    3    0  503  0.49083782917E+02 -0.24622728732E+01 -0.11599313626E+03  0.12606259633E+03  0.47000000000E+01 0. -1.
<mgrwt>
<rscale>  0 0.14905841E+03</rscale>
<asrwt>0</asrwt>
<pdfrwt beam="1">  1        5 0.54035818E-02 0.14905939E+03</pdfrwt>
<pdfrwt beam="2">  1       -5 0.10125447E+00 0.14905939E+03</pdfrwt>
<totfact> 0.13112317E+02</totfact>
</mgrwt>
</event>
<event>
 8    1  0.1865596E-007  0.1319335E+03  0.7546771E-02  0.1224620E+00
          5   -1    0    0  501    0  0.00000000000E+00  0.00000000000E+00  0.20635787458E+03  0.20641139116E+03  0.47000000000E+01 0.  1.
         -5   -1    0    0    0  501 -0.00000000000E+00 -0.00000000000E+00 -0.11115871160E+03  0.11125802967E+03  0.47000000000E+01 0.  1.
         25    2    1    2    0    0  0.33292075610E+02 -0.25869728358E+02 -0.30548078374E+02  0.13540912100E+03  0.12499935925E+03 0.  0.
         25    2    1    2    0    0 -0.33292075610E+02  0.25869728358E+02  0.12574724135E+03  0.18226029984E+03  0.12501537123E+03 0.  0.
          5    1    4    4  502    0 -0.99594115432E+01  0.66088572353E+02  0.25561028447E+02  0.71710148857E+02  0.47000000000E+01 0.  1.
         -5    1    4    4    0  502 -0.23332664066E+02 -0.40218843994E+02  0.10018621291E+03  0.11055015098E+03  0.47000000000E+01 0.  1.
          5    1    3    3  503    0 -0.51471517549E+01 -0.16894408484E+02 -0.74171727353E+02  0.76390112892E+02  0.47000000000E+01 0. -1.
         -5    1    3    3    0  503  0.38439227364E+02 -0.89753198737E+01  0.43623648979E+02  0.59019008103E+02  0.47000000000E+01 0. -1.
<mgrwt>
<rscale>  0 0.13192971E+03</rscale>
<asrwt>0</asrwt>
<pdfrwt beam="1">  1        5 0.31759122E-01 0.13193350E+03</pdfrwt>
<pdfrwt beam="2">  1       -5 0.17113097E-01 0.13193350E+03</pdfrwt>
<totfact> 0.21135396E+02</totfact>
</mgrwt>
</event>
<event>
 8    1  0.1865596E-007  0.1313333E+03  0.7546771E-02  0.1225497E+00
         -5   -1    0    0    0  501 -0.00000000000E+00  0.00000000000E+00  0.52785598009E+03  0.52787690394E+03  0.47000000000E+01 0. -1.
          5   -1    0    0  501    0  0.00000000000E+00 -0.00000000000E+00 -0.33424229722E+02  0.33753061083E+02  0.47000000000E+01 0. -1.
         25    2    1    2    0    0 -0.25609892244E+02 -0.31046450422E+02  0.29414098431E+03  0.32212940829E+03  0.12501475259E+03 0.  0.
         25    2    1    2    0    0  0.25609892244E+02  0.31046450422E+02  0.20029076605E+03  0.23950055674E+03  0.12499750817E+03 0.  0.
          5    1    4    4  502    0  0.64466138458E+02 -0.50641964764E+01  0.55912653045E+02  0.85614507322E+02  0.47000000000E+01 0.  1.
         -5    1    4    4    0  502 -0.38856246213E+02  0.36110646899E+02  0.14437811301E+03  0.15388604942E+03  0.47000000000E+01 0.  1.
          5    1    3    3  503    0  0.10157112976E+02 -0.54835540138E+02  0.52771101272E+02  0.76921924935E+02  0.47000000000E+01 0. -1.
         -5    1    3    3    0  503 -0.35767005220E+02  0.23789089715E+02  0.24136988304E+03  0.24520748335E+03  0.47000000000E+01 0. -1.
<mgrwt>
<rscale>  0 0.13132920E+03</rscale>
<asrwt>0</asrwt>
<pdfrwt beam="2">  1        5 0.51690932E-02 0.13133331E+03</pdfrwt>
<pdfrwt beam="1">  1       -5 0.81235520E-01 0.13133331E+03</pdfrwt>
<totfact> 0.22872215E+02</totfact>
</mgrwt>
</event>
<event>
 8    1  0.1865596E-007  0.1270527E+03  0.7546771E-02  0.1231917E+00
         -5   -1    0    0    0  501 -0.00000000000E+00  0.00000000000E+00  0.47538074035E+02  0.47769849099E+02  0.47000000000E+01 0. -1.
          5   -1    0    0  501    0  0.00000000000E+00 -0.00000000000E+00 -0.35953943269E+03  0.35957015124E+03  0.47000000000E+01 0. -1.
         25    2    1    2    0    0 -0.21785942142E+02 -0.53243221999E+01 -0.10653441782E+03  0.16576383696E+03  0.12500036713E+03 0.  0.
         25    2    1    2    0    0  0.21785942142E+02  0.53243221999E+01 -0.20546694084E+03  0.24157616337E+03  0.12505759973E+03 0.  0.
          5    1    4    4  502    0  0.50049818196E+02 -0.88041842901E+01 -0.20324316213E+03  0.20955278790E+03  0.47000000000E+01 0. -1.
         -5    1    4    4    0  502 -0.28263876054E+02  0.14128506490E+02 -0.22237787079E+01  0.32023375477E+02  0.47000000000E+01 0. -1.
          5    1    3    3  503    0  0.47563501766E+02 -0.24159008147E+02 -0.57869863935E+02  0.78847672931E+02  0.47000000000E+01 0.  1.
         -5    1    3    3    0  503 -0.69349443908E+02  0.18834685947E+02 -0.48664553882E+02  0.86916164029E+02  0.47000000000E+01 0.  1.
<mgrwt>
<rscale>  0 0.12703858E+03</rscale>
<asrwt>0</asrwt>
<pdfrwt beam="2">  1        5 0.55333949E-01 0.12705266E+03</pdfrwt>
<pdfrwt beam="1">  1       -5 0.73337419E-02 0.12705266E+03</pdfrwt>
<totfact> 0.29579079E+02</totfact>
</mgrwt>
</event>
<event>
 8    1  0.1865596E-007  0.1392765E+03  0.7546771E-02  0.1214309E+00
         -5   -1    0    0    0  501 -0.00000000000E+00  0.00000000000E+00  0.53437012749E+02  0.53643306493E+02  0.47000000000E+01 0. -1.
          5   -1    0    0  501    0  0.00000000000E+00 -0.00000000000E+00 -0.59016000189E+03  0.59017871686E+03  0.47000000000E+01 0. -1.
         25    2    1    2    0    0 -0.15908590905E+02 -0.59334405726E+02 -0.68264620495E+02  0.15509798098E+03  0.12498668059E+03 0.  0.
         25    2    1    2    0    0  0.15908590905E+02  0.59334405726E+02 -0.46845836865E+03  0.48872404237E+03  0.12499716583E+03 0.  0.
          5    1    3    3  502    0 -0.68497767357E+02 -0.27347420282E+02 -0.54560784896E+02  0.91862912960E+02  0.47000000000E+01 0. -1.
         -5    1    3    3    0  502  0.52589176452E+02 -0.31986985445E+02 -0.13703835599E+02  0.63235068023E+02  0.47000000000E+01 0. -1.
          5    1    4    4  503    0  0.29433611703E+02  0.46731384816E+02 -0.67628826999E+02  0.87440883264E+02  0.47000000000E+01 0. -1.
         -5    1    4    4    0  503 -0.13525020798E+02  0.12603020910E+02 -0.40082954165E+03  0.40128315911E+03  0.47000000000E+01 0. -1.
<mgrwt>
<rscale>  0 0.13927416E+03</rscale>
<asrwt>0</asrwt>
<pdfrwt beam="2">  1        5 0.90811150E-01 0.13927651E+03</pdfrwt>
<pdfrwt beam="1">  1       -5 0.82383877E-02 0.13927651E+03</pdfrwt>
<totfact> 0.81659332E+01</totfact>
</mgrwt>
</event>
<event>
 8    1  0.1865596E-007  0.1305460E+03  0.7546771E-02  0.1226649E+00
          5   -1    0    0  501    0  0.00000000000E+00  0.00000000000E+00  0.14462806301E+03  0.14470441116E+03  0.47000000000E+01 0. -1.
         -5   -1    0    0    0  501 -0.00000000000E+00 -0.00000000000E+00 -0.13023598642E+03  0.13032076641E+03  0.47000000000E+01 0. -1.
         25    2    1    2    0    0  0.34876967449E+02  0.14136657863E+02 -0.35479920859E+02  0.13528146367E+03  0.12500400664E+03 0.  0.
         25    2    1    2    0    0 -0.34876967449E+02 -0.14136657863E+02  0.49871997447E+02  0.13974371390E+03  0.12499936596E+03 0.  0.
          5    1    3    3  502    0 -0.33208765250E+02  0.42734914450E+02 -0.28225571999E+01  0.54398086654E+02  0.47000000000E+01 0.  1.
         -5    1    3    3    0  502  0.68085732700E+02 -0.28598256588E+02 -0.32657363659E+02  0.80883377020E+02  0.47000000000E+01 0.  1.
          5    1    4    4  503    0 -0.26839426390E+02 -0.29492923770E+02  0.88479248671E+02  0.97164061293E+02  0.47000000000E+01 0. -1.
         -5    1    4    4    0  503 -0.80375410594E+01  0.15356265907E+02 -0.38607251225E+02  0.42579652606E+02  0.47000000000E+01 0. -1.
<mgrwt>
<rscale>  0 0.13054486E+03</rscale>
<asrwt>0</asrwt>
<pdfrwt beam="1">  1        5 0.22262866E-01 0.13054597E+03</pdfrwt>
<pdfrwt beam="2">  1       -5 0.20048700E-01 0.13054597E+03</pdfrwt>
<totfact> 0.31192346E+02</totfact>
</mgrwt>
</event>
<event>
 8    1  0.1865596E-007  0.1333043E+03  0.7546771E-02  0.1222634E+00
         -5   -1    0    0    0  501 -0.00000000000E+00  0.00000000000E+00  0.79813048446E+02  0.79951314574E+02  0.47000000000E+01 0.  1.
          5   -1    0    0  501    0  0.00000000000E+00 -0.00000000000E+00 -0.23584226734E+03  0.23588909484E+03  0.47000000000E+01 0.  1.
         25    2    1    2    0    0  0.42600952984E+02 -0.18135204319E+02 -0.40173573740E+02  0.13922623903E+03  0.12500521100E+03 0.  0.
         25    2    1    2    0    0 -0.42600952984E+02  0.18135204319E+02 -0.11585564515E+03  0.17661417038E+03  0.12500523123E+03 0.  0.
          5    1    4    4  502    0  0.37430873719E+02  0.26763786888E+02 -0.17554359251E+02  0.49473388045E+02  0.47000000000E+01 0.  1.
         -5    1    4    4    0  502 -0.80031826703E+02 -0.86285825688E+01 -0.98301285901E+02  0.12714078233E+03  0.47000000000E+01 0.  1.
          5    1    3    3  503    0  0.28316732930E+02  0.12653498218E+02 -0.80448229709E+02  0.86347878053E+02  0.47000000000E+01 0. -1.
         -5    1    3    3    0  503  0.14284220054E+02 -0.30788702537E+02  0.40274655969E+02  0.52878360979E+02  0.47000000000E+01 0. -1.
<mgrwt>
<rscale>  0 0.13330429E+03</rscale>
<asrwt>0</asrwt>
<pdfrwt beam="2">  1        5 0.36297663E-01 0.13330429E+03</pdfrwt>
<pdfrwt beam="1">  1       -5 0.12293169E-01 0.13330429E+03</pdfrwt>
<totfact> 0.29509222E+02</totfact>
</mgrwt>
</event>
<event>
 8    1  0.1865596E-007  0.1455349E+03  0.7546771E-02  0.1206072E+00
          5   -1    0    0  501    0  0.00000000000E+00  0.00000000000E+00  0.40616662885E+03  0.40619382122E+03  0.47000000000E+01 0.  1.
         -5   -1    0    0    0  501 -0.00000000000E+00 -0.00000000000E+00 -0.12407859493E+03  0.12416757918E+03  0.47000000000E+01 0.  1.
         25    2    1    2    0    0  0.57056323934E+02  0.47961822304E+02 -0.60911104747E+02  0.15776744629E+03  0.12499857570E+03 0.  0.
         25    2    1    2    0    0 -0.57056323934E+02 -0.47961822304E+02  0.34299913868E+03  0.37259395410E+03  0.12498833947E+03 0.  0.
          5    1    3    3  502    0  0.15722736522E+02 -0.42583951578E+02 -0.14850770146E+02  0.47992007144E+02  0.47000000000E+01 0. -1.
         -5    1    3    3    0  502  0.41333587413E+02  0.90545773883E+02 -0.46060334601E+02  0.10977543915E+03  0.47000000000E+01 0. -1.
          5    1    4    4  503    0 -0.13324707840E+02  0.18821628295E+02  0.34872376744E+01  0.23791854852E+02  0.47000000000E+01 0. -1.
         -5    1    4    4    0  503 -0.43731616094E+02 -0.66783450600E+02  0.33951190100E+03  0.34880209925E+03  0.47000000000E+01 0. -1.
<mgrwt>
<rscale>  0 0.14553269E+03</rscale>
<asrwt>0</asrwt>
<pdfrwt beam="1">  1        5 0.62496111E-01 0.14553489E+03</pdfrwt>
<pdfrwt beam="2">  1       -5 0.19097951E-01 0.14553489E+03</pdfrwt>
<totfact> 0.43464757E+01</totfact>
</mgrwt>
</event>
<event>
 8    1  0.1865596E-007  0.1594414E+03  0.7546771E-02  0.1189330E+00
         -5   -1    0    0    0  501 -0.00000000000E+00  0.00000000000E+00  0.19556697450E+03  0.19562344317E+03  0.47000000000E+01 0.  1.
          5   -1    0    0  501    0  0.00000000000E+00 -0.00000000000E+00 -0.15823377793E+03  0.15830356433E+03  0.47000000000E+01 0.  1.
         25    2    1    2    0    0 -0.28258954867E+02 -0.94856673015E+02  0.93561215083E+02  0.18486555071E+03  0.12500085570E+03 0.  0.
         25    2    1    2    0    0  0.28258954867E+02  0.94856673015E+02 -0.56228018511E+02  0.16906145678E+03  0.12499531655E+03 0.  0.
          5    1    4    4  502    0  0.22260925409E+02 -0.28075062739E+02 -0.98891956519E+01  0.37465239069E+02  0.47000000000E+01 0. -1.
         -5    1    4    4    0  502  0.59980294581E+01  0.12293173575E+03 -0.46338822859E+02  0.13159621771E+03  0.47000000000E+01 0. -1.
          5    1    3    3  503    0  0.15914707901E+02 -0.84835665788E+02  0.10683900153E+03  0.13743009265E+03  0.47000000000E+01 0. -1.
         -5    1    3    3    0  503 -0.44173662768E+02 -0.10021007227E+02 -0.13277786452E+02  0.47435458059E+02  0.47000000000E+01 0. -1.
<mgrwt>
<rscale>  0 0.15944035E+03</rscale>
<asrwt>0</asrwt>
<pdfrwt beam="2">  1        5 0.24353370E-01 0.15944143E+03</pdfrwt>
<pdfrwt beam="1">  1       -5 0.30096939E-01 0.15944143E+03</pdfrwt>
<totfact> 0.12915434E+02</totfact>
</mgrwt>
</event>
<event>
 8    1  0.1865596E-007  0.1294942E+03  0.7546771E-02  0.1228208E+00
         -5   -1    0    0    0  501 -0.00000000000E+00  0.00000000000E+00  0.24383149360E+03  0.24387678707E+03  0.47000000000E+01 0. -1.
          5   -1    0    0  501    0  0.00000000000E+00 -0.00000000000E+00 -0.74719652171E+02  0.74867325454E+02  0.47000000000E+01 0. -1.
         25    2    1    2    0    0 -0.33139615838E+02 -0.67519113011E+01  0.12995767939E+03  0.18346049911E+03  0.12499973544E+03 0.  0.
         25    2    1    2    0    0  0.33139615838E+02  0.67519113011E+01  0.39154162039E+02  0.13528361341E+03  0.12499914083E+03 0.  0.
          5    1    3    3  502    0 -0.60868469164E+02 -0.12427215446E+02  0.13799809876E+02  0.63811683685E+02  0.47000000000E+01 0.  1.
         -5    1    3    3    0  502  0.27728853326E+02  0.56753041444E+01  0.11615786951E+03  0.11964881543E+03  0.47000000000E+01 0.  1.
          5    1    4    4  503    0  0.72729975074E+02  0.34668808096E+02  0.21646834322E+02  0.83559864559E+02  0.47000000000E+01 0.  1.
         -5    1    4    4    0  503 -0.39590359236E+02 -0.27916896794E+02  0.17507327717E+02  0.51723748848E+02  0.47000000000E+01 0.  1.
<mgrwt>
<rscale>  0 0.12949409E+03</rscale>
<asrwt>0</asrwt>
<pdfrwt beam="2">  1        5 0.11510175E-01 0.12949423E+03</pdfrwt>
<pdfrwt beam="1">  1       -5 0.37527381E-01 0.12949423E+03</pdfrwt>
<totfact> 0.30675855E+02</totfact>
</mgrwt>
</event>
<event>
 8    1  0.1865596E-007  0.1268555E+03  0.7546771E-02  0.1232202E+00
          5   -1    0    0  501    0  0.00000000000E+00  0.00000000000E+00  0.11697510582E+03  0.11706948954E+03  0.47000000000E+01 0. -1.
         -5   -1    0    0    0  501 -0.00000000000E+00 -0.00000000000E+00 -0.15428788241E+03  0.15435945276E+03  0.47000000000E+01 0. -1.
         25    2    1    2    0    0  0.20076551551E+02  0.79562198381E+01 -0.63572022133E+02  0.14188410964E+03  0.12499331668E+03 0.  0.
         25    2    1    2    0    0 -0.20076551551E+02 -0.79562198381E+01  0.26259245547E+02  0.12954483266E+03  0.12500378529E+03 0.  0.
          5    1    4    4  502    0 -0.53079242125E+01 -0.55290101746E+01 -0.50451568286E+02  0.51246412123E+02  0.47000000000E+01 0.  1.
         -5    1    4    4    0  502 -0.14768627339E+02 -0.24272096635E+01  0.76710813833E+02  0.78298420540E+02  0.47000000000E+01 0.  1.
          5    1    3    3  503    0  0.47830688148E+02 -0.43534544945E+02 -0.49384823171E+02  0.81510625638E+02  0.47000000000E+01 0.  1.
         -5    1    3    3    0  503 -0.27754136597E+02  0.51490764783E+02 -0.14187198963E+02  0.60373484002E+02  0.47000000000E+01 0.  1.
<mgrwt>
<rscale>  0 0.12685291E+03</rscale>
<asrwt>0</asrwt>
<pdfrwt beam="1">  1        5 0.18008936E-01 0.12685549E+03</pdfrwt>
<pdfrwt beam="2">  1       -5 0.23749363E-01 0.12685549E+03</pdfrwt>
<totfact> 0.33317321E+02</totfact>
</mgrwt>
</event>
<event>
 8    1  0.1865596E-007  0.1331750E+03  0.7546771E-02  0.1222826E+00
          5   -1    0    0  501    0  0.00000000000E+00  0.00000000000E+00  0.16576296607E+03  0.16582958397E+03  0.47000000000E+01 0.  1.
         -5   -1    0    0    0  501 -0.00000000000E+00 -0.00000000000E+00 -0.12027346845E+03  0.12036526580E+03  0.47000000000E+01 0.  1.
         25    2    1    2    0    0  0.38167944223E+02 -0.25575426282E+02 -0.25045745570E+02  0.13550966935E+03  0.12499874688E+03 0.  0.
         25    2    1    2    0    0 -0.38167944223E+02  0.25575426282E+02  0.70535243195E+02  0.15068518042E+03  0.12497963303E+03 0.  0.
          5    1    4    4  502    0 -0.58879623518E+02  0.63374010207E+02  0.61906984766E+02  0.10647835460E+03  0.47000000000E+01 0. -1.
         -5    1    4    4    0  502  0.20711679295E+02 -0.37798583926E+02  0.86282584286E+01  0.44206825825E+02  0.47000000000E+01 0. -1.
          5    1    3    3  503    0  0.44043212585E+02 -0.72873654249E+02 -0.15577370636E+02  0.86689783333E+02  0.47000000000E+01 0. -1.
         -5    1    3    3    0  503 -0.58752683616E+01  0.47298227967E+02 -0.94683749344E+01  0.48819886020E+02  0.47000000000E+01 0. -1.
<mgrwt>
<rscale>  0 0.13317052E+03</rscale>
<asrwt>0</asrwt>
<pdfrwt beam="1">  1        5 0.25514180E-01 0.13317500E+03</pdfrwt>
<pdfrwt beam="2">  1       -5 0.18515796E-01 0.13317500E+03</pdfrwt>
<totfact> 0.28094735E+02</totfact>
</mgrwt>
</event>
<event>
 8    1  0.1865596E-007  0.1275597E+03  0.7546771E-02  0.1231124E+00
         -5   -1    0    0    0  501 -0.00000000000E+00  0.00000000000E+00  0.66470317728E+03  0.66471979351E+03  0.47000000000E+01 0. -1.
          5   -1    0    0  501    0  0.00000000000E+00 -0.00000000000E+00 -0.24349276767E+02  0.24798735433E+02  0.47000000000E+01 0. -1.
         25    2    1    2    0    0 -0.54978103352E+01 -0.24812199911E+02  0.29683974930E+03  0.32308511499E+03  0.12499713430E+03 0.  0.
         25    2    1    2    0    0  0.54978103352E+01  0.24812199911E+02  0.34351415121E+03  0.36643341395E+03  0.12500241435E+03 0.  0.
          5    1    4    4  502    0  0.61211196802E+02 -0.12842451991E+01  0.12338301081E+03  0.13781842132E+03  0.47000000000E+01 0. -1.
         -5    1    4    4    0  502 -0.55713386467E+02  0.26096445110E+02  0.22013114041E+03  0.22861499263E+03  0.47000000000E+01 0. -1.
          5    1    3    3  503    0 -0.63696779250E+01  0.39058542696E+02  0.33481886377E+02  0.52050641396E+02  0.47000000000E+01 0.  1.
         -5    1    3    3    0  503  0.87186758979E+00 -0.63870742607E+02  0.26335786292E+03  0.27103447359E+03  0.47000000000E+01 0.  1.
<mgrwt>
<rscale>  0 0.12755840E+03</rscale>
<asrwt>0</asrwt>
<pdfrwt beam="2">  1        5 0.37818944E-02 0.12755969E+03</pdfrwt>
<pdfrwt beam="1">  1       -5 0.10229788E+00 0.12755969E+03</pdfrwt>
<totfact> 0.21895572E+02</totfact>
</mgrwt>
</event>
<event>
 8    1  0.1865596E-007  0.1792293E+03  0.7546771E-02  0.1168551E+00
         -5   -1    0    0    0  501 -0.00000000000E+00  0.00000000000E+00  0.27067952451E+03  0.27072032615E+03  0.47000000000E+01 0.  1.
          5   -1    0    0  501    0  0.00000000000E+00 -0.00000000000E+00 -0.27766284779E+03  0.27770262340E+03  0.47000000000E+01 0.  1.
         25    2    1    2    0    0  0.10205728332E+03 -0.77986953455E+02  0.20402620950E+03  0.27156921455E+03  0.12500196056E+03 0.  0.
         25    2    1    2    0    0 -0.10205728332E+03  0.77986953455E+02 -0.21100953278E+03  0.27685373499E+03  0.12500125466E+03 0.  0.
          5    1    3    3  502    0  0.55167768659E+02  0.28600892431E+02  0.62898552731E+02  0.88542711063E+02  0.47000000000E+01 0.  1.
         -5    1    3    3    0  502  0.46889514661E+02 -0.10658784589E+03  0.14112765677E+03  0.18302650349E+03  0.47000000000E+01 0.  1.
          5    1    4    4  503    0 -0.60117237565E+02  0.10937167013E+03 -0.13003317878E+03  0.18029687203E+03  0.47000000000E+01 0.  1.
         -5    1    4    4    0  503 -0.41940045756E+02 -0.31384716672E+02 -0.80976354000E+02  0.96556862965E+02  0.47000000000E+01 0.  1.
<mgrwt>
<rscale>  0 0.17922918E+03</rscale>
<asrwt>0</asrwt>
<pdfrwt beam="2">  1        5 0.42723559E-01 0.17922931E+03</pdfrwt>
<pdfrwt beam="1">  1       -5 0.41649202E-01 0.17922931E+03</pdfrwt>
<totfact> 0.22641339E+01</totfact>
</mgrwt>
</event>
<event>
 8    1  0.1865596E-007  0.1310321E+03  0.7546771E-02  0.1225933E+00
         -5   -1    0    0    0  501 -0.00000000000E+00  0.00000000000E+00  0.96981596048E+02  0.97095416844E+02  0.47000000000E+01 0.  1.
          5   -1    0    0  501    0  0.00000000000E+00 -0.00000000000E+00 -0.18168351394E+03  0.18174429630E+03  0.47000000000E+01 0.  1.
         25    2    1    2    0    0  0.28636712703E+02 -0.26877425069E+02 -0.19475321077E+02  0.13247056630E+03  0.12500682186E+03 0.  0.
         25    2    1    2    0    0 -0.28636712703E+02  0.26877425069E+02 -0.65226596814E+02  0.14636914684E+03  0.12500784344E+03 0.  0.
          5    1    3    3  502    0  0.71221212591E+02 -0.11567005353E+02  0.16857960877E+02  0.74246465105E+02  0.47000000000E+01 0. -1.
         -5    1    3    3    0  502 -0.42584499888E+02 -0.15310419716E+02 -0.36333281954E+02  0.58224101196E+02  0.47000000000E+01 0. -1.
          5    1    4    4  503    0 -0.23082109554E+02 -0.41439561982E+02 -0.61165753093E+02  0.77545860174E+02  0.47000000000E+01 0.  1.
         -5    1    4    4    0  503 -0.55546031485E+01  0.68316987051E+02 -0.40608437214E+01  0.68823286667E+02  0.47000000000E+01 0.  1.
<mgrwt>
<rscale>  0 0.13103188E+03</rscale>
<asrwt>0</asrwt>
<pdfrwt beam="2">  1        5 0.27964741E-01 0.13103213E+03</pdfrwt>
<pdfrwt beam="1">  1       -5 0.14933677E-01 0.13103213E+03</pdfrwt>
<totfact> 0.34663919E+02</totfact>
</mgrwt>
</event>
<event>
 8    1  0.1865596E-007  0.1519896E+03  0.7546771E-02  0.1198050E+00
          5   -1    0    0  501    0  0.00000000000E+00  0.00000000000E+00  0.88289769350E+02  0.88414780280E+02  0.47000000000E+01 0. -1.
         -5   -1    0    0    0  501 -0.00000000000E+00 -0.00000000000E+00 -0.26561446783E+03  0.26565604740E+03  0.47000000000E+01 0. -1.
         25    2    1    2    0    0 -0.86248732954E+02  0.60514270601E+01 -0.11117921956E+03  0.18831174829E+03  0.12500012791E+03 0.  0.
         25    2    1    2    0    0  0.86248732954E+02 -0.60514270601E+01 -0.66145478921E+02  0.16575907939E+03  0.12500153724E+03 0.  0.
          5    1    4    4  502    0  0.30612448084E+01 -0.54193301033E+02 -0.34380215141E+02  0.64423398620E+02  0.47000000000E+01 0.  1.
         -5    1    4    4    0  502  0.83187488146E+02  0.48141873973E+02 -0.31765263780E+02  0.10133568077E+03  0.47000000000E+01 0.  1.
          5    1    3    3  503    0  0.22527977132E+02  0.22368142397E+02 -0.57451123021E+02  0.65807029141E+02  0.47000000000E+01 0.  1.
         -5    1    3    3    0  503 -0.10877671009E+03 -0.16316715337E+02 -0.53728096534E+02  0.12250471915E+03  0.47000000000E+01 0.  1.
<mgrwt>
<rscale>  0 0.15198934E+03</rscale>
<asrwt>0</asrwt>
<pdfrwt beam="1">  1        5 0.13595856E-01 0.15198963E+03</pdfrwt>
<pdfrwt beam="2">  1       -5 0.40876578E-01 0.15198963E+03</pdfrwt>
<totfact> 0.20231322E+02</totfact>
</mgrwt>
</event>
<event>
 8    1  0.1865596E-007  0.1347833E+03  0.7546771E-02  0.1220552E+00
          5   -1    0    0  501    0  0.00000000000E+00  0.00000000000E+00  0.18828953103E+03  0.18834818156E+03  0.47000000000E+01 0.  1.
         -5   -1    0    0    0  501 -0.00000000000E+00 -0.00000000000E+00 -0.98080546739E+02  0.98193093691E+02  0.47000000000E+01 0.  1.
         25    2    1    2    0    0  0.45064350455E+02 -0.22188694905E+02  0.25817455169E+02  0.13723365179E+03  0.12507357966E+03 0.  0.
         25    2    1    2    0    0 -0.45064350455E+02  0.22188694905E+02  0.64391529121E+02  0.14930762346E+03  0.12499345398E+03 0.  0.
          5    1    4    4  502    0 -0.40509924761E+02  0.20366865930E+02 -0.30065465615E+02  0.54606642953E+02  0.47000000000E+01 0.  1.
         -5    1    4    4    0  502 -0.45544256940E+01  0.18218289756E+01  0.94456994736E+02  0.94700980505E+02  0.47000000000E+01 0.  1.
          5    1    3    3  503    0  0.42182976967E+02  0.46437688094E+02 -0.20852728332E+01  0.62946809166E+02  0.47000000000E+01 0. -1.
         -5    1    3    3    0  503  0.28813734873E+01 -0.68626383000E+02  0.27902728002E+02  0.74286842622E+02  0.47000000000E+01 0. -1.
<mgrwt>
<rscale>  0 0.13476469E+03</rscale>
<asrwt>0</asrwt>
<pdfrwt beam="1">  1        5 0.28980789E-01 0.13478329E+03</pdfrwt>
<pdfrwt beam="2">  1       -5 0.15102484E-01 0.13478329E+03</pdfrwt>
<totfact> 0.32003798E+02</totfact>
</mgrwt>
</event>
<event>
 8    1  0.1865596E-007  0.1336027E+03  0.7546771E-02  0.1222208E+00
         -5   -1    0    0    0  501 -0.00000000000E+00  0.00000000000E+00  0.41633856368E+03  0.41636509172E+03  0.47000000000E+01 0.  1.
          5   -1    0    0  501    0  0.00000000000E+00 -0.00000000000E+00 -0.64312421619E+02  0.64483932685E+02  0.47000000000E+01 0.  1.
         25    2    1    2    0    0 -0.13368279516E+02  0.45224084724E+02  0.31508422696E+03  0.34223930831E+03  0.12500298132E+03 0.  0.
         25    2    1    2    0    0  0.13368279516E+02 -0.45224084724E+02  0.36941915099E+02  0.13860971609E+03  0.12499607821E+03 0.  0.
          5    1    3    3  502    0 -0.51478896018E+02 -0.11998318213E+02  0.71166909107E+02  0.88774181647E+02  0.47000000000E+01 0. -1.
         -5    1    3    3    0  502  0.38110616502E+02  0.57222402937E+02  0.24391731785E+03  0.25346512667E+03  0.47000000000E+01 0. -1.
          5    1    4    4  503    0  0.47276562464E+02 -0.74590512714E+02  0.26385663330E+02  0.92288196292E+02  0.47000000000E+01 0. -1.
         -5    1    4    4    0  503 -0.33908282948E+02  0.29366427990E+02  0.10556251769E+02  0.46321519802E+02  0.47000000000E+01 0. -1.
<mgrwt>
<rscale>  0 0.13360106E+03</rscale>
<asrwt>0</asrwt>
<pdfrwt beam="2">  1        5 0.99094528E-02 0.13360267E+03</pdfrwt>
<pdfrwt beam="1">  1       -5 0.64067318E-01 0.13360267E+03</pdfrwt>
<totfact> 0.13022077E+02</totfact>
</mgrwt>
</event>
<event>
 8    1  0.1865596E-007  0.1398714E+03  0.7546771E-02  0.1213502E+00
         -5   -1    0    0    0  501 -0.00000000000E+00  0.00000000000E+00  0.40889416903E+02  0.41158649330E+02  0.47000000000E+01 0.  1.
          5   -1    0    0  501    0  0.00000000000E+00 -0.00000000000E+00 -0.49123547717E+03  0.49125796078E+03  0.47000000000E+01 0.  1.
         25    2    1    2    0    0 -0.61428445149E+02  0.12858626880E+02 -0.17925161348E+03  0.22736543885E+03  0.12500041475E+03 0.  0.
         25    2    1    2    0    0  0.61428445149E+02 -0.12858626880E+02 -0.27109444679E+03  0.30505117127E+03  0.12500087941E+03 0.  0.
          5    1    3    3  502    0 -0.79263144656E+02 -0.35165803898E+02 -0.12856390081E+03  0.15514524309E+03  0.47000000000E+01 0.  1.
         -5    1    3    3    0  502  0.17834699507E+02  0.48024430778E+02 -0.50687712675E+02  0.72220195751E+02  0.47000000000E+01 0.  1.
          5    1    4    4  503    0 -0.87205555643E+01 -0.56312376832E+02 -0.11459757298E+03  0.12806961235E+03  0.47000000000E+01 0.  1.
         -5    1    4    4    0  503  0.70149000713E+02  0.43453749952E+02 -0.15649687380E+03  0.17698155891E+03  0.47000000000E+01 0.  1.
<mgrwt>
<rscale>  0 0.13987133E+03</rscale>
<asrwt>0</asrwt>
<pdfrwt beam="2">  1        5 0.75597124E-01 0.13987143E+03</pdfrwt>
<pdfrwt beam="1">  1       -5 0.63131196E-02 0.13987143E+03</pdfrwt>
<totfact> 0.19726968E+02</totfact>
</mgrwt>
</event>
<event>
 8    1  0.1865596E-007  0.1320732E+03  0.7546771E-02  0.1224412E+00
         -5   -1    0    0    0  501 -0.00000000000E+00  0.00000000000E+00  0.80549290813E+02  0.80686295307E+02  0.47000000000E+01 0. -1.
          5   -1    0    0  501    0  0.00000000000E+00 -0.00000000000E+00 -0.24274527678E+03  0.24279077289E+03  0.47000000000E+01 0. -1.
         25    2    1    2    0    0 -0.34422183953E+02 -0.25163110040E+02 -0.27636886366E+02  0.13493139306E+03  0.12499845795E+03 0.  0.
         25    2    1    2    0    0  0.34422183953E+02  0.25163110040E+02 -0.13455909960E+03  0.18854567513E+03  0.12500100588E+03 0.  0.
          5    1    3    3  502    0 -0.43752099396E+02  0.90242953801E+01 -0.67694411077E+02  0.81242275939E+02  0.47000000000E+01 0. -1.
         -5    1    3    3    0  502  0.93299154426E+01 -0.34187405420E+02  0.40057524711E+02  0.53689117124E+02  0.47000000000E+01 0. -1.
          5    1    4    4  503    0  0.42789912390E+02 -0.17540799427E+02 -0.13703730042E+03  0.14470648898E+03  0.47000000000E+01 0. -1.
         -5    1    4    4    0  503 -0.83677284363E+01  0.42703909467E+02  0.24782008202E+01  0.43839186149E+02  0.47000000000E+01 0. -1.
<mgrwt>
<rscale>  0 0.13207256E+03</rscale>
<asrwt>0</asrwt>
<pdfrwt beam="2">  1        5 0.37359465E-01 0.13207316E+03</pdfrwt>
<pdfrwt beam="1">  1       -5 0.12406237E-01 0.13207316E+03</pdfrwt>
<totfact> 0.27303137E+02</totfact>
</mgrwt>
</event>
<event>
 8    1  0.1865596E-007  0.2361538E+03  0.7546771E-02  0.1122383E+00
          5   -1    0    0  501    0  0.00000000000E+00  0.00000000000E+00  0.72196247850E+02  0.72349071892E+02  0.47000000000E+01 0.  1.
         -5   -1    0    0    0  501 -0.00000000000E+00 -0.00000000000E+00 -0.81826104319E+03  0.81827454121E+03  0.47000000000E+01 0.  1.
         25    2    1    2    0    0  0.18881328542E+03  0.67032126935E+02 -0.47951278997E+03  0.53451019174E+03  0.12499946617E+03 0.  0.
         25    2    1    2    0    0 -0.18881328542E+03 -0.67032126935E+02 -0.26655200537E+03  0.35611342137E+03  0.12499213782E+03 0.  0.
          5    1    3    3  502    0  0.36043286943E+02  0.30767458698E+02 -0.25350938045E+02  0.53949190060E+02  0.47000000000E+01 0. -1.
         -5    1    3    3    0  502  0.15276999847E+03  0.36264668237E+02 -0.45416185192E+03  0.48056100168E+03  0.47000000000E+01 0. -1.
          5    1    4    4  503    0 -0.72099924395E+02 -0.24409994184E+02 -0.18249844204E+02  0.78418070158E+02  0.47000000000E+01 0.  1.
         -5    1    4    4    0  503 -0.11671336102E+03 -0.42622132751E+02 -0.24830216117E+03  0.27769535121E+03  0.47000000000E+01 0.  1.
<mgrwt>
<rscale>  0 0.23615286E+03</rscale>
<asrwt>0</asrwt>
<pdfrwt beam="1">  1        5 0.11119910E-01 0.23615383E+03</pdfrwt>
<pdfrwt beam="2">  1       -5 0.12589910E+00 0.23615383E+03</pdfrwt>
<totfact> 0.24701046E+01</totfact>
</mgrwt>
</event>
<event>
 8    1  0.1865596E-007  0.1276578E+03  0.7546771E-02  0.1230976E+00
          5   -1    0    0  501    0  0.00000000000E+00  0.00000000000E+00  0.12736196839E+03  0.12744866022E+03  0.47000000000E+01 0. -1.
         -5   -1    0    0    0  501 -0.00000000000E+00 -0.00000000000E+00 -0.15313850349E+03  0.15321061077E+03  0.47000000000E+01 0. -1.
         25    2    1    2    0    0  0.21781912327E+02  0.14005713694E+02 -0.69967837775E+02  0.14556899492E+03  0.12499688892E+03 0.  0.
         25    2    1    2    0    0 -0.21781912327E+02 -0.14005713694E+02  0.44191302671E+02  0.13509027606E+03  0.12500359888E+03 0.  0.
          5    1    4    4  502    0  0.42156572037E+02 -0.83955205591E+01  0.54863659133E+02  0.69855367903E+02  0.47000000000E+01 0.  1.
         -5    1    4    4    0  502 -0.63938484365E+02 -0.56101931349E+01 -0.10672356462E+02  0.65234908157E+02  0.47000000000E+01 0.  1.
          5    1    3    3  503    0  0.46586144010E+02 -0.14975962480E+02  0.15756335691E+02  0.51622673122E+02  0.47000000000E+01 0. -1.
         -5    1    3    3    0  503 -0.24804231683E+02  0.28981676174E+02 -0.85724173466E+02  0.93946321799E+02  0.47000000000E+01 0. -1.
<mgrwt>
<rscale>  0 0.12765615E+03</rscale>
<asrwt>0</asrwt>
<pdfrwt beam="1">  1        5 0.19606364E-01 0.12765779E+03</pdfrwt>
<pdfrwt beam="2">  1       -5 0.23571985E-01 0.12765779E+03</pdfrwt>
<totfact> 0.28943942E+02</totfact>
</mgrwt>
</event>
<event>
 8    1  0.1865596E-007  0.1417252E+03  0.7546771E-02  0.1211029E+00
         -5   -1    0    0    0  501 -0.00000000000E+00  0.00000000000E+00  0.15612554715E+03  0.15619627548E+03  0.47000000000E+01 0.  1.
          5   -1    0    0  501    0  0.00000000000E+00 -0.00000000000E+00 -0.14311411127E+03  0.14319126665E+03  0.47000000000E+01 0.  1.
         25    2    1    2    0    0  0.61135135354E+02 -0.26875131129E+02  0.54308944240E+02  0.15176808778E+03  0.12499725436E+03 0.  0.
         25    2    1    2    0    0 -0.61135135354E+02  0.26875131129E+02 -0.41297508362E+02  0.14761945434E+03  0.12500496652E+03 0.  0.
          5    1    3    3  502    0  0.23649592381E+02  0.23725671728E+02 -0.30828392723E+02  0.45767789073E+02  0.47000000000E+01 0.  1.
         -5    1    3    3    0  502  0.37485542973E+02 -0.50600802857E+02  0.85137336964E+02  0.10600029871E+03  0.47000000000E+01 0.  1.
          5    1    4    4  503    0  0.17360573909E+02 -0.31593186655E+02  0.90321843174E+01  0.37459168745E+02  0.47000000000E+01 0. -1.
         -5    1    4    4    0  503 -0.78495709263E+02  0.58468317784E+02 -0.50329692679E+02  0.11016028560E+03  0.47000000000E+01 0. -1.
<mgrwt>
<rscale>  0 0.14172345E+03</rscale>
<asrwt>0</asrwt>
<pdfrwt beam="2">  1        5 0.22028931E-01 0.14172515E+03</pdfrwt>
<pdfrwt beam="1">  1       -5 0.24030691E-01 0.14172515E+03</pdfrwt>
<totfact> 0.23260128E+02</totfact>
</mgrwt>
</event>
<event>
 8    1  0.1865596E-007  0.1405112E+03  0.7546771E-02  0.1212644E+00
         -5   -1    0    0    0  501 -0.00000000000E+00  0.00000000000E+00  0.38107706668E+02  0.38396449152E+02  0.47000000000E+01 0. -1.
          5   -1    0    0  501    0  0.00000000000E+00 -0.00000000000E+00 -0.51585153764E+03  0.51587294840E+03  0.47000000000E+01 0. -1.
         25    2    1    2    0    0  0.55541666484E+02 -0.32133666964E+02 -0.23676180702E+03  0.27531470133E+03  0.12499832894E+03 0.  0.
         25    2    1    2    0    0 -0.55541666484E+02  0.32133666964E+02 -0.24098202395E+03  0.27895469622E+03  0.12500374957E+03 0.  0.
          5    1    4    4  502    0  0.26240224991E+02 -0.27182358734E+02 -0.83836196701E+02  0.92076207085E+02  0.47000000000E+01 0. -1.
         -5    1    4    4    0  502 -0.81781891475E+02  0.59316025698E+02 -0.15714582725E+03  0.18687848913E+03  0.47000000000E+01 0. -1.
          5    1    3    3  503    0  0.32896223518E+02 -0.56304354086E+02 -0.23258774825E+03  0.24160192972E+03  0.47000000000E+01 0.  1.
         -5    1    3    3    0  503  0.22645442966E+02  0.24170687122E+02 -0.41740587769E+01  0.33712771612E+02  0.47000000000E+01 0.  1.
<mgrwt>
<rscale>  0 0.14050996E+03</rscale>
<asrwt>0</asrwt>
<pdfrwt beam="2">  1        5 0.79385628E-01 0.14051116E+03</pdfrwt>
<pdfrwt beam="1">  1       -5 0.58865824E-02 0.14051116E+03</pdfrwt>
<totfact> 0.19861306E+02</totfact>
</mgrwt>
</event>
<event>
 8    1  0.1865596E-007  0.1479838E+03  0.7546771E-02  0.1202980E+00
         -5   -1    0    0    0  501 -0.00000000000E+00  0.00000000000E+00  0.32670512367E+03  0.32673892916E+03  0.47000000000E+01 0. -1.
          5   -1    0    0  501    0  0.00000000000E+00 -0.00000000000E+00 -0.93002969022E+02  0.93121652943E+02  0.47000000000E+01 0. -1.
         25    2    1    2    0    0 -0.20362602864E+02 -0.76571229180E+02  0.22795567327E+03  0.27176525445E+03  0.12495909658E+03 0.  0.
         25    2    1    2    0    0  0.20362602864E+02  0.76571229180E+02  0.57464813780E+01  0.14809532766E+03  0.12498566035E+03 0.  0.
          5    1    3    3  502    0 -0.24392456014E+02 -0.93878679009E+02  0.89397658842E+02  0.13199329411E+03  0.47000000000E+01 0.  1.
         -5    1    3    3    0  502  0.40298531494E+01  0.17307449830E+02  0.13855801443E+03  0.13977196034E+03  0.47000000000E+01 0.  1.
          5    1    4    4  503    0 -0.90431641366E+01  0.41499527461E+02 -0.56406812399E+02  0.70765868059E+02  0.47000000000E+01 0.  1.
         -5    1    4    4    0  503  0.29405767001E+02  0.35071701719E+02  0.62153293777E+02  0.77329459598E+02  0.47000000000E+01 0.  1.
<mgrwt>
<rscale>  0 0.14797819E+03</rscale>
<asrwt>0</asrwt>
<pdfrwt beam="2">  1        5 0.14319879E-01 0.14798380E+03</pdfrwt>
<pdfrwt beam="1">  1       -5 0.50274057E-01 0.14798380E+03</pdfrwt>
<totfact> 0.11855093E+02</totfact>
</mgrwt>
</event>
<event>
 8    1  0.1865596E-007  0.1989316E+03  0.7546771E-02  0.1150644E+00
         -5   -1    0    0    0  501 -0.00000000000E+00  0.00000000000E+00  0.68412633121E+03  0.68414247570E+03  0.47000000000E+01 0. -1.
          5   -1    0    0  501    0  0.00000000000E+00 -0.00000000000E+00 -0.61489196734E+02  0.61668560182E+02  0.47000000000E+01 0. -1.
         25    2    1    2    0    0 -0.35572791743E+02  0.15061209498E+03  0.40334020994E+03  0.44973004972E+03  0.12499746395E+03 0.  0.
         25    2    1    2    0    0  0.35572791743E+02 -0.15061209498E+03  0.21929692453E+03  0.29608098616E+03  0.12499353019E+03 0.  0.
          5    1    3    3  502    0 -0.61437515916E+02  0.18922578461E+02  0.12182376091E+03  0.13782507414E+03  0.47000000000E+01 0.  1.
         -5    1    3    3    0  502  0.25864724172E+02  0.13168951652E+03  0.28151644903E+03  0.31190497558E+03  0.47000000000E+01 0.  1.
          5    1    4    4  503    0  0.13477977620E+02 -0.16891683505E+03  0.19301784310E+03  0.25689011425E+03  0.47000000000E+01 0. -1.
         -5    1    4    4    0  503  0.22094814124E+02  0.18304740072E+02  0.26279081436E+02  0.39190871914E+02  0.47000000000E+01 0. -1.
<mgrwt>
<rscale>  0 0.19893101E+03</rscale>
<asrwt>0</asrwt>
<pdfrwt beam="2">  1        5 0.94749150E-02 0.19893163E+03</pdfrwt>
<pdfrwt beam="1">  1       -5 0.10526525E+00 0.19893163E+03</pdfrwt>
<totfact> 0.49572275E+01</totfact>
</mgrwt>
</event>
<event>
 8    1  0.1865596E-007  0.1300688E+03  0.7546771E-02  0.1227354E+00
         -5   -1    0    0    0  501 -0.00000000000E+00  0.00000000000E+00  0.60155758917E+03  0.60157594956E+03  0.47000000000E+01 0.  1.
          5   -1    0    0  501    0  0.00000000000E+00 -0.00000000000E+00 -0.28103449876E+02  0.28493751858E+02  0.47000000000E+01 0.  1.
         25    2    1    2    0    0 -0.15637530234E+02 -0.32377037994E+02  0.31280995347E+03  0.33877420510E+03  0.12500036044E+03 0.  0.
         25    2    1    2    0    0  0.15637530234E+02  0.32377037994E+02  0.26064418582E+03  0.29129549632E+03  0.12499947852E+03 0.  0.
          5    1    4    4  502    0  0.60404243377E+02 -0.16906845968E+02  0.13817609315E+03  0.15181975095E+03  0.47000000000E+01 0. -1.
         -5    1    4    4    0  502 -0.44766713143E+02  0.49283883962E+02  0.12246809267E+03  0.13947574537E+03  0.47000000000E+01 0. -1.
          5    1    3    3  503    0  0.76666094946E+01 -0.33570230083E+01 -0.99594014387E+01  0.13832070765E+02  0.47000000000E+01 0. -1.
         -5    1    3    3    0  503 -0.23304139729E+02 -0.29020014986E+02  0.32276935491E+03  0.32494213433E+03  0.47000000000E+01 0. -1.
<mgrwt>
<rscale>  0 0.13006860E+03</rscale>
<asrwt>0</asrwt>
<pdfrwt beam="2">  1        5 0.43550434E-02 0.13006881E+03</pdfrwt>
<pdfrwt beam="1">  1       -5 0.92578753E-01 0.13006881E+03</pdfrwt>
<totfact> 0.22260391E+02</totfact>
</mgrwt>
</event>
<event>
 8    1  0.1865596E-007  0.1467162E+03  0.7546771E-02  0.1204568E+00
         -5   -1    0    0    0  501 -0.00000000000E+00  0.00000000000E+00  0.42332863054E+03  0.42335472058E+03  0.47000000000E+01 0. -1.
          5   -1    0    0  501    0  0.00000000000E+00 -0.00000000000E+00 -0.53691758088E+02  0.53897076791E+02  0.47000000000E+01 0. -1.
         25    2    1    2    0    0  0.71672803267E+02 -0.27597891271E+02  0.24092101971E+03  0.28207903784E+03  0.12500804582E+03 0.  0.
         25    2    1    2    0    0 -0.71672803267E+02  0.27597891271E+02  0.12871585274E+03  0.19517275953E+03  0.12500400387E+03 0.  0.
          5    1    3    3  502    0  0.67608267351E+02  0.33538967090E+02  0.18139149637E+03  0.19652151303E+03  0.47000000000E+01 0. -1.
         -5    1    3    3    0  502  0.40645359164E+01 -0.61136858362E+02  0.59529523338E+02  0.85557524809E+02  0.47000000000E+01 0. -1.
          5    1    4    4  503    0 -0.20619685293E+02  0.38689507198E+02 -0.11414901445E+02  0.45546013699E+02  0.47000000000E+01 0.  1.
         -5    1    4    4    0  503 -0.51053117975E+02 -0.11091615927E+02  0.14013075419E+03  0.14962674583E+03  0.47000000000E+01 0.  1.
<mgrwt>
<rscale>  0 0.14671535E+03</rscale>
<asrwt>0</asrwt>
<pdfrwt beam="2">  1        5 0.82780714E-02 0.14671621E+03</pdfrwt>
<pdfrwt beam="1">  1       -5 0.65145280E-01 0.14671621E+03</pdfrwt>
<totfact> 0.17667891E+02</totfact>
</mgrwt>
</event>
<event>
 8    1  0.1865596E-007  0.1649297E+03  0.7546771E-02  0.1183244E+00
          5   -1    0    0  501    0  0.00000000000E+00  0.00000000000E+00  0.39505513458E+03  0.39508309172E+03  0.47000000000E+01 0.  1.
         -5   -1    0    0    0  501 -0.00000000000E+00 -0.00000000000E+00 -0.10478810625E+03  0.10489345648E+03  0.47000000000E+01 0.  1.
         25    2    1    2    0    0 -0.34521319222E+01 -0.10753319909E+03 -0.13786586770E+01  0.16492577294E+03  0.12499321485E+03 0.  0.
         25    2    1    2    0    0  0.34521319222E+01  0.10753319909E+03  0.29164568701E+03  0.33505077526E+03  0.12500603637E+03 0.  0.
          5    1    3    3  502    0 -0.15353616225E+02 -0.37317715926E+02  0.58868102730E+02  0.71525442831E+02  0.47000000000E+01 0.  1.
         -5    1    3    3    0  502  0.11901484303E+02 -0.70215483160E+02 -0.60246761407E+02  0.93400330107E+02  0.47000000000E+01 0.  1.
          5    1    4    4  503    0 -0.57992023742E+02  0.42361103757E+02  0.16344876590E+03  0.17859206870E+03  0.47000000000E+01 0.  1.
         -5    1    4    4    0  503  0.61444155664E+02  0.65172095329E+02  0.12819692111E+03  0.15645870656E+03  0.47000000000E+01 0.  1.
<mgrwt>
<rscale>  0 0.16492730E+03</rscale>
<asrwt>0</asrwt>
<pdfrwt beam="1">  1        5 0.60787968E-01 0.16492973E+03</pdfrwt>
<pdfrwt beam="2">  1       -5 0.16131502E-01 0.16492973E+03</pdfrwt>
<totfact> 0.65471540E+01</totfact>
</mgrwt>
</event>
<event>
 8    1  0.1865596E-007  0.1297581E+03  0.7546771E-02  0.1227820E+00
         -5   -1    0    0    0  501 -0.00000000000E+00  0.00000000000E+00  0.34857593784E+03  0.34860762247E+03  0.47000000000E+01 0. -1.
          5   -1    0    0  501    0  0.00000000000E+00 -0.00000000000E+00 -0.74822181332E+02  0.74969652655E+02  0.47000000000E+01 0. -1.
         25    2    1    2    0    0  0.73690191662E+01 -0.34030643061E+02  0.26314578798E+03  0.29339882241E+03  0.12499910459E+03 0.  0.
         25    2    1    2    0    0 -0.73690191662E+01  0.34030643061E+02  0.10607968533E+02  0.13017845272E+03  0.12498605300E+03 0.  0.
          5    1    3    3  502    0 -0.22070952425E+02 -0.30955120205E+02  0.11530538692E+02  0.40004871333E+02  0.47000000000E+01 0.  1.
         -5    1    3    3    0  502  0.29439971591E+02 -0.30755228558E+01  0.25161524928E+03  0.25339395107E+03  0.47000000000E+01 0.  1.
          5    1    4    4  503    0 -0.29698662046E+02  0.19114996597E+01 -0.49712871273E+02  0.58130232482E+02  0.47000000000E+01 0. -1.
         -5    1    4    4    0  503  0.22329642879E+02  0.32119143401E+02  0.60320839806E+02  0.72048220234E+02  0.47000000000E+01 0. -1.
<mgrwt>
<rscale>  0 0.12975495E+03</rscale>
<asrwt>0</asrwt>
<pdfrwt beam="2">  1        5 0.11524886E-01 0.12975810E+03</pdfrwt>
<pdfrwt beam="1">  1       -5 0.53640849E-01 0.12975810E+03</pdfrwt>
<totfact> 0.14564741E+02</totfact>
</mgrwt>
</event>
<event>
 8    1  0.1865596E-007  0.1305565E+03  0.7546771E-02  0.1226634E+00
          5   -1    0    0  501    0  0.00000000000E+00  0.00000000000E+00  0.72052105384E+03  0.72053638286E+03  0.47000000000E+01 0.  1.
         -5   -1    0    0    0  501 -0.00000000000E+00 -0.00000000000E+00 -0.23673090445E+02  0.24135144732E+02  0.47000000000E+01 0.  1.
         25    2    1    2    0    0  0.15115258209E+02  0.34516307298E+02  0.30931389966E+03  0.33573674381E+03  0.12499690445E+03 0.  0.
         25    2    1    2    0    0 -0.15115258209E+02 -0.34516307298E+02  0.38753406373E+03  0.40893478378E+03  0.12500064132E+03 0.  0.
          5    1    4    4  502    0 -0.15921454216E+02  0.46235417835E+02  0.16481341309E+03  0.17197894552E+03  0.47000000000E+01 0. -1.
         -5    1    4    4    0  502  0.80619600698E+00 -0.80751725133E+02  0.22272065064E+03  0.23695583826E+03  0.47000000000E+01 0. -1.
          5    1    3    3  503    0  0.42429021203E+02  0.43994912536E+02  0.63785259657E+02  0.88467075903E+02  0.47000000000E+01 0.  1.
         -5    1    3    3    0  503 -0.27313762994E+02 -0.94786052380E+01  0.24552864000E+03  0.24726966791E+03  0.47000000000E+01 0.  1.
<mgrwt>
<rscale>  0 0.13055563E+03</rscale>
<asrwt>0</asrwt>
<pdfrwt beam="1">  1        5 0.11088612E+00 0.13055653E+03</pdfrwt>
<pdfrwt beam="2">  1       -5 0.36787357E-02 0.13055653E+03</pdfrwt>
<totfact> 0.18925592E+02</totfact>
</mgrwt>
</event>
<event>
 8    1  0.1865596E-007  0.1970803E+03  0.7546771E-02  0.1152229E+00
          5   -1    0    0  501    0  0.00000000000E+00  0.00000000000E+00  0.24814323515E+03  0.24818774174E+03  0.47000000000E+01 0.  1.
         -5   -1    0    0    0  501 -0.00000000000E+00 -0.00000000000E+00 -0.18690087154E+03  0.18695995770E+03  0.47000000000E+01 0.  1.
         25    2    1    2    0    0  0.25882817699E+02 -0.15013584164E+03 -0.57216663033E+02  0.20520601264E+03  0.12500027959E+03 0.  0.
         25    2    1    2    0    0 -0.25882817699E+02  0.15013584164E+03  0.11845902664E+03  0.22994168681E+03  0.12501978700E+03 0.  0.
          5    1    3    3  502    0  0.26878983914E+02 -0.58239658888E+02 -0.87263032024E+02  0.10840324904E+03  0.47000000000E+01 0. -1.
         -5    1    3    3    0  502 -0.99616621537E+00 -0.91896182753E+02  0.30046368991E+02  0.96802763603E+02  0.47000000000E+01 0. -1.
          5    1    4    4  503    0 -0.46395639684E+02  0.16005035458E+03  0.79794974789E+02  0.18481882854E+03  0.47000000000E+01 0.  1.
         -5    1    4    4    0  503  0.20512821985E+02 -0.99145129360E+01  0.38664051850E+02  0.45122858265E+02  0.47000000000E+01 0.  1.
<mgrwt>
<rscale>  0 0.19707719E+03</rscale>
<asrwt>0</asrwt>
<pdfrwt beam="1">  1        5 0.38183851E-01 0.19708028E+03</pdfrwt>
<pdfrwt beam="2">  1       -5 0.28761949E-01 0.19708028E+03</pdfrwt>
<totfact> 0.61701511E+01</totfact>
</mgrwt>
</event>
<event>
 8    1  0.1865596E-007  0.1397556E+03  0.7546771E-02  0.1213658E+00
         -5   -1    0    0    0  501 -0.00000000000E+00  0.00000000000E+00  0.64057533623E+02  0.64229725313E+02  0.47000000000E+01 0.  1.
          5   -1    0    0  501    0  0.00000000000E+00 -0.00000000000E+00 -0.30431345971E+03  0.30434975236E+03  0.47000000000E+01 0.  1.
         25    2    1    2    0    0  0.34459581709E+02  0.52157292586E+02 -0.11928444766E+03  0.18374005092E+03  0.12499512357E+03 0.  0.
         25    2    1    2    0    0 -0.34459581709E+02 -0.52157292586E+02 -0.12097147843E+03  0.18483942675E+03  0.12499467648E+03 0.  0.
          5    1    4    4  502    0 -0.64882547615E+02 -0.70882917206E+02 -0.58147379193E+02  0.11241592700E+03  0.47000000000E+01 0. -1.
         -5    1    4    4    0  502  0.30422965906E+02  0.18725624620E+02 -0.62824099233E+02  0.72423499753E+02  0.47000000000E+01 0. -1.
          5    1    3    3  503    0  0.96461002312E+01  0.73825170178E+00 -0.12564250678E+03  0.12610202923E+03  0.47000000000E+01 0. -1.
         -5    1    3    3    0  503  0.24813481478E+02  0.51419040884E+02  0.63580591198E+01  0.57638021689E+02  0.47000000000E+01 0. -1.
<mgrwt>
<rscale>  0 0.13975550E+03</rscale>
<asrwt>0</asrwt>
<pdfrwt beam="2">  1        5 0.46833492E-01 0.13975560E+03</pdfrwt>
<pdfrwt beam="1">  1       -5 0.98710426E-02 0.13975560E+03</pdfrwt>
<totfact> 0.26132893E+02</totfact>
</mgrwt>
</event>
<event>
 8    1  0.1865596E-007  0.1311273E+03  0.7546771E-02  0.1225794E+00
          5   -1    0    0  501    0  0.00000000000E+00  0.00000000000E+00  0.58302724767E+03  0.58304619158E+03  0.47000000000E+01 0. -1.
         -5   -1    0    0    0  501 -0.00000000000E+00 -0.00000000000E+00 -0.46317488230E+02  0.46555340359E+02  0.47000000000E+01 0. -1.
         25    2    1    2    0    0  0.22433639112E+02 -0.32648208642E+02  0.78112508611E+02  0.15262583795E+03  0.12499563479E+03 0.  0.
         25    2    1    2    0    0 -0.22433639112E+02  0.32648208642E+02  0.45859725082E+03  0.47697569399E+03  0.12500080202E+03 0.  0.
          5    1    4    4  502    0  0.24404185985E+02  0.67681900546E+02  0.26997065782E+03  0.27943272900E+03  0.47000000000E+01 0.  1.
         -5    1    4    4    0  502 -0.46837825097E+02 -0.35033691904E+02  0.18862659301E+03  0.19754296499E+03  0.47000000000E+01 0.  1.
          5    1    3    3  503    0  0.25162966274E+02  0.70037942485E+01 -0.28383261539E+02  0.38857786108E+02  0.47000000000E+01 0. -1.
         -5    1    3    3    0  503 -0.27293271624E+01 -0.39652002891E+02  0.10649577015E+03  0.11376805184E+03  0.47000000000E+01 0. -1.
<mgrwt>
<rscale>  0 0.13112609E+03</rscale>
<asrwt>0</asrwt>
<pdfrwt beam="1">  1        5 0.89716253E-01 0.13112732E+03</pdfrwt>
<pdfrwt beam="2">  1       -5 0.71455210E-02 0.13112732E+03</pdfrwt>
<totfact> 0.10512805E+02</totfact>
</mgrwt>
</event>
<event>
 8    1  0.1865596E-007  0.1747524E+03  0.7546771E-02  0.1172981E+00
         -5   -1    0    0    0  501 -0.00000000000E+00  0.00000000000E+00  0.18388743940E+02  0.18979881551E+02  0.47000000000E+01 0. -1.
          5   -1    0    0  501    0  0.00000000000E+00 -0.00000000000E+00 -0.16361318237E+04  0.16361385743E+04  0.47000000000E+01 0. -1.
         25    2    1    2    0    0  0.74253923261E+02  0.96941291995E+02 -0.77783383735E+03  0.79722260379E+03  0.12500856874E+03 0.  0.
         25    2    1    2    0    0 -0.74253923261E+02 -0.96941291995E+02 -0.83990924240E+03  0.85789585211E+03  0.12500599341E+03 0.  0.
          5    1    3    3  502    0  0.33392797581E+02  0.52960116957E+02 -0.67605708899E+03  0.67896622191E+03  0.47000000000E+01 0.  1.
         -5    1    3    3    0  502  0.40861125680E+02  0.43981175038E+02 -0.10177674835E+03  0.11825638188E+03  0.47000000000E+01 0.  1.
          5    1    4    4  503    0 -0.79128662949E+02 -0.48327427642E+02 -0.74765556673E+03  0.75339751926E+03  0.47000000000E+01 0. -1.
         -5    1    4    4    0  503  0.48747396879E+01 -0.48613864353E+02 -0.92253675666E+02  0.10449833285E+03  0.47000000000E+01 0. -1.
<mgrwt>
<rscale>  0 0.17475194E+03</rscale>
<asrwt>0</asrwt>
<pdfrwt beam="2">  1        5 0.25175847E+00 0.17475240E+03</pdfrwt>
<pdfrwt beam="1">  1       -5 0.28750302E-02 0.17475240E+03</pdfrwt>
<totfact> 0.27776192E+01</totfact>
</mgrwt>
</event>
<event>
 8    1  0.1865596E-007  0.1372225E+03  0.7546771E-02  0.1217128E+00
          5   -1    0    0  501    0  0.00000000000E+00  0.00000000000E+00  0.60335539530E+03  0.60337370098E+03  0.47000000000E+01 0.  1.
         -5   -1    0    0    0  501 -0.00000000000E+00 -0.00000000000E+00 -0.31144050242E+02  0.31496696104E+02  0.47000000000E+01 0.  1.
         25    2    1    2    0    0  0.39334455851E+02 -0.40622093842E+02  0.26497508344E+03  0.29838244931E+03  0.12499174888E+03 0.  0.
         25    2    1    2    0    0 -0.39334455851E+02  0.40622093842E+02  0.30723626162E+03  0.33648794777E+03  0.12503065471E+03 0.  0.
          5    1    3    3  502    0 -0.44710242998E+02 -0.12121026780E+02  0.11477870051E+03  0.12386349426E+03  0.47000000000E+01 0. -1.
         -5    1    3    3    0  502  0.84044698849E+02 -0.28501067062E+02  0.15019638292E+03  0.17451895505E+03  0.47000000000E+01 0. -1.
          5    1    4    4  503    0 -0.43459783379E+02  0.79784301479E+02  0.16053437999E+03  0.18452009293E+03  0.47000000000E+01 0. -1.
         -5    1    4    4    0  503  0.41253275278E+01 -0.39162207637E+02  0.14670188163E+03  0.15196785485E+03  0.47000000000E+01 0. -1.
<mgrwt>
<rscale>  0 0.13721365E+03</rscale>
<asrwt>0</asrwt>
<pdfrwt beam="1">  1        5 0.92852441E-01 0.13722251E+03</pdfrwt>
<pdfrwt beam="2">  1       -5 0.48199271E-02 0.13722251E+03</pdfrwt>
<totfact> 0.19036999E+02</totfact>
</mgrwt>
</event>
<event>
 8    1  0.1865596E-007  0.1599349E+03  0.7546771E-02  0.1188778E+00
          5   -1    0    0  501    0  0.00000000000E+00  0.00000000000E+00  0.10894654498E+03  0.10904787785E+03  0.47000000000E+01 0. -1.
         -5   -1    0    0    0  501 -0.00000000000E+00 -0.00000000000E+00 -0.24096795348E+03  0.24101378510E+03  0.47000000000E+01 0. -1.
         25    2    1    2    0    0  0.48491757786E+02  0.87168975086E+02 -0.94654323580E+02  0.18584562759E+03  0.12501710095E+03 0.  0.
         25    2    1    2    0    0 -0.48491757786E+02 -0.87168975086E+02 -0.37367084919E+02  0.16421603536E+03  0.12498290460E+03 0.  0.
          5    1    4    4  502    0 -0.70398692595E+02 -0.71283291732E+02 -0.69440908178E+02  0.12198939842E+03  0.47000000000E+01 0. -1.
         -5    1    4    4    0  502  0.21906934809E+02 -0.15885683355E+02  0.32073823259E+02  0.42226636935E+02  0.47000000000E+01 0. -1.
          5    1    3    3  503    0  0.21162402045E+01 -0.15234427877E+01 -0.85018162976E+02  0.85187894600E+02  0.47000000000E+01 0. -1.
         -5    1    3    3    0  503  0.46375517581E+02  0.88692417874E+02 -0.96361606038E+01  0.10065773299E+03  0.47000000000E+01 0. -1.
<mgrwt>
<rscale>  0 0.15992817E+03</rscale>
<asrwt>0</asrwt>
<pdfrwt beam="1">  1        5 0.16772327E-01 0.15993485E+03</pdfrwt>
<pdfrwt beam="2">  1       -5 0.37083313E-01 0.15993485E+03</pdfrwt>
<totfact> 0.17139814E+02</totfact>
</mgrwt>
</event>
<event>
 8    1  0.1865596E-007  0.1707738E+03  0.7546771E-02  0.1177046E+00
          5   -1    0    0  501    0  0.00000000000E+00  0.00000000000E+00  0.76326733330E+02  0.76471303250E+02  0.47000000000E+01 0. -1.
         -5   -1    0    0    0  501 -0.00000000000E+00 -0.00000000000E+00 -0.38280631159E+03  0.38283516321E+03  0.47000000000E+01 0. -1.
         25    2    1    2    0    0  0.10111069368E+03  0.57576700385E+02 -0.16639759748E+03  0.23842943827E+03  0.12498795056E+03 0.  0.
         25    2    1    2    0    0 -0.10111069368E+03 -0.57576700385E+02 -0.14008198078E+03  0.22087702819E+03  0.12500100576E+03 0.  0.
          5    1    4    4  502    0 -0.85780430755E+02 -0.23912796548E+02 -0.15650907192E+03  0.18013129582E+03  0.47000000000E+01 0.  1.
         -5    1    4    4    0  502 -0.15330262924E+02 -0.33663903837E+02  0.16427091146E+02  0.40745732370E+02  0.47000000000E+01 0.  1.
          5    1    3    3  503    0  0.12230452740E+03  0.19212114384E+02 -0.14042305592E+03  0.18726512595E+03  0.47000000000E+01 0.  1.
         -5    1    3    3    0  503 -0.21193833719E+02  0.38364586001E+02 -0.25974541561E+02  0.51164312328E+02  0.47000000000E+01 0.  1.
<mgrwt>
<rscale>  0 0.17077144E+03</rscale>
<asrwt>0</asrwt>
<pdfrwt beam="1">  1        5 0.11755915E-01 0.17077383E+03</pdfrwt>
<pdfrwt beam="2">  1       -5 0.58906618E-01 0.17077383E+03</pdfrwt>
<totfact> 0.12533455E+02</totfact>
</mgrwt>
</event>
<event>
 8    1  0.1865596E-007  0.1312207E+03  0.7546771E-02  0.1225657E+00
         -5   -1    0    0    0  501 -0.00000000000E+00  0.00000000000E+00  0.11165563547E+03  0.11175451191E+03  0.47000000000E+01 0.  1.
          5   -1    0    0  501    0  0.00000000000E+00 -0.00000000000E+00 -0.24329377234E+03  0.24333916590E+03  0.47000000000E+01 0.  1.
         25    2    1    2    0    0  0.21032208046E+02  0.33909756872E+02  0.41703350226E+02  0.13768591840E+03  0.12500406921E+03 0.  0.
         25    2    1    2    0    0 -0.21032208046E+02 -0.33909756872E+02 -0.17334148710E+03  0.21740775941E+03  0.12500654910E+03 0.  0.
          5    1    4    4  502    0 -0.56150870904E+02 -0.57161491258E+02 -0.14706544207E+03  0.16754310083E+03  0.47000000000E+01 0. -1.
         -5    1    4    4    0  502  0.35118662858E+02  0.23251734386E+02 -0.26276045032E+02  0.49864658581E+02  0.47000000000E+01 0. -1.
          5    1    3    3  503    0 -0.22374337369E+02  0.98000663898E+01  0.74133014215E+02  0.78194923560E+02  0.47000000000E+01 0. -1.
         -5    1    3    3    0  503  0.43406545416E+02  0.24109690482E+02 -0.32429663989E+02  0.59490994835E+02  0.47000000000E+01 0. -1.
<mgrwt>
<rscale>  0 0.13122007E+03</rscale>
<asrwt>0</asrwt>
<pdfrwt beam="2">  1        5 0.37440909E-01 0.13122066E+03</pdfrwt>
<pdfrwt beam="1">  1       -5 0.17188888E-01 0.13122066E+03</pdfrwt>
<totfact> 0.15058400E+02</totfact>
</mgrwt>
</event>
<event>
 8    1  0.1865596E-007  0.1434198E+03  0.7546771E-02  0.1208801E+00
         -5   -1    0    0    0  501 -0.00000000000E+00  0.00000000000E+00  0.63187882548E+02  0.63362437618E+02  0.47000000000E+01 0.  1.
          5   -1    0    0  501    0  0.00000000000E+00 -0.00000000000E+00 -0.33041857284E+03  0.33045199845E+03  0.47000000000E+01 0.  1.
         25    2    1    2    0    0  0.67480431584E+02  0.19759946857E+02 -0.15911106514E+03  0.21420628999E+03  0.12499575783E+03 0.  0.
         25    2    1    2    0    0 -0.67480431584E+02 -0.19759946857E+02 -0.10811962516E+03  0.17960814608E+03  0.12500067458E+03 0.  0.
          5    1    4    4  502    0 -0.36161086838E+02  0.30048924975E+02  0.93279875035E+01  0.48162884510E+02  0.47000000000E+01 0.  1.
         -5    1    4    4    0  502 -0.31319344746E+02 -0.49808871832E+02 -0.11744761266E+03  0.13144526156E+03  0.47000000000E+01 0.  1.
          5    1    3    3  503    0  0.85752841234E+02  0.18094172601E+02 -0.45182871801E+02  0.98714389863E+02  0.47000000000E+01 0.  1.
         -5    1    3    3    0  503 -0.18272409650E+02  0.16657742559E+01 -0.11392819334E+03  0.11549190013E+03  0.47000000000E+01 0.  1.
<mgrwt>
<rscale>  0 0.14341871E+03</rscale>
<asrwt>0</asrwt>
<pdfrwt beam="2">  1        5 0.50849624E-01 0.14341978E+03</pdfrwt>
<pdfrwt beam="1">  1       -5 0.97372114E-02 0.14341978E+03</pdfrwt>
<totfact> 0.22689651E+02</totfact>
</mgrwt>
</event>
<event>
 8    1  0.1865596E-007  0.1894752E+03  0.7546771E-02  0.1158936E+00
          5   -1    0    0  501    0  0.00000000000E+00  0.00000000000E+00  0.18335416597E+03  0.18341439469E+03  0.47000000000E+01 0. -1.
         -5   -1    0    0    0  501 -0.00000000000E+00 -0.00000000000E+00 -0.20119302020E+03  0.20124791024E+03  0.47000000000E+01 0. -1.
         25    2    1    2    0    0  0.11654496625E+03  0.81809090596E+02 -0.40753612261E+02  0.19380654401E+03  0.12499865250E+03 0.  0.
         25    2    1    2    0    0 -0.11654496625E+03 -0.81809090596E+02  0.22914758038E+02  0.19085576092E+03  0.12500151551E+03 0.  0.
          5    1    3    3  502    0  0.61118504535E+02 -0.26748676471E+02 -0.21922368454E+02  0.70382125061E+02  0.47000000000E+01 0.  1.
         -5    1    3    3    0  502  0.55426461713E+02  0.10855776707E+03 -0.18831243807E+02  0.12342441894E+03  0.47000000000E+01 0.  1.
          5    1    4    4  503    0 -0.13200196707E+03 -0.30384806000E+02  0.14682175054E+02  0.13632832431E+03  0.47000000000E+01 0. -1.
         -5    1    4    4    0  503  0.15457000823E+02 -0.51424284595E+02  0.82325829835E+01  0.54527436609E+02  0.47000000000E+01 0. -1.
<mgrwt>
<rscale>  0 0.18947469E+03</rscale>
<asrwt>0</asrwt>
<pdfrwt beam="1">  1        5 0.28217188E-01 0.18947516E+03</pdfrwt>
<pdfrwt beam="2">  1       -5 0.30961628E-01 0.18947516E+03</pdfrwt>
<totfact> 0.96630825E+01</totfact>
</mgrwt>
</event>
<event>
 8    1  0.1865596E-007  0.1790560E+03  0.7546771E-02  0.1168721E+00
         -5   -1    0    0    0  501 -0.00000000000E+00  0.00000000000E+00  0.14911638308E+03  0.14919043435E+03  0.47000000000E+01 0. -1.
          5   -1    0    0  501    0  0.00000000000E+00 -0.00000000000E+00 -0.24397680450E+03  0.24402207100E+03  0.47000000000E+01 0. -1.
         25    2    1    2    0    0 -0.12723125141E+03 -0.15757195401E+02  0.20483777845E+02  0.18022380445E+03  0.12499981598E+03 0.  0.
         25    2    1    2    0    0  0.12723125141E+03  0.15757195401E+02 -0.11534419927E+03  0.21298870090E+03  0.12499528737E+03 0.  0.
          5    1    3    3  502    0 -0.14359688708E+02 -0.41449218583E+02  0.43666260234E+02  0.62073107412E+02  0.47000000000E+01 0.  1.
         -5    1    3    3    0  502 -0.11287156270E+03  0.25692023182E+02 -0.23182482389E+02  0.11815069704E+03  0.47000000000E+01 0.  1.
          5    1    4    4  503    0  0.68883884117E+02 -0.43477573899E+01  0.13100031774E+02  0.70410179079E+02  0.47000000000E+01 0. -1.
         -5    1    4    4    0  503  0.58347367293E+02  0.20104952791E+02 -0.12844423104E+03  0.14257852182E+03  0.47000000000E+01 0. -1.
<mgrwt>
<rscale>  0 0.17905516E+03</rscale>
<asrwt>0</asrwt>
<pdfrwt beam="2">  1        5 0.37544071E-01 0.17905595E+03</pdfrwt>
<pdfrwt beam="1">  1       -5 0.22950160E-01 0.17905595E+03</pdfrwt>
<totfact> 0.96189752E+01</totfact>
</mgrwt>
</event>
<event>
 8    1  0.1865596E-007  0.1506876E+03  0.7546771E-02  0.1199633E+00
          5   -1    0    0  501    0  0.00000000000E+00  0.00000000000E+00  0.67541921130E+03  0.67543556391E+03  0.47000000000E+01 0.  1.
         -5   -1    0    0    0  501 -0.00000000000E+00 -0.00000000000E+00 -0.34446255467E+02  0.34765421265E+02  0.47000000000E+01 0.  1.
         25    2    1    2    0    0  0.22226096003E+02 -0.81164894833E+02  0.25997007066E+03  0.30048492670E+03  0.12500005616E+03 0.  0.
         25    2    1    2    0    0 -0.22226096003E+02  0.81164894833E+02  0.38100288517E+03  0.40971605847E+03  0.12498924179E+03 0.  0.
          5    1    4    4  502    0 -0.45617124395E+02  0.40536742547E+02  0.34508521748E+03  0.35047117836E+03  0.47000000000E+01 0. -1.
         -5    1    4    4    0  502  0.23391028392E+02  0.40628152287E+02  0.35917667692E+02  0.59244880116E+02  0.47000000000E+01 0. -1.
          5    1    3    3  503    0 -0.51459027698E+02 -0.31311745897E+02  0.12385806239E+03  0.13780916727E+03  0.47000000000E+01 0.  1.
         -5    1    3    3    0  503  0.73685123701E+02 -0.49853148937E+02  0.13611200827E+03  0.16267575944E+03  0.47000000000E+01 0.  1.
<mgrwt>
<rscale>  0 0.15068536E+03</rscale>
<asrwt>0</asrwt>
<pdfrwt beam="1">  1        5 0.10393645E+00 0.15068760E+03</pdfrwt>
<pdfrwt beam="2">  1       -5 0.53252332E-02 0.15068760E+03</pdfrwt>
<totfact> 0.12642633E+02</totfact>
</mgrwt>
</event>
<event>
 8    1  0.1865596E-007  0.1608789E+03  0.7546771E-02  0.1187709E+00
          5   -1    0    0  501    0  0.00000000000E+00  0.00000000000E+00  0.11619968536E+02  0.12534499144E+02  0.47000000000E+01 0. -1.
         -5   -1    0    0    0  501 -0.00000000000E+00 -0.00000000000E+00 -0.21482710744E+04  0.21482762157E+04  0.47000000000E+01 0. -1.
         25    2    1    2    0    0  0.18970473173E+02 -0.99481714680E+02 -0.11262966840E+04  0.11377285380E+04  0.12500206222E+03 0.  0.
         25    2    1    2    0    0 -0.18970473173E+02  0.99481714680E+02 -0.10103544219E+04  0.10230821768E+04  0.12499836921E+03 0.  0.
          5    1    3    3  502    0  0.10047248496E+02 -0.11851377636E+03 -0.64126201936E+03  0.65221586140E+03  0.47000000000E+01 0.  1.
         -5    1    3    3    0  502  0.89232246767E+01  0.19032061683E+02 -0.48503466461E+03  0.48551267664E+03  0.47000000000E+01 0.  1.
          5    1    4    4  503    0  0.16276677756E+02  0.39222407215E+02 -0.80503852718E+03  0.80617147538E+03  0.47000000000E+01 0. -1.
         -5    1    4    4    0  503 -0.35247150929E+02  0.60259307466E+02 -0.20531589473E+03  0.21691070147E+03  0.47000000000E+01 0. -1.
<mgrwt>
<rscale>  0 0.16087814E+03</rscale>
<asrwt>0</asrwt>
<pdfrwt beam="1">  1        5 0.18584332E-02 0.16087885E+03</pdfrwt>
<pdfrwt beam="2">  1       -5 0.33057368E+00 0.16087885E+03</pdfrwt>
<totfact> 0.17241243E+01</totfact>
</mgrwt>
</event>
<event>
 8    1  0.1865596E-007  0.1272306E+03  0.7546771E-02  0.1231627E+00
         -5   -1    0    0    0  501 -0.00000000000E+00  0.00000000000E+00  0.55559101755E+03  0.55561089693E+03  0.47000000000E+01 0. -1.
          5   -1    0    0  501    0  0.00000000000E+00 -0.00000000000E+00 -0.48854826329E+02  0.49080383613E+02  0.47000000000E+01 0. -1.
         25    2    1    2    0    0 -0.22356454065E+02 -0.79020525250E+01  0.44585483748E+03  0.46365304869E+03  0.12500143993E+03 0.  0.
         25    2    1    2    0    0  0.22356454065E+02  0.79020525250E+01  0.60881353750E+02  0.14103823186E+03  0.12499196029E+03 0.  0.
          5    1    4    4  502    0  0.59760853878E+02 -0.33651062730E+02  0.19924893552E+02  0.71574052995E+02  0.47000000000E+01 0. -1.
         -5    1    4    4    0  502 -0.37404399813E+02  0.41553115255E+02  0.40956460198E+02  0.69464178860E+02  0.47000000000E+01 0. -1.
          5    1    3    3  503    0  0.30040113706E+02  0.39780730530E+02  0.11774100319E+03  0.12794510067E+03  0.47000000000E+01 0. -1.
         -5    1    3    3    0  503 -0.52396567771E+02 -0.47682783055E+02  0.32811383428E+03  0.33570794802E+03  0.47000000000E+01 0. -1.
<mgrwt>
<rscale>  0 0.12722822E+03</rscale>
<asrwt>0</asrwt>
<pdfrwt beam="2">  1        5 0.75350065E-02 0.12723055E+03</pdfrwt>
<pdfrwt beam="1">  1       -5 0.85494425E-01 0.12723055E+03</pdfrwt>
<totfact> 0.10648787E+02</totfact>
</mgrwt>
</event>
<event>
 8    1  0.1865596E-007  0.1257339E+03  0.7546771E-02  0.1233928E+00
         -5   -1    0    0    0  501 -0.00000000000E+00  0.00000000000E+00  0.22068832530E+03  0.22073836758E+03  0.47000000000E+01 0. -1.
          5   -1    0    0  501    0  0.00000000000E+00 -0.00000000000E+00 -0.73845650808E+02  0.73995068371E+02  0.47000000000E+01 0. -1.
         25    2    1    2    0    0 -0.12985711077E+02  0.37727818794E+01  0.99657207834E+02  0.16043722269E+03  0.12500272307E+03 0.  0.
         25    2    1    2    0    0  0.12985711077E+02 -0.37727818794E+01  0.47185466657E+02  0.13429621326E+03  0.12500456815E+03 0.  0.
          5    1    3    3  502    0 -0.58875100786E+02 -0.81534993731E+01  0.12221409934E+02  0.60862220674E+02  0.47000000000E+01 0. -1.
         -5    1    3    3    0  502  0.45889389708E+02  0.11926281253E+02  0.87435797899E+02  0.99575002017E+02  0.47000000000E+01 0. -1.
          5    1    4    4  503    0  0.63825541735E+02  0.10269276858E+02  0.22643608769E+01  0.64856573724E+02  0.47000000000E+01 0.  1.
         -5    1    4    4    0  503 -0.50839830658E+02 -0.14042058738E+02  0.44921105780E+02  0.69439639540E+02  0.47000000000E+01 0.  1.
<mgrwt>
<rscale>  0 0.12573341E+03</rscale>
<asrwt>0</asrwt>
<pdfrwt beam="2">  1        5 0.11376213E-01 0.12573386E+03</pdfrwt>
<pdfrwt beam="1">  1       -5 0.33967393E-01 0.12573386E+03</pdfrwt>
<totfact> 0.37840476E+02</totfact>
</mgrwt>
</event>
<event>
 8    1  0.1865596E-007  0.1274284E+03  0.7546771E-02  0.1231324E+00
         -5   -1    0    0    0  501 -0.00000000000E+00  0.00000000000E+00  0.24703087444E+03  0.24707558141E+03  0.47000000000E+01 0. -1.
          5   -1    0    0  501    0  0.00000000000E+00 -0.00000000000E+00 -0.79587304343E+02  0.79725961973E+02  0.47000000000E+01 0. -1.
         25    2    1    2    0    0  0.22447905903E+02  0.10367996165E+02  0.15214801839E+03  0.19845840516E+03  0.12500126101E+03 0.  0.
         25    2    1    2    0    0 -0.22447905903E+02 -0.10367996165E+02  0.15295551712E+02  0.12834313822E+03  0.12500641345E+03 0.  0.
          5    1    3    3  502    0  0.35775736508E+02  0.19126281019E+02  0.16954506640E+03  0.17439420142E+03  0.47000000000E+01 0.  1.
         -5    1    3    3    0  502 -0.13327830606E+02 -0.87582848535E+01 -0.17397048010E+02  0.24064203741E+02  0.47000000000E+01 0.  1.
          5    1    4    4  503    0 -0.51581434066E+02  0.41772943515E+02  0.15953647871E+02  0.68426837064E+02  0.47000000000E+01 0.  1.
         -5    1    4    4    0  503  0.29133528163E+02 -0.52140939680E+02 -0.65809615947E+00  0.59916301159E+02  0.47000000000E+01 0.  1.
<mgrwt>
<rscale>  0 0.12742718E+03</rscale>
<asrwt>0</asrwt>
<pdfrwt beam="2">  1        5 0.12258306E-01 0.12742844E+03</pdfrwt>
<pdfrwt beam="1">  1       -5 0.38018854E-01 0.12742844E+03</pdfrwt>
<totfact> 0.26573488E+02</totfact>
</mgrwt>
</event>
<event>
 8    1  0.1865596E-007  0.1308048E+03  0.7546771E-02  0.1226267E+00
         -5   -1    0    0    0  501 -0.00000000000E+00  0.00000000000E+00  0.29067354040E+03  0.29071153587E+03  0.47000000000E+01 0.  1.
          5   -1    0    0  501    0  0.00000000000E+00 -0.00000000000E+00 -0.71209065505E+02  0.71364003601E+02  0.47000000000E+01 0.  1.
         25    2    1    2    0    0 -0.35805627622E+02  0.14238575156E+02  0.18541685817E+03  0.22691254487E+03  0.12500044694E+03 0.  0.
         25    2    1    2    0    0  0.35805627622E+02 -0.14238575156E+02  0.34047616721E+02  0.13516299460E+03  0.12500005965E+03 0.  0.
          5    1    4    4  502    0 -0.29526546074E+02  0.34073068442E+02 -0.36274755989E+01  0.45475702252E+02  0.47000000000E+01 0. -1.
         -5    1    4    4    0  502  0.65332173696E+02 -0.48311643598E+02  0.37675092320E+02  0.89687292345E+02  0.47000000000E+01 0. -1.
          5    1    3    3  503    0 -0.69523933590E+02 -0.86652346031E+00  0.17480722535E+03  0.18818603625E+03  0.47000000000E+01 0.  1.
         -5    1    3    3    0  503  0.33718305968E+02  0.15105098616E+02  0.10609632822E+02  0.38726508624E+02  0.47000000000E+01 0.  1.
<mgrwt>
<rscale>  0 0.13080469E+03</rscale>
<asrwt>0</asrwt>
<pdfrwt beam="2">  1        5 0.10970082E-01 0.13080478E+03</pdfrwt>
<pdfrwt beam="1">  1       -5 0.44733848E-01 0.13080478E+03</pdfrwt>
<totfact> 0.23371103E+02</totfact>
</mgrwt>
</event>
<event>
 8    1  0.1865596E-007  0.1325039E+03  0.7546771E-02  0.1223787E+00
          5   -1    0    0  501    0  0.00000000000E+00  0.00000000000E+00  0.29144222711E+03  0.29148012238E+03  0.47000000000E+01 0.  1.
         -5   -1    0    0    0  501 -0.00000000000E+00 -0.00000000000E+00 -0.81644262588E+02  0.81779432705E+02  0.47000000000E+01 0.  1.
         25    2    1    2    0    0 -0.28911510930E+02 -0.33102752487E+02  0.91648293434E+01  0.13282049526E+03  0.12500248869E+03 0.  0.
         25    2    1    2    0    0  0.28911510930E+02  0.33102752487E+02  0.20063313518E+03  0.24043905983E+03  0.12500247546E+03 0.  0.
          5    1    3    3  502    0  0.31226436403E+01  0.14600867147E+02  0.56247304880E+02  0.58384805651E+02  0.47000000000E+01 0. -1.
         -5    1    3    3    0  502 -0.32034154570E+02 -0.47703619635E+02 -0.47082475536E+02  0.74435689611E+02  0.47000000000E+01 0. -1.
          5    1    4    4  503    0  0.45761358311E+02 -0.27225376230E+02  0.15161721916E+03  0.16076440579E+03  0.47000000000E+01 0.  1.
         -5    1    4    4    0  503 -0.16849847381E+02  0.60328128717E+02  0.49015916024E+02  0.79674654031E+02  0.47000000000E+01 0.  1.
<mgrwt>
<rscale>  0 0.13250392E+03</rscale>
<asrwt>0</asrwt>
<pdfrwt beam="1">  1        5 0.44850578E-01 0.13250392E+03</pdfrwt>
<pdfrwt beam="2">  1       -5 0.12573969E-01 0.13250392E+03</pdfrwt>
<totfact> 0.18347021E+02</totfact>
</mgrwt>
</event>
<event>
 8    1  0.1865596E-007  0.1822542E+03  0.7546771E-02  0.1165640E+00
         -5   -1    0    0    0  501 -0.00000000000E+00  0.00000000000E+00  0.56116426169E+02  0.56312905146E+02  0.47000000000E+01 0.  1.
          5   -1    0    0  501    0  0.00000000000E+00 -0.00000000000E+00 -0.59310112412E+03  0.59311974628E+03  0.47000000000E+01 0.  1.
         25    2    1    2    0    0 -0.10194603003E+03  0.84841608198E+02 -0.28926742960E+03  0.34189334279E+03  0.12499728193E+03 0.  0.
         25    2    1    2    0    0  0.10194603003E+03 -0.84841608198E+02 -0.24771726834E+03  0.30753930864E+03  0.12500195919E+03 0.  0.
          5    1    4    4  502    0  0.10753438098E+03 -0.11090070099E+03 -0.20095518346E+03  0.25351071837E+03  0.47000000000E+01 0.  1.
         -5    1    4    4    0  502 -0.55883509432E+01  0.26059092790E+02 -0.46762084886E+02  0.54028590267E+02  0.47000000000E+01 0.  1.
          5    1    3    3  503    0 -0.60965349985E+02 -0.25958592106E+01 -0.36479289685E+02  0.71248445315E+02  0.47000000000E+01 0. -1.
         -5    1    3    3    0  503 -0.40980680048E+02  0.87437467409E+02 -0.25278813992E+03  0.27064489747E+03  0.47000000000E+01 0. -1.
<mgrwt>
<rscale>  0 0.18225336E+03</rscale>
<asrwt>0</asrwt>
<pdfrwt beam="2">  1        5 0.91262869E-01 0.18225417E+03</pdfrwt>
<pdfrwt beam="1">  1       -5 0.86498430E-02 0.18225417E+03</pdfrwt>
<totfact> 0.80377991E+01</totfact>
</mgrwt>
</event>
<event>
 8    1  0.1865596E-007  0.1364448E+03  0.7546771E-02  0.1218195E+00
         -5   -1    0    0    0  501 -0.00000000000E+00  0.00000000000E+00  0.21057249284E+03  0.21062493856E+03  0.47000000000E+01 0.  1.
          5   -1    0    0  501    0  0.00000000000E+00 -0.00000000000E+00 -0.93408311462E+02  0.93526481010E+02  0.47000000000E+01 0.  1.
         25    2    1    2    0    0  0.17064564464E+02  0.51972626516E+02  0.94162562291E+02  0.16578226674E+03  0.12499927424E+03 0.  0.
         25    2    1    2    0    0 -0.17064564464E+02 -0.51972626516E+02  0.23001619088E+02  0.13836915283E+03  0.12499837881E+03 0.  0.
          5    1    3    3  502    0  0.34073229400E+02  0.61790921034E+02  0.11611442550E+03  0.13595496568E+03  0.47000000000E+01 0. -1.
         -5    1    3    3    0  502 -0.17008664936E+02 -0.98182945186E+01 -0.21951863209E+02  0.29827301059E+02  0.47000000000E+01 0. -1.
          5    1    4    4  503    0 -0.33621449405E+02 -0.12902794829E+02  0.67532747201E+02  0.76678849228E+02  0.47000000000E+01 0.  1.
         -5    1    4    4    0  503  0.16556884941E+02 -0.39069831687E+02 -0.44531128112E+02  0.61690303598E+02  0.47000000000E+01 0.  1.
<mgrwt>
<rscale>  0 0.13644455E+03</rscale>
<asrwt>0</asrwt>
<pdfrwt beam="2">  1        5 0.14383634E-01 0.13644476E+03</pdfrwt>
<pdfrwt beam="1">  1       -5 0.32408892E-01 0.13644476E+03</pdfrwt>
<totfact> 0.28168472E+02</totfact>
</mgrwt>
</event>
<event>
 8    1  0.1865596E-007  0.2129602E+03  0.7546771E-02  0.1139245E+00
         -5   -1    0    0    0  501 -0.00000000000E+00  0.00000000000E+00  0.84493054620E+02  0.84623674459E+02  0.47000000000E+01 0.  1.
          5   -1    0    0  501    0  0.00000000000E+00 -0.00000000000E+00 -0.66856667221E+03  0.66858319243E+03  0.47000000000E+01 0.  1.
         25    2    1    2    0    0 -0.34382843807E+02  0.16894490400E+03 -0.12447313188E+03  0.24666900523E+03  0.12500990778E+03 0.  0.
         25    2    1    2    0    0  0.34382843807E+02 -0.16894490400E+03 -0.45960048571E+03  0.50653786166E+03  0.12499375302E+03 0.  0.
          5    1    4    4  502    0  0.79917936411E+02 -0.81648977841E+02 -0.24243877249E+03  0.26805238397E+03  0.47000000000E+01 0.  1.
         -5    1    4    4    0  502 -0.45535092604E+02 -0.87295926157E+02 -0.21716171322E+03  0.23848547769E+03  0.47000000000E+01 0.  1.
          5    1    3    3  503    0 -0.63933656270E+02  0.33066114108E+02 -0.28073562373E+02  0.77402165412E+02  0.47000000000E+01 0. -1.
         -5    1    3    3    0  503  0.29550812463E+02  0.13587878989E+03 -0.96399569510E+02  0.16926683981E+03  0.47000000000E+01 0. -1.
<mgrwt>
<rscale>  0 0.21295781E+03</rscale>
<asrwt>0</asrwt>
<pdfrwt beam="2">  1        5 0.10286773E+00 0.21296018E+03</pdfrwt>
<pdfrwt beam="1">  1       -5 0.13010250E-01 0.21296018E+03</pdfrwt>
<totfact> 0.30427492E+01</totfact>
</mgrwt>
</event>
<event>
 8    1  0.1865596E-007  0.1340104E+03  0.7546771E-02  0.1221628E+00
         -5   -1    0    0    0  501 -0.00000000000E+00  0.00000000000E+00  0.19396068855E+02  0.19957391789E+02  0.47000000000E+01 0. -1.
          5   -1    0    0  501    0  0.00000000000E+00 -0.00000000000E+00 -0.91578823360E+03  0.91580029416E+03  0.47000000000E+01 0. -1.
         25    2    1    2    0    0  0.47953035775E+02 -0.56501489767E+01 -0.41827166788E+03  0.43921517811E+03  0.12500946648E+03 0.  0.
         25    2    1    2    0    0 -0.47953035775E+02  0.56501489767E+01 -0.47812049686E+03  0.49654250784E+03  0.12499533893E+03 0.  0.
          5    1    4    4  502    0 -0.42589600005E+01  0.46174500453E+02 -0.70190025412E+02  0.84255284105E+02  0.47000000000E+01 0. -1.
         -5    1    4    4    0  502 -0.43694075775E+02 -0.40524351477E+02 -0.40793047145E+03  0.41228722374E+03  0.47000000000E+01 0. -1.
          5    1    3    3  503    0 -0.37615542431E+02  0.12915679132E+02 -0.76190080597E+02  0.86074166747E+02  0.47000000000E+01 0.  1.
         -5    1    3    3    0  503  0.85568578206E+02 -0.18565828109E+02 -0.34208158728E+03  0.35314101136E+03  0.47000000000E+01 0.  1.
<mgrwt>
<rscale>  0 0.13400709E+03</rscale>
<asrwt>0</asrwt>
<pdfrwt beam="2">  1        5 0.14093457E+00 0.13401039E+03</pdfrwt>
<pdfrwt beam="1">  1       -5 0.30281177E-02 0.13401039E+03</pdfrwt>
<totfact> 0.14126107E+02</totfact>
</mgrwt>
</event>
<event>
 8    1  0.1865596E-007  0.1675373E+03  0.7546771E-02  0.1180441E+00
         -5   -1    0    0    0  501 -0.00000000000E+00  0.00000000000E+00  0.14708300130E+03  0.14715807580E+03  0.47000000000E+01 0. -1.
          5   -1    0    0  501    0  0.00000000000E+00 -0.00000000000E+00 -0.22220665717E+03  0.22225635759E+03  0.47000000000E+01 0. -1.
         25    2    1    2    0    0 -0.79009541411E+02 -0.78742658540E+02  0.31990487817E+02  0.17056227603E+03  0.12500073915E+03 0.  0.
         25    2    1    2    0    0  0.79009541411E+02  0.78742658540E+02 -0.10711414368E+03  0.19885215736E+03  0.12500330716E+03 0.  0.
          5    1    4    4  502    0 -0.50396691843E+01  0.12457989242E+02  0.24989126369E+02  0.28760149480E+02  0.47000000000E+01 0.  1.
         -5    1    4    4    0  502  0.84049210596E+02  0.66284669297E+02 -0.13210327005E+03  0.17009200787E+03  0.47000000000E+01 0.  1.
          5    1    3    3  503    0 -0.34402438701E+02  0.14302487601E+01  0.64373485979E+02  0.73154692926E+02  0.47000000000E+01 0.  1.
         -5    1    3    3    0  503 -0.44607102710E+02 -0.80172907300E+02 -0.32382998162E+02  0.97407583109E+02  0.47000000000E+01 0.  1.
<mgrwt>
<rscale>  0 0.16753680E+03</rscale>
<asrwt>0</asrwt>
<pdfrwt beam="2">  1        5 0.34195238E-01 0.16753728E+03</pdfrwt>
<pdfrwt beam="1">  1       -5 0.22637752E-01 0.16753728E+03</pdfrwt>
<totfact> 0.11693281E+02</totfact>
</mgrwt>
</event>
<event>
 8    1  0.1865596E-007  0.1346497E+03  0.7546771E-02  0.1220746E+00
          5   -1    0    0  501    0  0.00000000000E+00  0.00000000000E+00  0.33023177477E+02  0.33355962746E+02  0.47000000000E+01 0. -1.
         -5   -1    0    0    0  501 -0.00000000000E+00 -0.00000000000E+00 -0.10286262108E+04  0.10286369484E+04  0.47000000000E+01 0. -1.
         25    2    1    2    0    0  0.44364973139E+02 -0.22691923589E+02 -0.86170829943E+03  0.87216497121E+03  0.12508944583E+03 0.  0.
         25    2    1    2    0    0 -0.44364973139E+02  0.22691923589E+02 -0.13389473391E+03  0.18982793992E+03  0.12499469096E+03 0.  0.
          5    1    3    3  502    0  0.54869641446E+01 -0.54155749591E+02 -0.71519536153E+03  0.71727919748E+03  0.47000000000E+01 0.  1.
         -5    1    3    3    0  502  0.38878008995E+02  0.31463826001E+02 -0.14651293791E+03  0.15488577373E+03  0.47000000000E+01 0.  1.
          5    1    4    4  503    0 -0.57699516980E+02 -0.11582521725E+01 -0.14785302792E+03  0.15878659790E+03  0.47000000000E+01 0.  1.
         -5    1    4    4    0  503  0.13334543841E+02  0.23850175762E+02  0.13958294004E+02  0.31041342026E+02  0.47000000000E+01 0.  1.
<mgrwt>
<rscale>  0 0.13462770E+03</rscale>
<asrwt>0</asrwt>
<pdfrwt beam="1">  1        5 0.51069145E-02 0.13464971E+03</pdfrwt>
<pdfrwt beam="2">  1       -5 0.15827659E+00 0.13464971E+03</pdfrwt>
<totfact> 0.43811449E+01</totfact>
</mgrwt>
</event>
<event>
 8    1  0.1865596E-007  0.1335418E+03  0.7546771E-02  0.1222293E+00
          5   -1    0    0  501    0  0.00000000000E+00  0.00000000000E+00  0.12165529554E+04  0.12165620343E+04  0.47000000000E+01 0.  1.
         -5   -1    0    0    0  501 -0.00000000000E+00 -0.00000000000E+00 -0.15228213146E+02  0.15937015895E+02  0.47000000000E+01 0.  1.
         25    2    1    2    0    0 -0.39264921605E+02 -0.25814695319E+02  0.44993144424E+03  0.46933112149E+03  0.12500105809E+03 0.  0.
         25    2    1    2    0    0  0.39264921605E+02  0.25814695319E+02  0.75139329799E+03  0.76316792868E+03  0.12500106611E+03 0.  0.
          5    1    3    3  502    0 -0.13907859172E+02  0.33661898742E+02  0.39983953336E+02  0.54289580013E+02  0.47000000000E+01 0. -1.
         -5    1    3    3    0  502 -0.25357062433E+02 -0.59476594061E+02  0.40994749090E+03  0.41504154148E+03  0.47000000000E+01 0. -1.
          5    1    4    4  503    0  0.81057652547E+02  0.17792446742E+02  0.36160389882E+03  0.37103420845E+03  0.47000000000E+01 0.  1.
         -5    1    4    4    0  503 -0.41792730942E+02  0.80222485768E+01  0.38978939918E+03  0.39213372023E+03  0.47000000000E+01 0.  1.
<mgrwt>
<rscale>  0 0.13354175E+03</rscale>
<asrwt>0</asrwt>
<pdfrwt beam="1">  1        5 0.18721714E+00 0.13354175E+03</pdfrwt>
<pdfrwt beam="2">  1       -5 0.23980247E-02 0.13354175E+03</pdfrwt>
<totfact> 0.92153049E+01</totfact>
</mgrwt>
</event>
<event>
 8    1  0.1865596E-007  0.1366186E+03  0.7546771E-02  0.1217954E+00
          5   -1    0    0  501    0  0.00000000000E+00  0.00000000000E+00  0.57718511050E+02  0.57909554634E+02  0.47000000000E+01 0.  1.
         -5   -1    0    0    0  501 -0.00000000000E+00 -0.00000000000E+00 -0.32937686489E+03  0.32941039620E+03  0.47000000000E+01 0.  1.
         25    2    1    2    0    0  0.55006359741E+02  0.36865031401E+01 -0.16355989301E+03  0.21311139651E+03  0.12500135521E+03 0.  0.
         25    2    1    2    0    0 -0.55006359741E+02 -0.36865031401E+01 -0.10809846083E+03  0.17420855432E+03  0.12499621293E+03 0.  0.
          5    1    4    4  502    0 -0.50304440904E+02  0.56251278298E+02 -0.68816403707E+02  0.10223761785E+03  0.47000000000E+01 0.  1.
         -5    1    4    4    0  502 -0.47019188375E+01 -0.59937781438E+02 -0.39282057122E+02  0.71970936468E+02  0.47000000000E+01 0.  1.
          5    1    3    3  503    0 -0.24989765218E+02  0.22612446595E+02 -0.10936834569E+03  0.11453967062E+03  0.47000000000E+01 0.  1.
         -5    1    3    3    0  503  0.79996124959E+02 -0.18925943454E+02 -0.54191547314E+02  0.98571725887E+02  0.47000000000E+01 0.  1.
<mgrwt>
<rscale>  0 0.13661738E+03</rscale>
<asrwt>0</asrwt>
<pdfrwt beam="1">  1        5 0.88970461E-02 0.13661855E+03</pdfrwt>
<pdfrwt beam="2">  1       -5 0.50690638E-01 0.13661855E+03</pdfrwt>
<totfact> 0.26280553E+02</totfact>
</mgrwt>
</event>
<event>
 8    1  0.1865596E-007  0.1705844E+03  0.7546771E-02  0.1177242E+00
          5   -1    0    0  501    0  0.00000000000E+00  0.00000000000E+00  0.48964276251E+02  0.49189331656E+02  0.47000000000E+01 0. -1.
         -5   -1    0    0    0  501 -0.00000000000E+00 -0.00000000000E+00 -0.59536999585E+03  0.59538854705E+03  0.47000000000E+01 0. -1.
         25    2    1    2    0    0  0.21627431335E+02 -0.11403691617E+03 -0.29491833413E+03  0.34069476219E+03  0.12499573249E+03 0.  0.
         25    2    1    2    0    0 -0.21627431335E+02  0.11403691617E+03 -0.25148738547E+03  0.30388311652E+03  0.12500751746E+03 0.  0.
          5    1    3    3  502    0  0.29750475846E+02 -0.89102325615E+02 -0.78123209418E+02  0.12226872492E+03  0.47000000000E+01 0. -1.
         -5    1    3    3    0  502 -0.81230445105E+01 -0.24934590551E+02 -0.21679512471E+03  0.21842603727E+03  0.47000000000E+01 0. -1.
          5    1    4    4  503    0  0.20897366547E+02  0.87183080807E+02 -0.23366541182E+03  0.25031820587E+03  0.47000000000E+01 0.  1.
         -5    1    4    4    0  503 -0.42524797882E+02  0.26853835359E+02 -0.17821973648E+02  0.53564910651E+02  0.47000000000E+01 0.  1.
<mgrwt>
<rscale>  0 0.17058226E+03</rscale>
<asrwt>0</asrwt>
<pdfrwt beam="1">  1        5 0.75517050E-02 0.17058442E+03</pdfrwt>
<pdfrwt beam="2">  1       -5 0.91614118E-01 0.17058442E+03</pdfrwt>
<totfact> 0.98752039E+01</totfact>
</mgrwt>
</event>
<event>
 8    1  0.1865596E-007  0.1822656E+03  0.7546771E-02  0.1165631E+00
          5   -1    0    0  501    0  0.00000000000E+00  0.00000000000E+00  0.99609307374E+03  0.99610416200E+03  0.47000000000E+01 0. -1.
         -5   -1    0    0    0  501 -0.00000000000E+00 -0.00000000000E+00 -0.55474854011E+02  0.55673597221E+02  0.47000000000E+01 0. -1.
         25    2    1    2    0    0 -0.38212721476E+02 -0.12702386088E+03  0.13769838934E+03  0.22843291168E+03  0.12500190158E+03 0.  0.
         25    2    1    2    0    0  0.38212721476E+02  0.12702386088E+03  0.80291983040E+03  0.82334484754E+03  0.12498484153E+03 0.  0.
          5    1    4    4  502    0  0.57780213673E+02  0.59775726717E+02  0.64720475182E+03  0.65253947878E+03  0.47000000000E+01 0. -1.
         -5    1    4    4    0  502 -0.19567492196E+02  0.67248134166E+02  0.15571507858E+03  0.17080536876E+03  0.47000000000E+01 0. -1.
          5    1    3    3  503    0 -0.82648171381E+02 -0.91004490164E+02  0.10852937442E+03  0.16405259088E+03  0.47000000000E+01 0.  1.
         -5    1    3    3    0  503  0.44435449905E+02 -0.36019370719E+02  0.29169014913E+02  0.64380320799E+02  0.47000000000E+01 0.  1.
<mgrwt>
<rscale>  0 0.18226267E+03</rscale>
<asrwt>0</asrwt>
<pdfrwt beam="1">  1        5 0.15326122E+00 0.18226560E+03</pdfrwt>
<pdfrwt beam="2">  1       -5 0.85507342E-02 0.18226560E+03</pdfrwt>
<totfact> 0.21704799E+01</totfact>
</mgrwt>
</event>
<event>
 8    1  0.1865596E-007  0.1683549E+03  0.7546771E-02  0.1179576E+00
         -5   -1    0    0    0  501 -0.00000000000E+00  0.00000000000E+00  0.12127073980E+03  0.12136178282E+03  0.47000000000E+01 0. -1.
          5   -1    0    0  501    0  0.00000000000E+00 -0.00000000000E+00 -0.30653831560E+03  0.30657434487E+03  0.47000000000E+01 0. -1.
         25    2    1    2    0    0  0.58075144358E+02  0.96661787545E+02  0.11778721052E+02  0.16876642798E+03  0.12500858123E+03 0.  0.
         25    2    1    2    0    0 -0.58075144358E+02 -0.96661787545E+02 -0.19704629686E+03  0.25916969971E+03  0.12500186630E+03 0.  0.
          5    1    4    4  502    0 -0.48016884773E+02 -0.87983386755E+02 -0.21445683826E+03  0.23677103507E+03  0.47000000000E+01 0.  1.
         -5    1    4    4    0  502 -0.10058259585E+02 -0.86784007905E+01  0.17410541401E+02  0.22398664649E+02  0.47000000000E+01 0.  1.
          5    1    3    3  503    0  0.92490609337E+02  0.42603078094E+02  0.20320658764E+02  0.10394495780E+03  0.47000000000E+01 0. -1.
         -5    1    3    3    0  503 -0.34415464979E+02  0.54058709451E+02 -0.85419377120E+01  0.64821470186E+02  0.47000000000E+01 0. -1.
<mgrwt>
<rscale>  0 0.16835364E+03</rscale>
<asrwt>0</asrwt>
<pdfrwt beam="2">  1        5 0.47169515E-01 0.16835489E+03</pdfrwt>
<pdfrwt beam="1">  1       -5 0.18666812E-01 0.16835489E+03</pdfrwt>
<totfact> 0.86880360E+01</totfact>
</mgrwt>
</event>
<event>
 8    1  0.1865596E-007  0.1556142E+03  0.7546771E-02  0.1193745E+00
         -5   -1    0    0    0  501 -0.00000000000E+00  0.00000000000E+00  0.22934128233E+02  0.23410771833E+02  0.47000000000E+01 0.  1.
          5   -1    0    0  501    0  0.00000000000E+00 -0.00000000000E+00 -0.10555688590E+04  0.10555793225E+04  0.47000000000E+01 0.  1.
         25    2    1    2    0    0  0.91673952190E+02 -0.13541443462E+02 -0.46089900552E+03  0.48646034209E+03  0.12501314703E+03 0.  0.
         25    2    1    2    0    0 -0.91673952190E+02  0.13541443462E+02 -0.57173572523E+03  0.59252975223E+03  0.12498913383E+03 0.  0.
          5    1    3    3  502    0 -0.26868567688E+02 -0.21779171673E+02 -0.13840617439E+03  0.14273966287E+03  0.47000000000E+01 0. -1.
         -5    1    3    3    0  502  0.11854251988E+03  0.82377282114E+01 -0.32249283113E+03  0.34372067921E+03  0.47000000000E+01 0. -1.
          5    1    4    4  503    0 -0.23057251803E+02  0.61417522102E+02 -0.33511261833E+03  0.34150593823E+03  0.47000000000E+01 0. -1.
         -5    1    4    4    0  503 -0.68616700387E+02 -0.47876078640E+02 -0.23662310690E+03  0.25102381401E+03  0.47000000000E+01 0. -1.
<mgrwt>
<rscale>  0 0.15560935E+03</rscale>
<asrwt>0</asrwt>
<pdfrwt beam="2">  1        5 0.16243264E+00 0.15561417E+03</pdfrwt>
<pdfrwt beam="1">  1       -5 0.35657980E-02 0.15561417E+03</pdfrwt>
<totfact> 0.76792118E+01</totfact>
</mgrwt>
</event>
<event>
 8    1  0.1865596E-007  0.1754791E+03  0.7546771E-02  0.1172252E+00
         -5   -1    0    0    0  501 -0.00000000000E+00  0.00000000000E+00  0.15236672425E+03  0.15243919660E+03  0.47000000000E+01 0.  1.
          5   -1    0    0  501    0  0.00000000000E+00 -0.00000000000E+00 -0.25407351065E+03  0.25411697860E+03  0.47000000000E+01 0.  1.
         25    2    1    2    0    0 -0.93424730874E+02  0.80253198675E+02  0.41198071282E+02  0.18024952635E+03  0.12499541766E+03 0.  0.
         25    2    1    2    0    0  0.93424730874E+02 -0.80253198675E+02 -0.14290485768E+03  0.22630664885E+03  0.12499657888E+03 0.  0.
          5    1    4    4  502    0  0.11821052723E+03 -0.41281092915E+02 -0.12368011358E+03  0.17605884777E+03  0.47000000000E+01 0.  1.
         -5    1    4    4    0  502 -0.24785796359E+02 -0.38972105761E+02 -0.19224744092E+02  0.50247801086E+02  0.47000000000E+01 0.  1.
          5    1    3    3  503    0 -0.10492374377E+03  0.72711229240E+02 -0.89335548037E+01  0.12805394670E+03  0.47000000000E+01 0.  1.
         -5    1    3    3    0  503  0.11499012898E+02  0.75419694356E+01  0.50131626086E+02  0.52195579646E+02  0.47000000000E+01 0.  1.
<mgrwt>
<rscale>  0 0.17547885E+03</rscale>
<asrwt>0</asrwt>
<pdfrwt beam="2">  1        5 0.39097151E-01 0.17547906E+03</pdfrwt>
<pdfrwt beam="1">  1       -5 0.23449953E-01 0.17547906E+03</pdfrwt>
<totfact> 0.84492066E+01</totfact>
</mgrwt>
</event>
<event>
 8    1  0.1865596E-007  0.1334166E+03  0.7546771E-02  0.1222474E+00
          5   -1    0    0  501    0  0.00000000000E+00  0.00000000000E+00  0.57091468188E+02  0.57284602992E+02  0.47000000000E+01 0. -1.
         -5   -1    0    0    0  501 -0.00000000000E+00 -0.00000000000E+00 -0.51774868201E+03  0.51777001431E+03  0.47000000000E+01 0. -1.
         25    2    1    2    0    0  0.40332909829E+02  0.23427171321E+02 -0.41197303120E+03  0.43303783595E+03  0.12499765180E+03 0.  0.
         25    2    1    2    0    0 -0.40332909829E+02 -0.23427171321E+02 -0.48684182616E+02  0.14201678135E+03  0.12499216206E+03 0.  0.
          5    1    4    4  502    0 -0.46393991196E+02 -0.25255232772E+02 -0.87550247810E+02  0.10235900104E+03  0.47000000000E+01 0. -1.
         -5    1    4    4    0  502  0.60610813671E+01  0.18280614516E+01  0.38866065194E+02  0.39657780317E+02  0.47000000000E+01 0. -1.
          5    1    3    3  503    0  0.37791862067E+01 -0.21266563076E+02 -0.59347274937E+01  0.22887986890E+02  0.47000000000E+01 0.  1.
         -5    1    3    3    0  503  0.36553723622E+02  0.44693734397E+02 -0.40603830371E+03  0.41014984906E+03  0.47000000000E+01 0.  1.
<mgrwt>
<rscale>  0 0.13341531E+03</rscale>
<asrwt>0</asrwt>
<pdfrwt beam="1">  1        5 0.87998006E-02 0.13341660E+03</pdfrwt>
<pdfrwt beam="2">  1       -5 0.79670138E-01 0.13341660E+03</pdfrwt>
<totfact> 0.97712741E+01</totfact>
</mgrwt>
</event>
<event>
 8    1  0.1865596E-007  0.1902270E+03  0.7546771E-02  0.1158257E+00
          5   -1    0    0  501    0  0.00000000000E+00  0.00000000000E+00  0.65524118407E+03  0.65525804024E+03  0.47000000000E+01 0. -1.
         -5   -1    0    0    0  501 -0.00000000000E+00 -0.00000000000E+00 -0.56751465631E+02  0.56945753584E+02  0.47000000000E+01 0. -1.
         25    2    1    2    0    0 -0.92458498151E+02  0.10959899646E+03  0.23876534932E+03  0.30527888285E+03  0.12500316146E+03 0.  0.
         25    2    1    2    0    0  0.92458498151E+02 -0.10959899646E+03  0.35972436912E+03  0.40692491097E+03  0.12500299006E+03 0.  0.
          5    1    3    3  502    0  0.73119656555E+01  0.42494300528E+02  0.14891849348E+03  0.15510653796E+03  0.47000000000E+01 0. -1.
         -5    1    3    3    0  502 -0.99770463807E+02  0.67104695937E+02  0.89846855838E+02  0.15017234489E+03  0.47000000000E+01 0. -1.
          5    1    4    4  503    0  0.34173701013E+02 -0.70174304447E+02  0.31229676577E+03  0.32193731495E+03  0.47000000000E+01 0. -1.
         -5    1    4    4    0  503  0.58284797139E+02 -0.39424692018E+02  0.47427603345E+02  0.84987596020E+02  0.47000000000E+01 0. -1.
<mgrwt>
<rscale>  0 0.19022695E+03</rscale>
<asrwt>0</asrwt>
<pdfrwt beam="1">  1        5 0.10082258E+00 0.19022698E+03</pdfrwt>
<pdfrwt beam="2">  1       -5 0.87472360E-02 0.19022698E+03</pdfrwt>
<totfact> 0.62663359E+01</totfact>
</mgrwt>
</event>
<event>
 8    1  0.1865596E-007  0.1293096E+03  0.7546771E-02  0.1228486E+00
         -5   -1    0    0    0  501 -0.00000000000E+00  0.00000000000E+00  0.10377932446E+03  0.10388569769E+03  0.47000000000E+01 0. -1.
          5   -1    0    0  501    0  0.00000000000E+00 -0.00000000000E+00 -0.18320487067E+03  0.18326514845E+03  0.47000000000E+01 0. -1.
         25    2    1    2    0    0  0.32120296857E+02  0.79817517468E+01  0.10370305923E+02  0.12972474359E+03  0.12500217607E+03 0.  0.
         25    2    1    2    0    0 -0.32120296857E+02 -0.79817517468E+01 -0.89795852134E+02  0.15742610255E+03  0.12499704346E+03 0.  0.
          5    1    3    3  502    0  0.27087005190E+02  0.35050505127E+02  0.58829761034E+02  0.73792103528E+02  0.47000000000E+01 0.  1.
         -5    1    3    3    0  502  0.50332916675E+01 -0.27068753381E+02 -0.48459455111E+02  0.55932640062E+02  0.47000000000E+01 0.  1.
          5    1    4    4  503    0 -0.41310648718E+02 -0.46466011761E+02 -0.98562051095E+02  0.11662858939E+03  0.47000000000E+01 0. -1.
         -5    1    4    4    0  503  0.91903518604E+01  0.38484260014E+02  0.87661989606E+01  0.40797513164E+02  0.47000000000E+01 0. -1.
<mgrwt>
<rscale>  0 0.12930833E+03</rscale>
<asrwt>0</asrwt>
<pdfrwt beam="2">  1        5 0.28198184E-01 0.12930957E+03</pdfrwt>
<pdfrwt beam="1">  1       -5 0.15978869E-01 0.12930957E+03</pdfrwt>
<totfact> 0.30024526E+02</totfact>
</mgrwt>
</event>
<event>
 8    1  0.1865596E-007  0.1519824E+03  0.7546771E-02  0.1198059E+00
         -5   -1    0    0    0  501 -0.00000000000E+00  0.00000000000E+00  0.10295828786E+03  0.10306550849E+03  0.47000000000E+01 0.  1.
          5   -1    0    0  501    0  0.00000000000E+00 -0.00000000000E+00 -0.27253508500E+03  0.27257560887E+03  0.47000000000E+01 0.  1.
         25    2    1    2    0    0  0.55743666641E+02 -0.66061705544E+02 -0.56279647012E+01  0.15208653502E+03  0.12500853906E+03 0.  0.
         25    2    1    2    0    0 -0.55743666641E+02  0.66061705544E+02 -0.16394883243E+03  0.22355458234E+03  0.12500370522E+03 0.  0.
          5    1    3    3  502    0 -0.12602890405E+01 -0.36882185661E+02 -0.58217470229E+02  0.69088695077E+02  0.47000000000E+01 0.  1.
         -5    1    3    3    0  502  0.57003955682E+02 -0.29179519883E+02  0.52589505528E+02  0.82997839946E+02  0.47000000000E+01 0.  1.
          5    1    4    4  503    0 -0.34653903613E+02 -0.20005171271E+02 -0.11577285292E+03  0.12258280217E+03  0.47000000000E+01 0.  1.
         -5    1    4    4    0  503 -0.21089763028E+02  0.86066876815E+02 -0.48175979507E+02  0.10097178017E+03  0.47000000000E+01 0.  1.
<mgrwt>
<rscale>  0 0.15198137E+03</rscale>
<asrwt>0</asrwt>
<pdfrwt beam="2">  1        5 0.41939839E-01 0.15198237E+03</pdfrwt>
<pdfrwt beam="1">  1       -5 0.15851102E-01 0.15198237E+03</pdfrwt>
<totfact> 0.14534936E+02</totfact>
</mgrwt>
</event>
<event>
 8    1  0.1865596E-007  0.2003553E+03  0.7546771E-02  0.1149440E+00
          5   -1    0    0  501    0  0.00000000000E+00  0.00000000000E+00  0.24325156915E+03  0.24329697059E+03  0.47000000000E+01 0.  1.
         -5   -1    0    0    0  501 -0.00000000000E+00 -0.00000000000E+00 -0.16493337091E+03  0.16500032376E+03  0.47000000000E+01 0.  1.
         25    2    1    2    0    0  0.78749159976E+01 -0.15638200272E+03  0.40201965815E+02  0.20434852981E+03  0.12499911402E+03 0.  0.
         25    2    1    2    0    0 -0.78749159976E+01  0.15638200272E+03  0.38116232425E+02  0.20394876453E+03  0.12499962521E+03 0.  0.
          5    1    3    3  502    0 -0.57525340343E+02 -0.85951312126E+02  0.28696749191E+02  0.10743549810E+03  0.47000000000E+01 0. -1.
         -5    1    3    3    0  502  0.65400256341E+02 -0.70430690591E+02  0.11505216624E+02  0.96913031715E+02  0.47000000000E+01 0. -1.
          5    1    4    4  503    0 -0.17748153844E+02  0.65487118866E+02  0.78519380564E+02  0.10387946297E+03  0.47000000000E+01 0. -1.
         -5    1    4    4    0  503  0.98732378462E+01  0.90894883852E+02 -0.40403148139E+02  0.10006930156E+03  0.47000000000E+01 0. -1.
<mgrwt>
<rscale>  0 0.20035523E+03</rscale>
<asrwt>0</asrwt>
<pdfrwt beam="1">  1        5 0.37431961E-01 0.20035531E+03</pdfrwt>
<pdfrwt beam="2">  1       -5 0.25383007E-01 0.20035531E+03</pdfrwt>
<totfact> 0.82328324E+01</totfact>
</mgrwt>
</event>
<event>
 8    1  0.1865596E-007  0.1463190E+03  0.7546771E-02  0.1205082E+00
          5   -1    0    0  501    0  0.00000000000E+00  0.00000000000E+00  0.71934340508E+02  0.72087719789E+02  0.47000000000E+01 0. -1.
         -5   -1    0    0    0  501 -0.00000000000E+00 -0.00000000000E+00 -0.29771474687E+03  0.29775184383E+03  0.47000000000E+01 0. -1.
         25    2    1    2    0    0  0.17456934865E+02  0.74031683276E+02 -0.12157710335E+03  0.19023736628E+03  0.12499531498E+03 0.  0.
         25    2    1    2    0    0 -0.17456934865E+02 -0.74031683276E+02 -0.10420330300E+03  0.17960219733E+03  0.12495273597E+03 0.  0.
          5    1    3    3  502    0 -0.22188340432E+02 -0.24206140022E+02 -0.65904825608E+01  0.33819877679E+02  0.47000000000E+01 0.  1.
         -5    1    3    3    0  502  0.39645275297E+02  0.98237823298E+02 -0.11498662079E+03  0.15641748860E+03  0.47000000000E+01 0.  1.
          5    1    4    4  503    0  0.41564557281E+02  0.68390026358E+01 -0.50375347609E+02  0.65834261792E+02  0.47000000000E+01 0. -1.
         -5    1    4    4    0  503 -0.59021492145E+02 -0.80870685912E+02 -0.53827955395E+02  0.11376793554E+03  0.47000000000E+01 0. -1.
<mgrwt>
<rscale>  0 0.14630995E+03</rscale>
<asrwt>0</asrwt>
<pdfrwt beam="1">  1        5 0.11081474E-01 0.14631905E+03</pdfrwt>
<pdfrwt beam="2">  1       -5 0.45816920E-01 0.14631905E+03</pdfrwt>
<totfact> 0.22687287E+02</totfact>
</mgrwt>
</event>
<event>
 8    1  0.1865596E-007  0.1415783E+03  0.7546771E-02  0.1211222E+00
          5   -1    0    0  501    0  0.00000000000E+00  0.00000000000E+00  0.14085468031E+03  0.14093307265E+03  0.47000000000E+01 0.  1.
         -5   -1    0    0    0  501 -0.00000000000E+00 -0.00000000000E+00 -0.22685460749E+03  0.22690328984E+03  0.47000000000E+01 0.  1.
         25    2    1    2    0    0 -0.28704235376E+02 -0.59961512965E+02 -0.15535108517E+03  0.21018482976E+03  0.12499754730E+03 0.  0.
         25    2    1    2    0    0  0.28704235376E+02  0.59961512965E+02  0.69351157988E+02  0.15765153273E+03  0.12500042597E+03 0.  0.
          5    1    4    4  502    0  0.28717133772E+02  0.37773266397E+02  0.10504551295E+03  0.11536092587E+03  0.47000000000E+01 0.  1.
         -5    1    4    4    0  502 -0.12898395643E-01  0.22188246568E+02 -0.35694354964E+02  0.42290606858E+02  0.47000000000E+01 0.  1.
          5    1    3    3  503    0 -0.18942426220E+02 -0.89948875229E+02 -0.60567957475E+02  0.11018249924E+03  0.47000000000E+01 0.  1.
         -5    1    3    3    0  503 -0.97618091562E+01  0.29987362264E+02 -0.94783127692E+02  0.10000233052E+03  0.47000000000E+01 0.  1.
<mgrwt>
<rscale>  0 0.14157769E+03</rscale>
<asrwt>0</asrwt>
<pdfrwt beam="1">  1        5 0.21679726E-01 0.14157833E+03</pdfrwt>
<pdfrwt beam="2">  1       -5 0.34910484E-01 0.14157833E+03</pdfrwt>
<totfact> 0.11547891E+02</totfact>
</mgrwt>
</event>
<event>
 8    1  0.1865596E-007  0.2313097E+03  0.7546771E-02  0.1125722E+00
         -5   -1    0    0    0  501 -0.00000000000E+00  0.00000000000E+00  0.56365297455E+03  0.56367256960E+03  0.47000000000E+01 0. -1.
          5   -1    0    0  501    0  0.00000000000E+00 -0.00000000000E+00 -0.94845884937E+02  0.94962265609E+02  0.47000000000E+01 0. -1.
         25    2    1    2    0    0 -0.18166755981E+03  0.69827467484E+02  0.23610183091E+03  0.33052524250E+03  0.12499553541E+03 0.  0.
         25    2    1    2    0    0  0.18166755981E+03 -0.69827467484E+02  0.23270525870E+03  0.32810959270E+03  0.12500075957E+03 0.  0.
          5    1    3    3  502    0 -0.11918270204E+03  0.12304387620E+02  0.20952369769E+03  0.24140874945E+03  0.47000000000E+01 0.  1.
         -5    1    3    3    0  502 -0.62484857775E+02  0.57523079864E+02  0.26578133218E+02  0.89116493050E+02  0.47000000000E+01 0.  1.
          5    1    4    4  503    0  0.11964473405E+03 -0.31098287093E+02  0.54029837775E+02  0.13499362658E+03  0.47000000000E+01 0.  1.
         -5    1    4    4    0  503  0.62022825760E+02 -0.38729180391E+02  0.17867542093E+03  0.19311596613E+03  0.47000000000E+01 0.  1.
<mgrwt>
<rscale>  0 0.23130897E+03</rscale>
<asrwt>0</asrwt>
<pdfrwt beam="2">  1        5 0.14602134E-01 0.23130968E+03</pdfrwt>
<pdfrwt beam="1">  1       -5 0.86726301E-01 0.23130968E+03</pdfrwt>
<totfact> 0.38113536E+01</totfact>
</mgrwt>
</event>
<event>
 8    1  0.1865596E-007  0.1336842E+03  0.7546771E-02  0.1222093E+00
         -5   -1    0    0    0  501 -0.00000000000E+00  0.00000000000E+00  0.31534706997E+03  0.31538209293E+03  0.47000000000E+01 0. -1.
          5   -1    0    0  501    0  0.00000000000E+00 -0.00000000000E+00 -0.72191394660E+02  0.72344228954E+02  0.47000000000E+01 0. -1.
         25    2    1    2    0    0  0.26571322968E+02 -0.39221343304E+02  0.21173882607E+03  0.25040923678E+03  0.12500842540E+03 0.  0.
         25    2    1    2    0    0 -0.26571322968E+02  0.39221343304E+02  0.31416849240E+02  0.13731708510E+03  0.12499845787E+03 0.  0.
          5    1    3    3  502    0 -0.36892091208E+02 -0.25826983273E+02  0.16291397582E+03  0.16908906817E+03  0.47000000000E+01 0. -1.
         -5    1    3    3    0  502  0.63463414176E+02 -0.13394360031E+02  0.48824850253E+02  0.81320168603E+02  0.47000000000E+01 0. -1.
          5    1    4    4  503    0  0.62218559279E+01 -0.43645856434E+02  0.80086335925E+01  0.45054416954E+02  0.47000000000E+01 0. -1.
         -5    1    4    4    0  503 -0.32793178896E+02  0.82867199738E+02  0.23408215648E+02  0.92262668151E+02  0.47000000000E+01 0. -1.
<mgrwt>
<rscale>  0 0.13368183E+03</rscale>
<asrwt>0</asrwt>
<pdfrwt beam="2">  1        5 0.11120819E-01 0.13368416E+03</pdfrwt>
<pdfrwt beam="1">  1       -5 0.48529384E-01 0.13368416E+03</pdfrwt>
<totfact> 0.19387294E+02</totfact>
</mgrwt>
</event>
<event>
 8    1  0.1865596E-007  0.1388024E+03  0.7546771E-02  0.1214955E+00
          5   -1    0    0  501    0  0.00000000000E+00  0.00000000000E+00  0.14845826172E+03  0.14853264110E+03  0.47000000000E+01 0. -1.
         -5   -1    0    0    0  501 -0.00000000000E+00 -0.00000000000E+00 -0.13138758903E+03  0.13147162641E+03  0.47000000000E+01 0. -1.
         25    2    1    2    0    0 -0.27258115575E+01 -0.60234950384E+02 -0.77353667882E+01  0.13901778687E+03  0.12502171760E+03 0.  0.
         25    2    1    2    0    0  0.27258115575E+01  0.60234950384E+02  0.24806039478E+02  0.14098648064E+03  0.12500467524E+03 0.  0.
          5    1    4    4  502    0  0.28762949833E+02 -0.31599774566E+02  0.39632766819E+01  0.43170019664E+02  0.47000000000E+01 0.  1.
         -5    1    4    4    0  502 -0.26037138275E+02  0.91834724950E+02  0.20842762796E+02  0.97816460973E+02  0.47000000000E+01 0.  1.
          5    1    3    3  503    0 -0.98012733647E+01 -0.13476781591E+02 -0.63460494411E+02  0.65780034605E+02  0.47000000000E+01 0. -1.
         -5    1    3    3    0  503  0.70754618072E+01 -0.46758168793E+02  0.55725127623E+02  0.73237752268E+02  0.47000000000E+01 0. -1.
<mgrwt>
<rscale>  0 0.13879857E+03</rscale>
<asrwt>0</asrwt>
<pdfrwt beam="1">  1        5 0.22851918E-01 0.13880241E+03</pdfrwt>
<pdfrwt beam="2">  1       -5 0.20225661E-01 0.13880241E+03</pdfrwt>
<totfact> 0.29837317E+02</totfact>
</mgrwt>
</event>
<event>
 8    1  0.1865596E-007  0.1485915E+03  0.7546771E-02  0.1202215E+00
         -5   -1    0    0    0  501 -0.00000000000E+00  0.00000000000E+00  0.55968983551E+02  0.56165978312E+02  0.47000000000E+01 0.  1.
          5   -1    0    0  501    0  0.00000000000E+00 -0.00000000000E+00 -0.46300576652E+03  0.46302962090E+03  0.47000000000E+01 0.  1.
         25    2    1    2    0    0  0.39425188793E+02 -0.70000279539E+02 -0.10302378976E+03  0.18081217942E+03  0.12499903329E+03 0.  0.
         25    2    1    2    0    0 -0.39425188793E+02  0.70000279539E+02 -0.30401299321E+03  0.33838341979E+03  0.12500021642E+03 0.  0.
          5    1    3    3  502    0  0.82386438121E+01  0.35279610186E+02 -0.13102995431E+02  0.38811140617E+02  0.47000000000E+01 0. -1.
         -5    1    3    3    0  502  0.31186544981E+02 -0.10527988973E+03 -0.89920794333E+02  0.14200103881E+03  0.47000000000E+01 0. -1.
          5    1    4    4  503    0  0.54825211792E+01  0.87360166862E+02 -0.25444861300E+03  0.26912458723E+03  0.47000000000E+01 0.  1.
         -5    1    4    4    0  503 -0.44907709972E+02 -0.17359887323E+02 -0.49564380207E+02  0.69258832564E+02  0.47000000000E+01 0.  1.
<mgrwt>
<rscale>  0 0.14859127E+03</rscale>
<asrwt>0</asrwt>
<pdfrwt beam="2">  1        5 0.71248642E-01 0.14859152E+03</pdfrwt>
<pdfrwt beam="1">  1       -5 0.86276015E-02 0.14859152E+03</pdfrwt>
<totfact> 0.13512159E+02</totfact>
</mgrwt>
</event>
<event>
 8    1  0.1865596E-007  0.1811782E+03  0.7546771E-02  0.1166674E+00
         -5   -1    0    0    0  501 -0.00000000000E+00  0.00000000000E+00  0.82419883264E+02  0.82553783422E+02  0.47000000000E+01 0.  1.
          5   -1    0    0  501    0  0.00000000000E+00 -0.00000000000E+00 -0.47358991704E+03  0.47361323834E+03  0.47000000000E+01 0.  1.
         25    2    1    2    0    0  0.77503426460E+02 -0.10579829632E+03 -0.84300952945E+02  0.19980458724E+03  0.12496064099E+03 0.  0.
         25    2    1    2    0    0 -0.77503426460E+02  0.10579829632E+03 -0.30686908084E+03  0.35636243452E+03  0.12500196537E+03 0.  0.
          5    1    4    4  502    0  0.86351202605E+00  0.97291094044E+02 -0.12809624983E+03  0.16092557862E+03  0.47000000000E+01 0.  1.
         -5    1    4    4    0  502 -0.78366938486E+02  0.85072022771E+01 -0.17877283101E+03  0.19543685590E+03  0.47000000000E+01 0.  1.
          5    1    3    3  503    0  0.21463079322E+02  0.25135931319E+02 -0.36583680430E+02  0.49527108648E+02  0.47000000000E+01 0.  1.
         -5    1    3    3    0  503  0.56040347139E+02 -0.13093422764E+03 -0.47717272515E+02  0.15027747859E+03  0.47000000000E+01 0.  1.
<mgrwt>
<rscale>  0 0.18117110E+03</rscale>
<asrwt>0</asrwt>
<pdfrwt beam="2">  1        5 0.72872079E-01 0.18117823E+03</pdfrwt>
<pdfrwt beam="1">  1       -5 0.12692076E-01 0.18117823E+03</pdfrwt>
<totfact> 0.69118730E+01</totfact>
</mgrwt>
</event>
<event>
 8    1  0.1865596E-007  0.1346731E+03  0.7546771E-02  0.1220683E+00
          5   -1    0    0  501    0  0.00000000000E+00  0.00000000000E+00  0.32009928181E+02  0.32353137439E+02  0.47000000000E+01 0.  1.
         -5   -1    0    0    0  501 -0.00000000000E+00 -0.00000000000E+00 -0.60431932283E+03  0.60433759932E+03  0.47000000000E+01 0.  1.
         25    2    1    2    0    0  0.10968054751E+02 -0.48911424767E+02 -0.36916036122E+03  0.39295829013E+03  0.12499687910E+03 0.  0.
         25    2    1    2    0    0 -0.10968054751E+02  0.48911424767E+02 -0.20314903343E+03  0.24373244663E+03  0.12499340006E+03 0.  0.
          5    1    3    3  502    0 -0.44709942652E+02 -0.33187525143E+02 -0.28683185044E+03  0.29222421396E+03  0.47000000000E+01 0. -1.
         -5    1    3    3    0  502  0.55677997403E+02 -0.15723899624E+02 -0.82328510779E+02  0.10073407617E+03  0.47000000000E+01 0. -1.
          5    1    4    4  503    0  0.41657168535E+02 -0.13575996212E+02 -0.33412164316E+02  0.55300000794E+02  0.47000000000E+01 0.  1.
         -5    1    4    4    0  503 -0.52625223287E+02  0.62487420979E+02 -0.16973686912E+03  0.18843244584E+03  0.47000000000E+01 0.  1.
<mgrwt>
<rscale>  0 0.13467230E+03</rscale>
<asrwt>0</asrwt>
<pdfrwt beam="1">  1        5 0.49524114E-02 0.13467311E+03</pdfrwt>
<pdfrwt beam="2">  1       -5 0.93000002E-01 0.13467311E+03</pdfrwt>
<totfact> 0.18019287E+02</totfact>
</mgrwt>
</event>
<event>
 8    1  0.1865596E-007  0.1396391E+03  0.7546771E-02  0.1213820E+00
         -5   -1    0    0    0  501 -0.00000000000E+00  0.00000000000E+00  0.36480800067E+02  0.36782316043E+02  0.47000000000E+01 0.  1.
          5   -1    0    0  501    0  0.00000000000E+00 -0.00000000000E+00 -0.85563382972E+03  0.85564673819E+03  0.47000000000E+01 0.  1.
         25    2    1    2    0    0  0.61719572609E+02  0.78848926565E+01 -0.13518651773E+03  0.19435653129E+03  0.12501035758E+03 0.  0.
         25    2    1    2    0    0 -0.61719572609E+02 -0.78848926565E+01 -0.68396651193E+03  0.69807252294E+03  0.12499432257E+03 0.  0.
          5    1    3    3  502    0  0.65161160469E+02  0.11143992883E+02 -0.15760123529E+03  0.17096901700E+03  0.47000000000E+01 0. -1.
         -5    1    3    3    0  502 -0.34415878596E+01 -0.32591002261E+01  0.22414717556E+02  0.23387514284E+02  0.47000000000E+01 0. -1.
          5    1    4    4  503    0 -0.75471092324E+02  0.40550266107E+01 -0.67092510469E+03  0.67518509694E+03  0.47000000000E+01 0.  1.
         -5    1    4    4    0  503  0.13751519715E+02 -0.11939919267E+02 -0.13041407235E+02  0.22887426008E+02  0.47000000000E+01 0.  1.
<mgrwt>
<rscale>  0 0.13963547E+03</rscale>
<asrwt>0</asrwt>
<pdfrwt beam="2">  1        5 0.13166015E+00 0.13963906E+03</pdfrwt>
<pdfrwt beam="1">  1       -5 0.56366179E-02 0.13963906E+03</pdfrwt>
<totfact> 0.61692129E+01</totfact>
</mgrwt>
</event>
<event>
 8    1  0.1865596E-007  0.1536142E+03  0.7546771E-02  0.1196103E+00
         -5   -1    0    0    0  501 -0.00000000000E+00  0.00000000000E+00  0.26334241141E+03  0.26338434967E+03  0.47000000000E+01 0.  1.
          5   -1    0    0  501    0  0.00000000000E+00 -0.00000000000E+00 -0.15604940085E+03  0.15612016368E+03  0.47000000000E+01 0.  1.
         25    2    1    2    0    0 -0.76000264851E+02 -0.46844949879E+02  0.19057121078E+03  0.24477482538E+03  0.12500735650E+03 0.  0.
         25    2    1    2    0    0  0.76000264851E+02  0.46844949879E+02 -0.83278200214E+02  0.17472968796E+03  0.12499886254E+03 0.  0.
          5    1    3    3  502    0  0.11817566867E+02 -0.26623348799E+02 -0.44968084911E+01  0.29845751364E+02  0.47000000000E+01 0. -1.
         -5    1    3    3    0  502 -0.87817831718E+02 -0.20221601080E+02  0.19506801927E+03  0.21492907402E+03  0.47000000000E+01 0. -1.
          5    1    4    4  503    0  0.75373020438E+02  0.74302792458E+02 -0.23127917949E+02  0.10843886649E+03  0.47000000000E+01 0. -1.
         -5    1    4    4    0  503  0.62724441322E+00 -0.27457842579E+02 -0.60150282265E+02  0.66290821471E+02  0.47000000000E+01 0. -1.
<mgrwt>
<rscale>  0 0.15361249E+03</rscale>
<asrwt>0</asrwt>
<pdfrwt beam="2">  1        5 0.24016270E-01 0.15361422E+03</pdfrwt>
<pdfrwt beam="1">  1       -5 0.40522886E-01 0.15361422E+03</pdfrwt>
<totfact> 0.72113782E+01</totfact>
</mgrwt>
</event>
<event>
 8    1  0.1865596E-007  0.1402980E+03  0.7546771E-02  0.1212930E+00
         -5   -1    0    0    0  501 -0.00000000000E+00  0.00000000000E+00  0.29099868008E+02  0.29476979460E+02  0.47000000000E+01 0.  1.
          5   -1    0    0  501    0  0.00000000000E+00 -0.00000000000E+00 -0.67621380943E+03  0.67623014282E+03  0.47000000000E+01 0.  1.
         25    2    1    2    0    0  0.62903909080E+02  0.10011867821E+02 -0.29458807138E+03  0.32629077138E+03  0.12500558554E+03 0.  0.
         25    2    1    2    0    0 -0.62903909080E+02 -0.10011867821E+02 -0.35252587004E+03  0.37941635090E+03  0.12500055603E+03 0.  0.
          5    1    4    4  502    0  0.36235815568E+02 -0.17301930835E+02 -0.90123298391E+02  0.98775958884E+02  0.47000000000E+01 0.  1.
         -5    1    4    4    0  502 -0.99139724649E+02  0.72900630139E+01 -0.26240257165E+03  0.28064039201E+03  0.47000000000E+01 0.  1.
          5    1    3    3  503    0  0.22684718697E+02 -0.56613837690E+02 -0.10900466332E+03  0.12499531873E+03  0.47000000000E+01 0.  1.
         -5    1    3    3    0  503  0.40219190383E+02  0.66625705510E+02 -0.18558340806E+03  0.20129545265E+03  0.47000000000E+01 0.  1.
<mgrwt>
<rscale>  0 0.14029690E+03</rscale>
<asrwt>0</asrwt>
<pdfrwt beam="2">  1        5 0.10406315E+00 0.14029802E+03</pdfrwt>
<pdfrwt beam="1">  1       -5 0.45071683E-02 0.14029802E+03</pdfrwt>
<totfact> 0.16252841E+02</totfact>
</mgrwt>
</event>
<event>
 8    1  0.1865596E-007  0.2043990E+03  0.7546771E-02  0.1146080E+00
         -5   -1    0    0    0  501 -0.00000000000E+00  0.00000000000E+00  0.41086413207E+02  0.41354363134E+02  0.47000000000E+01 0.  1.
          5   -1    0    0  501    0  0.00000000000E+00 -0.00000000000E+00 -0.10219071401E+04  0.10219179483E+04  0.47000000000E+01 0.  1.
         25    2    1    2    0    0  0.12468364655E+03  0.10298965844E+03 -0.53929446418E+03  0.57672898586E+03  0.12499969027E+03 0.  0.
         25    2    1    2    0    0 -0.12468364655E+03 -0.10298965844E+03 -0.44152626270E+03  0.48654332553E+03  0.12500434194E+03 0.  0.
          5    1    3    3  502    0  0.51595210507E+02  0.45082360814E+02 -0.41829466741E+03  0.42389503864E+03  0.47000000000E+01 0.  1.
         -5    1    3    3    0  502  0.73088436045E+02  0.57907297626E+02 -0.12099979677E+03  0.15283394721E+03  0.47000000000E+01 0.  1.
          5    1    4    4  503    0 -0.48264189479E+02  0.24190666662E+02 -0.91574580752E+02  0.10640777312E+03  0.47000000000E+01 0. -1.
         -5    1    4    4    0  503 -0.76419457072E+02 -0.12718032510E+03 -0.34995168195E+03  0.38013555242E+03  0.47000000000E+01 0. -1.
<mgrwt>
<rscale>  0 0.20439833E+03</rscale>
<asrwt>0</asrwt>
<pdfrwt beam="2">  1        5 0.15723791E+00 0.20439904E+03</pdfrwt>
<pdfrwt beam="1">  1       -5 0.63424303E-02 0.20439904E+03</pdfrwt>
<totfact> 0.34676428E+01</totfact>
</mgrwt>
</event>
<event>
 8    1  0.1865596E-007  0.1359841E+03  0.7546771E-02  0.1218840E+00
         -5   -1    0    0    0  501 -0.00000000000E+00  0.00000000000E+00  0.49539043904E+03  0.49541273409E+03  0.47000000000E+01 0.  1.
          5   -1    0    0  501    0  0.00000000000E+00 -0.00000000000E+00 -0.37617931199E+02  0.37910404214E+02  0.47000000000E+01 0.  1.
         25    2    1    2    0    0 -0.12878226361E+02  0.51967141142E+02  0.25837650207E+03  0.29197185723E+03  0.12499086415E+03 0.  0.
         25    2    1    2    0    0  0.12878226361E+02 -0.51967141142E+02  0.19939600578E+03  0.24135128107E+03  0.12500096512E+03 0.  0.
          5    1    4    4  502    0 -0.39135462139E+02 -0.70326870514E+02  0.11714343082E+03  0.14220452347E+03  0.47000000000E+01 0. -1.
         -5    1    4    4    0  502  0.52013688500E+02  0.18359729372E+02  0.82252574960E+02  0.99146757594E+02  0.47000000000E+01 0. -1.
          5    1    3    3  503    0 -0.52760210545E+02  0.25107363863E+02  0.46970009541E+02  0.75115187100E+02  0.47000000000E+01 0.  1.
         -5    1    3    3    0  503  0.39881984184E+02  0.26859777279E+02  0.21140649253E+03  0.21685667013E+03  0.47000000000E+01 0.  1.
<mgrwt>
<rscale>  0 0.13598177E+03</rscale>
<asrwt>0</asrwt>
<pdfrwt beam="2">  1        5 0.58115873E-02 0.13598409E+03</pdfrwt>
<pdfrwt beam="1">  1       -5 0.76238122E-01 0.13598409E+03</pdfrwt>
<totfact> 0.22031370E+02</totfact>
</mgrwt>
</event>
<event>
 8    1  0.1865596E-007  0.1313752E+03  0.7546771E-02  0.1225433E+00
          5   -1    0    0  501    0  0.00000000000E+00  0.00000000000E+00  0.63426628199E+03  0.63428369557E+03  0.47000000000E+01 0.  1.
         -5   -1    0    0    0  501 -0.00000000000E+00 -0.00000000000E+00 -0.27940376401E+02  0.28332924901E+02  0.47000000000E+01 0.  1.
         25    2    1    2    0    0  0.38746881549E+02  0.11411419464E+02  0.24247329511E+03  0.27577663980E+03  0.12501165904E+03 0.  0.
         25    2    1    2    0    0 -0.38746881549E+02 -0.11411419464E+02  0.36385261048E+03  0.38683998067E+03  0.12499962867E+03 0.  0.
          5    1    3    3  502    0 -0.38916753335E+02  0.17549894545E+02  0.14316980867E+03  0.14947306314E+03  0.47000000000E+01 0.  1.
         -5    1    3    3    0  502  0.77663634884E+02 -0.61384750802E+01  0.99303486433E+02  0.12630357666E+03  0.47000000000E+01 0.  1.
          5    1    4    4  503    0 -0.34564251050E+02 -0.38142503312E+02  0.35386287366E+03  0.35761789855E+03  0.47000000000E+01 0. -1.
         -5    1    4    4    0  503 -0.41826304992E+01  0.26731083848E+02  0.99897368179E+01  0.29222082117E+02  0.47000000000E+01 0. -1.
<mgrwt>
<rscale>  0 0.13137239E+03</rscale>
<asrwt>0</asrwt>
<pdfrwt beam="1">  1        5 0.97610958E-01 0.13137525E+03</pdfrwt>
<pdfrwt beam="2">  1       -5 0.43300552E-02 0.13137525E+03</pdfrwt>
<totfact> 0.19862686E+02</totfact>
</mgrwt>
</event>
<event>
 8    1  0.1865596E-007  0.1261136E+03  0.7546771E-02  0.1233343E+00
          5   -1    0    0  501    0  0.00000000000E+00  0.00000000000E+00  0.17818749271E+03  0.17824946720E+03  0.47000000000E+01 0. -1.
         -5   -1    0    0    0  501 -0.00000000000E+00 -0.00000000000E+00 -0.12755885258E+03  0.12764541070E+03  0.47000000000E+01 0. -1.
         25    2    1    2    0    0 -0.89152766684E+01  0.14138182959E+02 -0.58600961416E+02  0.13905440744E+03  0.12499074035E+03 0.  0.
         25    2    1    2    0    0  0.89152766684E+01 -0.14138182959E+02  0.10922960154E+03  0.16684047046E+03  0.12500106542E+03 0.  0.
          5    1    4    4  502    0  0.80497689372E+01 -0.30850096370E+02  0.13330546923E+03  0.13714578139E+03  0.47000000000E+01 0.  1.
         -5    1    4    4    0  502  0.86550773123E+00  0.16711913412E+02 -0.24075867695E+02  0.29694689067E+02  0.47000000000E+01 0.  1.
          5    1    3    3  503    0 -0.71768326587E+01  0.52896918562E+02 -0.78618432405E+02  0.95144830832E+02  0.47000000000E+01 0.  1.
         -5    1    3    3    0  503 -0.17384440097E+01 -0.38758735603E+02  0.20017470989E+02  0.43909576608E+02  0.47000000000E+01 0.  1.
<mgrwt>
<rscale>  0 0.12611103E+03</rscale>
<asrwt>0</asrwt>
<pdfrwt beam="1">  1        5 0.27424886E-01 0.12611359E+03</pdfrwt>
<pdfrwt beam="2">  1       -5 0.19635864E-01 0.12611359E+03</pdfrwt>
<totfact> 0.21496550E+02</totfact>
</mgrwt>
</event>
<event>
 8    1  0.1865596E-007  0.1520192E+03  0.7546771E-02  0.1198023E+00
          5   -1    0    0  501    0  0.00000000000E+00  0.00000000000E+00  0.17953305276E+02  0.18558318090E+02  0.47000000000E+01 0. -1.
         -5   -1    0    0    0  501 -0.00000000000E+00 -0.00000000000E+00 -0.12668904535E+04  0.12668991717E+04  0.47000000000E+01 0. -1.
         25    2    1    2    0    0 -0.84707516375E+02  0.17271867288E+02 -0.59966984212E+03  0.61863076751E+03  0.12500570475E+03 0.  0.
         25    2    1    2    0    0  0.84707516375E+02 -0.17271867288E+02 -0.64926730611E+03  0.66682672226E+03  0.12504464007E+03 0.  0.
          5    1    4    4  502    0  0.10728124335E+03 -0.11565177477E+02 -0.61899821715E+03  0.62835014231E+03  0.47000000000E+01 0. -1.
         -5    1    4    4    0  502 -0.22573726980E+02 -0.57066898107E+01 -0.30269088959E+02  0.38476579952E+02  0.47000000000E+01 0. -1.
          5    1    3    3  503    0 -0.85481717673E+02 -0.39822763267E+02 -0.39096615999E+03  0.40220592336E+03  0.47000000000E+01 0.  1.
         -5    1    3    3    0  503  0.77420129795E+00  0.57094630555E+02 -0.20870368214E+03  0.21642484415E+03  0.47000000000E+01 0.  1.
<mgrwt>
<rscale>  0 0.15201121E+03</rscale>
<asrwt>0</asrwt>
<pdfrwt beam="1">  1        5 0.28092580E-02 0.15201922E+03</pdfrwt>
<pdfrwt beam="2">  1       -5 0.19495336E+00 0.15201922E+03</pdfrwt>
<totfact> 0.65636246E+01</totfact>
</mgrwt>
</event>
<event>
 8    1  0.1865596E-007  0.1257902E+03  0.7546771E-02  0.1233841E+00
         -5   -1    0    0    0  501 -0.00000000000E+00  0.00000000000E+00  0.89308962302E+01  0.10092121059E+02  0.47000000000E+01 0. -1.
          5   -1    0    0  501    0  0.00000000000E+00 -0.00000000000E+00 -0.16768735709E+04  0.16768801575E+04  0.47000000000E+01 0. -1.
         25    2    1    2    0    0  0.52608111838E+01  0.13017036309E+02 -0.75557886565E+03  0.76597819386E+03  0.12500420748E+03 0.  0.
         25    2    1    2    0    0 -0.52608111838E+01 -0.13017036309E+02 -0.91236380898E+03  0.92099408471E+03  0.12500105903E+03 0.  0.
          5    1    4    4  502    0 -0.24699189171E+02 -0.65109717334E+02 -0.48158681726E+03  0.48661820537E+03  0.47000000000E+01 0. -1.
         -5    1    4    4    0  502  0.19438377988E+02  0.52092681025E+02 -0.43077699172E+03  0.43437587934E+03  0.47000000000E+01 0. -1.
          5    1    3    3  503    0 -0.28613960703E+02  0.20842933575E+02 -0.62277382817E+02  0.71789616503E+02  0.47000000000E+01 0. -1.
         -5    1    3    3    0  503  0.33874771887E+02 -0.78258972661E+01 -0.69330148283E+03  0.69418857736E+03  0.47000000000E+01 0. -1.
<mgrwt>
<rscale>  0 0.12578941E+03</rscale>
<asrwt>0</asrwt>
<pdfrwt beam="2">  1        5 0.25807015E+00 0.12579019E+03</pdfrwt>
<pdfrwt beam="1">  1       -5 0.14638170E-02 0.12579019E+03</pdfrwt>
<totfact> 0.68069752E+01</totfact>
</mgrwt>
</event>
<event>
 8    1  0.1865596E-007  0.1637436E+03  0.7546771E-02  0.1184535E+00
          5   -1    0    0  501    0  0.00000000000E+00  0.00000000000E+00  0.80309573573E+03  0.80310948864E+03  0.47000000000E+01 0. -1.
         -5   -1    0    0    0  501 -0.00000000000E+00 -0.00000000000E+00 -0.34190110874E+02  0.34511645593E+02  0.47000000000E+01 0. -1.
         25    2    1    2    0    0 -0.79052363833E+02 -0.70260402004E+02  0.45518090920E+03  0.48373533945E+03  0.12499767284E+03 0.  0.
         25    2    1    2    0    0  0.79052363833E+02  0.70260402004E+02  0.31372471565E+03  0.35388579478E+03  0.12500463279E+03 0.  0.
          5    1    3    3  502    0 -0.10832946474E+02 -0.16290976839E+02  0.33338974526E+03  0.33399634863E+03  0.47000000000E+01 0.  1.
         -5    1    3    3    0  502 -0.68219417359E+02 -0.53969425166E+02  0.12179116395E+03  0.14973899082E+03  0.47000000000E+01 0.  1.
          5    1    4    4  503    0  0.32549679984E+02  0.96697935589E+02  0.25291596333E+03  0.27276097031E+03  0.47000000000E+01 0.  1.
         -5    1    4    4    0  503  0.46502683849E+02 -0.26437533585E+02  0.60808752315E+02  0.81124824470E+02  0.47000000000E+01 0.  1.
<mgrwt>
<rscale>  0 0.16374225E+03</rscale>
<asrwt>0</asrwt>
<pdfrwt beam="1">  1        5 0.12357897E+00 0.16374358E+03</pdfrwt>
<pdfrwt beam="2">  1       -5 0.52858088E-02 0.16374358E+03</pdfrwt>
<totfact> 0.84917441E+01</totfact>
</mgrwt>
</event>
<event>
 8    1  0.1865596E-007  0.1386870E+03  0.7546771E-02  0.1215108E+00
          5   -1    0    0  501    0  0.00000000000E+00  0.00000000000E+00  0.85328099741E+02  0.85457443241E+02  0.47000000000E+01 0.  1.
         -5   -1    0    0    0  501 -0.00000000000E+00 -0.00000000000E+00 -0.22569555873E+03  0.22574449103E+03  0.47000000000E+01 0.  1.
         25    2    1    2    0    0  0.60038678592E+02 -0.19502743170E+01 -0.78291436333E+02  0.15925616480E+03  0.12499812209E+03 0.  0.
         25    2    1    2    0    0 -0.60038678592E+02  0.19502743170E+01 -0.62076022653E+02  0.15194576947E+03  0.12500255107E+03 0.  0.
          5    1    4    4  502    0 -0.50860754133E+02 -0.22499074883E+02 -0.94681410577E+02  0.10990761662E+03  0.47000000000E+01 0. -1.
         -5    1    4    4    0  502 -0.91779244588E+01  0.24449349200E+02  0.32605387925E+02  0.42038152854E+02  0.47000000000E+01 0. -1.
          5    1    3    3  503    0 -0.29326750034E+02  0.23226384086E+02  0.20273801377E-01  0.37704291483E+02  0.47000000000E+01 0. -1.
         -5    1    3    3    0  503  0.89365428626E+02 -0.25176658403E+02 -0.78311710134E+02  0.12155187331E+03  0.47000000000E+01 0. -1.
<mgrwt>
<rscale>  0 0.13868600E+03</rscale>
<asrwt>0</asrwt>
<pdfrwt beam="1">  1        5 0.13141114E-01 0.13868700E+03</pdfrwt>
<pdfrwt beam="2">  1       -5 0.34736107E-01 0.13868700E+03</pdfrwt>
<totfact> 0.29013650E+02</totfact>
</mgrwt>
</event>
<event>
 8    1  0.1865596E-007  0.1289405E+03  0.7546771E-02  0.1229045E+00
          5   -1    0    0  501    0  0.00000000000E+00  0.00000000000E+00  0.17062406289E+03  0.17068878357E+03  0.47000000000E+01 0. -1.
         -5   -1    0    0    0  501 -0.00000000000E+00 -0.00000000000E+00 -0.99766218740E+02  0.99876866199E+02  0.47000000000E+01 0. -1.
         25    2    1    2    0    0 -0.28866223900E+02 -0.12781165510E+02  0.14111166313E+02  0.12971035410E+03  0.12501613445E+03 0.  0.
         25    2    1    2    0    0  0.28866223900E+02  0.12781165510E+02  0.56746677840E+02  0.14085529567E+03  0.12499364703E+03 0.  0.
          5    1    4    4  502    0  0.70059733495E+02  0.27921332608E+02  0.94357012846E+01  0.76151753300E+02  0.47000000000E+01 0. -1.
         -5    1    4    4    0  502 -0.41193509595E+02 -0.15140167098E+02  0.47310976555E+02  0.64703542369E+02  0.47000000000E+01 0. -1.
          5    1    3    3  503    0 -0.49464417074E+02 -0.15829664074E+02  0.59762052567E+02  0.79315192417E+02  0.47000000000E+01 0.  1.
         -5    1    3    3    0  503  0.20598193174E+02  0.30484985647E+01 -0.45650886254E+02  0.50395161686E+02  0.47000000000E+01 0.  1.
<mgrwt>
<rscale>  0 0.12893504E+03</rscale>
<asrwt>0</asrwt>
<pdfrwt beam="1">  1        5 0.26263345E-01 0.12894049E+03</pdfrwt>
<pdfrwt beam="2">  1       -5 0.15362139E-01 0.12894049E+03</pdfrwt>
<totfact> 0.36964912E+02</totfact>
</mgrwt>
</event>
<event>
 8    1  0.1865596E-007  0.1291408E+03  0.7546771E-02  0.1228766E+00
         -5   -1    0    0    0  501 -0.00000000000E+00  0.00000000000E+00  0.11883522175E+03  0.11892812926E+03  0.47000000000E+01 0.  1.
          5   -1    0    0  501    0  0.00000000000E+00 -0.00000000000E+00 -0.14507060421E+03  0.14514671958E+03  0.47000000000E+01 0.  1.
         25    2    1    2    0    0  0.32148590418E+02 -0.19356460989E+01  0.11387073957E+02  0.12964185549E+03  0.12506025207E+03 0.  0.
         25    2    1    2    0    0 -0.32148590418E+02  0.19356460989E+01 -0.37622456408E+02  0.13443299335E+03  0.12497800560E+03 0.  0.
          5    1    3    3  502    0  0.70406099147E+02 -0.29548786808E+02 -0.10859789132E+02  0.77266905069E+02  0.47000000000E+01 0.  1.
         -5    1    3    3    0  502 -0.38257508729E+02  0.27613140709E+02  0.22246863089E+02  0.52374950417E+02  0.47000000000E+01 0.  1.
          5    1    4    4  503    0  0.12805035578E+02 -0.54586891209E+02 -0.21871190952E+02  0.60366684700E+02  0.47000000000E+01 0.  1.
         -5    1    4    4    0  503 -0.44953625996E+02  0.56522537308E+02 -0.15751265457E+02  0.74066308652E+02  0.47000000000E+01 0.  1.
<mgrwt>
<rscale>  0 0.12912088E+03</rscale>
<asrwt>0</asrwt>
<pdfrwt beam="2">  1        5 0.22331556E-01 0.12914080E+03</pdfrwt>
<pdfrwt beam="1">  1       -5 0.18295344E-01 0.12914080E+03</pdfrwt>
<totfact> 0.36604873E+02</totfact>
</mgrwt>
</event>
<event>
 8    1  0.1865596E-007  0.1516753E+03  0.7546771E-02  0.1198431E+00
         -5   -1    0    0    0  501 -0.00000000000E+00  0.00000000000E+00  0.10859465607E+04  0.10859567315E+04  0.47000000000E+01 0. -1.
          5   -1    0    0  501    0  0.00000000000E+00 -0.00000000000E+00 -0.21523409290E+02  0.22030595712E+02  0.47000000000E+01 0. -1.
         25    2    1    2    0    0 -0.83865809251E+02 -0.18642859065E+02  0.62442318538E+03  0.64258050721E+03  0.12499745456E+03 0.  0.
         25    2    1    2    0    0  0.83865809251E+02  0.18642859065E+02  0.43999996607E+03  0.46540682005E+03  0.12499003100E+03 0.  0.
          5    1    3    3  502    0 -0.62066747369E+02  0.34002231527E+02  0.50744790062E+03  0.51238061509E+03  0.47000000000E+01 0. -1.
         -5    1    3    3    0  502 -0.21799061882E+02 -0.52645090592E+02  0.11697528476E+03  0.13019989212E+03  0.47000000000E+01 0. -1.
          5    1    4    4  503    0  0.89139392676E+02 -0.31156856015E+01  0.15052793448E+03  0.17503224812E+03  0.47000000000E+01 0.  1.
         -5    1    4    4    0  503 -0.52735834254E+01  0.21758544667E+02  0.28947203159E+03  0.29037457193E+03  0.47000000000E+01 0.  1.
<mgrwt>
<rscale>  0 0.15167376E+03</rscale>
<asrwt>0</asrwt>
<pdfrwt beam="2">  1        5 0.33510901E-02 0.15167529E+03</pdfrwt>
<pdfrwt beam="1">  1       -5 0.16710851E+00 0.15167529E+03</pdfrwt>
<totfact> 0.77802510E+01</totfact>
</mgrwt>
</event>
<event>
 8    1  0.1865596E-007  0.1491646E+03  0.7546771E-02  0.1201505E+00
          5   -1    0    0  501    0  0.00000000000E+00  0.00000000000E+00  0.41665169880E+02  0.41929421426E+02  0.47000000000E+01 0.  1.
         -5   -1    0    0    0  501 -0.00000000000E+00 -0.00000000000E+00 -0.57796264560E+03  0.57798175551E+03  0.47000000000E+01 0.  1.
         25    2    1    2    0    0  0.54512944495E+02  0.60439229437E+02 -0.35549642009E+03  0.38552273867E+03  0.12500206304E+03 0.  0.
         25    2    1    2    0    0 -0.54512944495E+02 -0.60439229437E+02 -0.18080105562E+03  0.23438843826E+03  0.12499742679E+03 0.  0.
          5    1    3    3  502    0 -0.25316728881E+02 -0.71372897714E+01 -0.18145867599E+02  0.32299228744E+02  0.47000000000E+01 0. -1.
         -5    1    3    3    0  502  0.79829673376E+02  0.67576519209E+02 -0.33735055249E+03  0.35322350993E+03  0.47000000000E+01 0. -1.
          5    1    4    4  503    0 -0.85214152917E+02 -0.40192814452E+02 -0.17217292943E+03  0.19632249443E+03  0.47000000000E+01 0. -1.
         -5    1    4    4    0  503  0.30701208422E+02 -0.20246414985E+02 -0.86281261953E+01  0.38065943834E+02  0.47000000000E+01 0. -1.
<mgrwt>
<rscale>  0 0.14916363E+03</rscale>
<asrwt>0</asrwt>
<pdfrwt beam="1">  1        5 0.64318236E-02 0.14916460E+03</pdfrwt>
<pdfrwt beam="2">  1       -5 0.88939121E-01 0.14916460E+03</pdfrwt>
<totfact> 0.13370197E+02</totfact>
</mgrwt>
</event>
<event>
 8    1  0.1865596E-007  0.1323529E+03  0.7546771E-02  0.1224007E+00
         -5   -1    0    0    0  501 -0.00000000000E+00  0.00000000000E+00  0.17722180977E+03  0.17728412184E+03  0.47000000000E+01 0. -1.
          5   -1    0    0  501    0  0.00000000000E+00 -0.00000000000E+00 -0.14637043074E+03  0.14644587053E+03  0.47000000000E+01 0.  1.
         25    2    1    2    0    0 -0.24050592858E+02 -0.36238009670E+02  0.10774658441E+03  0.17066520989E+03  0.12500265219E+03 0.  0.
         25    2    1    2    0    0  0.24050592858E+02  0.36238009670E+02 -0.76895205381E+02  0.15306478248E+03  0.12499732262E+03 0.  0.
          5    1    4    4  502    0 -0.47942000345E+02  0.55228593887E+01 -0.89419736094E+01  0.49305032856E+02  0.47000000000E+01 0. -1.
         -5    1    4    4    0  502  0.71992593204E+02  0.30715150281E+02 -0.67953231771E+02  0.10375974962E+03  0.47000000000E+01 0. -1.
          5    1    3    3  503    0 -0.21063450649E+02  0.41707006793E+02  0.14805973903E+02  0.49238706645E+02  0.47000000000E+01 0. -1.
         -5    1    3    3    0  503 -0.29871422091E+01 -0.77945016463E+02  0.92940610506E+02  0.12142650325E+03  0.47000000000E+01 0. -1.
<mgrwt>
<rscale>  0 0.13235163E+03</rscale>
<asrwt>0</asrwt>
<pdfrwt beam="2">  1        5 0.22529124E-01 0.13235289E+03</pdfrwt>
<pdfrwt beam="1">  1       -5 0.27275490E-01 0.13235289E+03</pdfrwt>
<totfact> 0.17081049E+02</totfact>
</mgrwt>
</event>
<event>
 8    1  0.1865596E-007  0.1409678E+03  0.7546771E-02  0.1212033E+00
          5   -1    0    0  501    0  0.00000000000E+00  0.00000000000E+00  0.25350846468E+02  0.25782851213E+02  0.47000000000E+01 0.  1.
         -5   -1    0    0    0  501 -0.00000000000E+00 -0.00000000000E+00 -0.80213448868E+03  0.80214825808E+03  0.47000000000E+01 0.  1.
         25    2    1    2    0    0  0.20768106563E+02  0.61768866558E+02 -0.46193663054E+03  0.48296724993E+03  0.12500082698E+03 0.  0.
         25    2    1    2    0    0 -0.20768106563E+02 -0.61768866558E+02 -0.31484701167E+03  0.34496385936E+03  0.12499886550E+03 0.  0.
          5    1    4    4  502    0  0.11478678722E+02 -0.46973293259E+02 -0.30358039270E+03  0.30744332027E+03  0.47000000000E+01 0.  1.
         -5    1    4    4    0  502 -0.32246785286E+02 -0.14795573299E+02 -0.11266618974E+02  0.37520539090E+02  0.47000000000E+01 0.  1.
          5    1    3    3  503    0  0.22804556398E+02  0.97965958412E+02 -0.28424035538E+03  0.30154940960E+03  0.47000000000E+01 0. -1.
         -5    1    3    3    0  503 -0.20364498343E+01 -0.36197091854E+02 -0.17769627516E+03  0.18141784034E+03  0.47000000000E+01 0. -1.
<mgrwt>
<rscale>  0 0.14096734E+03</rscale>
<asrwt>0</asrwt>
<pdfrwt beam="1">  1        5 0.39344212E-02 0.14096778E+03</pdfrwt>
<pdfrwt beam="2">  1       -5 0.12343958E+00 0.14096778E+03</pdfrwt>
<totfact> 0.13262023E+02</totfact>
</mgrwt>
</event>
<event>
 8    1  0.1865596E-007  0.1250533E+03  0.7546771E-02  0.1234989E+00
         -5   -1    0    0    0  501 -0.00000000000E+00  0.00000000000E+00  0.22499538994E+03  0.22504447448E+03  0.47000000000E+01 0.  1.
          5   -1    0    0  501    0  0.00000000000E+00 -0.00000000000E+00 -0.69949952542E+02  0.70107673336E+02  0.47000000000E+01 0.  1.
         25    2    1    2    0    0  0.69774890612E+00 -0.33184113813E+01  0.90992478986E+02  0.15464906368E+03  0.12500081183E+03 0.  0.
         25    2    1    2    0    0 -0.69774890612E+00  0.33184113813E+01  0.64052958409E+02  0.14050308413E+03  0.12500734563E+03 0.  0.
          5    1    3    3  502    0 -0.47462760458E+02  0.27179621073E+02  0.10479876694E+02  0.55887057961E+02  0.47000000000E+01 0. -1.
         -5    1    3    3    0  502  0.48160509364E+02 -0.30498032454E+02  0.80512602292E+02  0.98762005719E+02  0.47000000000E+01 0. -1.
          5    1    4    4  503    0 -0.56455449028E+01  0.62226370800E+02  0.48386927763E+02  0.79166774460E+02  0.47000000000E+01 0.  1.
         -5    1    4    4    0  503  0.49477959967E+01 -0.58907959419E+02  0.15666030646E+02  0.61336309673E+02  0.47000000000E+01 0.  1.
<mgrwt>
<rscale>  0 0.12505170E+03</rscale>
<asrwt>0</asrwt>
<pdfrwt beam="2">  1        5 0.10777439E-01 0.12505333E+03</pdfrwt>
<pdfrwt beam="1">  1       -5 0.34630584E-01 0.12505333E+03</pdfrwt>
<totfact> 0.39956210E+02</totfact>
</mgrwt>
</event>
<event>
 8    1  0.1865596E-007  0.1250120E+03  0.7546771E-02  0.1235055E+00
          5   -1    0    0  501    0  0.00000000000E+00  0.00000000000E+00  0.18020589325E+03  0.18026717384E+03  0.47000000000E+01 0.  1.
         -5   -1    0    0    0  501 -0.00000000000E+00 -0.00000000000E+00 -0.11516604606E+03  0.11526191117E+03  0.47000000000E+01 0.  1.
         25    2    1    2    0    0  0.16472006524E+01 -0.72022700662E-01 -0.41047425684E+02  0.13157848590E+03  0.12500115336E+03 0.  0.
         25    2    1    2    0    0 -0.16472006524E+01  0.72022700662E-01  0.10608727287E+03  0.16395059910E+03  0.12499028371E+03 0.  0.
          5    1    3    3  502    0  0.14565014004E+02 -0.10712673127E+02  0.42403496616E+02  0.46336244169E+02  0.47000000000E+01 0.  1.
         -5    1    3    3    0  502 -0.12917813352E+02  0.10640650427E+02 -0.83450922300E+02  0.85242241735E+02  0.47000000000E+01 0.  1.
          5    1    4    4  503    0  0.51589459817E+02  0.29052388079E+02  0.74996251768E+02  0.95666302304E+02  0.47000000000E+01 0. -1.
         -5    1    4    4    0  503 -0.53236660469E+02 -0.28980365379E+02  0.31091021105E+02  0.68284296794E+02  0.47000000000E+01 0. -1.
<mgrwt>
<rscale>  0 0.12500931E+03</rscale>
<asrwt>0</asrwt>
<pdfrwt beam="1">  1        5 0.27736072E-01 0.12501203E+03</pdfrwt>
<pdfrwt beam="2">  1       -5 0.17729941E-01 0.12501203E+03</pdfrwt>
<totfact> 0.25320419E+02</totfact>
</mgrwt>
</event>
<event>
 8    1  0.1865596E-007  0.1309635E+03  0.7546771E-02  0.1226037E+00
          5   -1    0    0  501    0  0.00000000000E+00  0.00000000000E+00  0.29341686975E+02  0.29715729750E+02  0.47000000000E+01 0. -1.
         -5   -1    0    0    0  501 -0.00000000000E+00 -0.00000000000E+00 -0.65649533883E+03  0.65651216280E+03  0.47000000000E+01 0. -1.
         25    2    1    2    0    0  0.32107884943E+02 -0.22263201662E+02 -0.43033902589E+03  0.44982266701E+03  0.12498875204E+03 0.  0.
         25    2    1    2    0    0 -0.32107884943E+02  0.22263201662E+02 -0.19681462597E+03  0.23640522554E+03  0.12499946897E+03 0.  0.
          5    1    4    4  502    0  0.42223775310E+02  0.19268976481E+02 -0.12279145627E+03  0.13135437712E+03  0.47000000000E+01 0.  1.
         -5    1    4    4    0  502 -0.74331660253E+02  0.29942251815E+01 -0.74023169696E+02  0.10505084841E+03  0.47000000000E+01 0.  1.
          5    1    3    3  503    0  0.31239274839E+02 -0.12133365347E+02 -0.43597322306E+03  0.43728463507E+03  0.47000000000E+01 0.  1.
         -5    1    3    3    0  503  0.86861010374E+00 -0.10129836315E+02  0.56341971695E+01  0.12538031944E+02  0.47000000000E+01 0.  1.
<mgrwt>
<rscale>  0 0.13096092E+03</rscale>
<asrwt>0</asrwt>
<pdfrwt beam="1">  1        5 0.45441729E-02 0.13096348E+03</pdfrwt>
<pdfrwt beam="2">  1       -5 0.10102934E+00 0.13096348E+03</pdfrwt>
<totfact> 0.16855635E+02</totfact>
</mgrwt>
</event>
<event>
 8    1  0.1865596E-007  0.1593781E+03  0.7546771E-02  0.1189404E+00
          5   -1    0    0  501    0  0.00000000000E+00  0.00000000000E+00  0.20087340672E+03  0.20092838408E+03  0.47000000000E+01 0.  1.
         -5   -1    0    0    0  501 -0.00000000000E+00 -0.00000000000E+00 -0.16489077486E+03  0.16495774500E+03  0.47000000000E+01 0.  1.
         25    2    1    2    0    0 -0.97779418843E+02 -0.14645283206E+02 -0.70442874466E+02  0.17424121694E+03  0.12499001579E+03 0.  0.
         25    2    1    2    0    0  0.97779418843E+02  0.14645283206E+02  0.10642550633E+03  0.19164491214E+03  0.12500433945E+03 0.  0.
          5    1    3    3  502    0 -0.61796963539E+02  0.45500991021E+02 -0.31266630740E+01  0.76948495167E+02  0.47000000000E+01 0.  1.
         -5    1    3    3    0  502 -0.35982455304E+02 -0.60146274226E+02 -0.67316211392E+02  0.97292721769E+02  0.47000000000E+01 0.  1.
          5    1    4    4  503    0 -0.17449735233E+02 -0.30519253439E+02  0.21595434022E+02  0.41525544678E+02  0.47000000000E+01 0. -1.
         -5    1    4    4    0  503  0.11522915408E+03  0.45164536645E+02  0.84830072304E+02  0.15011936746E+03  0.47000000000E+01 0. -1.
<mgrwt>
<rscale>  0 0.15937531E+03</rscale>
<asrwt>0</asrwt>
<pdfrwt beam="1">  1        5 0.30912981E-01 0.15937812E+03</pdfrwt>
<pdfrwt beam="2">  1       -5 0.25377192E-01 0.15937812E+03</pdfrwt>
<totfact> 0.11318982E+02</totfact>
</mgrwt>
</event>
<event>
 8    1  0.1865596E-007  0.1801667E+03  0.7546771E-02  0.1167644E+00
         -5   -1    0    0    0  501 -0.00000000000E+00  0.00000000000E+00  0.84019410016E+02  0.84150765056E+02  0.47000000000E+01 0. -1.
          5   -1    0    0  501    0  0.00000000000E+00 -0.00000000000E+00 -0.39963848226E+03  0.39966611878E+03  0.47000000000E+01 0. -1.
         25    2    1    2    0    0 -0.22727179150E+02  0.12773630532E+03 -0.20269377826E+03  0.27118539197E+03  0.12499464270E+03 0.  0.
         25    2    1    2    0    0  0.22727179150E+02 -0.12773630532E+03 -0.11292529398E+03  0.21263149187E+03  0.12500776353E+03 0.  0.
          5    1    4    4  502    0  0.23713034267E+02  0.89962276034E+01 -0.61111497892E+02  0.66332083337E+02  0.47000000000E+01 0. -1.
         -5    1    4    4    0  502 -0.98585511724E+00 -0.13673253293E+03 -0.51813796090E+02  0.14629940853E+03  0.47000000000E+01 0. -1.
          5    1    3    3  503    0 -0.58922611023E+02  0.65880498288E+02 -0.17127252142E+03  0.19279128802E+03  0.47000000000E+01 0.  1.
         -5    1    3    3    0  503  0.36195431873E+02  0.61855807034E+02 -0.31421256841E+02  0.78394103948E+02  0.47000000000E+01 0.  1.
<mgrwt>
<rscale>  0 0.18016439E+03</rscale>
<asrwt>0</asrwt>
<pdfrwt beam="2">  1        5 0.61495073E-01 0.18016667E+03</pdfrwt>
<pdfrwt beam="1">  1       -5 0.12938293E-01 0.18016667E+03</pdfrwt>
<totfact> 0.97616398E+01</totfact>
</mgrwt>
</event>
<event>
 8    1  0.1865596E-007  0.1274155E+03  0.7546771E-02  0.1231343E+00
         -5   -1    0    0    0  501 -0.00000000000E+00  0.00000000000E+00  0.49074227552E+01  0.67950568871E+01  0.47000000000E+01 0.  1.
          5   -1    0    0  501    0  0.00000000000E+00 -0.00000000000E+00 -0.27726690524E+04  0.27726730359E+04  0.47000000000E+01 0.  1.
         25    2    1    2    0    0  0.74519633879E+01 -0.23509513032E+02 -0.13773519313E+04  0.13832324998E+04  0.12500230807E+03 0.  0.
         25    2    1    2    0    0 -0.74519633879E+01  0.23509513032E+02 -0.13904096983E+04  0.13962355929E+04  0.12500589121E+03 0.  0.
          5    1    4    4  502    0  0.27015296612E+01 -0.10221966383E+02 -0.97842912120E+01  0.15152861570E+02  0.47000000000E+01 0.  1.
         -5    1    4    4    0  502 -0.10153493049E+02  0.33731479415E+02 -0.13806254071E+04  0.13810827314E+04  0.47000000000E+01 0.  1.
          5    1    3    3  503    0  0.46448646097E+02 -0.22477801184E+02 -0.25593673923E+03  0.26112914958E+03  0.47000000000E+01 0. -1.
         -5    1    3    3    0  503 -0.38996682709E+02 -0.10317118478E+01 -0.11214151921E+04  0.11221033503E+04  0.47000000000E+01 0. -1.
<mgrwt>
<rscale>  0 0.12741459E+03</rscale>
<asrwt>0</asrwt>
<pdfrwt beam="2">  1        5 0.42670893E+00 0.12741547E+03</pdfrwt>
<pdfrwt beam="1">  1       -5 0.90049938E-03 0.12741547E+03</pdfrwt>
<totfact> 0.11194536E+01</totfact>
</mgrwt>
</event>
<event>
 8    1  0.1865596E-007  0.1288644E+03  0.7546771E-02  0.1229151E+00
         -5   -1    0    0    0  501 -0.00000000000E+00  0.00000000000E+00  0.37208786715E+03  0.37211754982E+03  0.47000000000E+01 0. -1.
          5   -1    0    0  501    0  0.00000000000E+00 -0.00000000000E+00 -0.44476318191E+02  0.44723963149E+02  0.47000000000E+01 0. -1.
         25    2    1    2    0    0 -0.11568680746E+02  0.29094833460E+02  0.16554566392E+03  0.20978891835E+03  0.12500271882E+03 0.  0.
         25    2    1    2    0    0  0.11568680746E+02 -0.29094833460E+02  0.16206588504E+03  0.20705259462E+03  0.12500032854E+03 0.  0.
          5    1    4    4  502    0  0.68796606837E+01 -0.76326024924E+02  0.12479144284E+03  0.14651957555E+03  0.47000000000E+01 0.  1.
         -5    1    4    4    0  502  0.46890200621E+01  0.47231191464E+02  0.37274442201E+02  0.60533019069E+02  0.47000000000E+01 0.  1.
          5    1    3    3  503    0 -0.40350099811E+01  0.78419642340E+02  0.97431803324E+02  0.12522367152E+03  0.47000000000E+01 0. -1.
         -5    1    3    3    0  503 -0.75336707646E+01 -0.49324808880E+02  0.68113860594E+02  0.84565246829E+02  0.47000000000E+01 0. -1.
<mgrwt>
<rscale>  0 0.12886378E+03</rscale>
<asrwt>0</asrwt>
<pdfrwt beam="2">  1        5 0.68638432E-02 0.12886436E+03</pdfrwt>
<pdfrwt beam="1">  1       -5 0.57265622E-01 0.12886436E+03</pdfrwt>
<totfact> 0.30892702E+02</totfact>
</mgrwt>
</event>
<event>
 8    1  0.1865596E-007  0.1270128E+03  0.7546771E-02  0.1231959E+00
          5   -1    0    0  501    0  0.00000000000E+00  0.00000000000E+00  0.28272367402E+02  0.28660369127E+02  0.47000000000E+01 0. -1.
         -5   -1    0    0    0  501 -0.00000000000E+00 -0.00000000000E+00 -0.72478247946E+03  0.72479771835E+03  0.47000000000E+01 0. -1.
         25    2    1    2    0    0  0.13211503418E+02  0.18235572635E+02 -0.52436871566E+03  0.53953073976E+03  0.12499515693E+03 0.  0.
         25    2    1    2    0    0 -0.13211503418E+02 -0.18235572635E+02 -0.17214139640E+03  0.21392734772E+03  0.12500067926E+03 0.  0.
          5    1    3    3  502    0  0.56079514571E+02 -0.11222217911E+02 -0.40753971998E+03  0.41155991482E+03  0.47000000000E+01 0.  1.
         -5    1    3    3    0  502 -0.42868011153E+02  0.29457790547E+02 -0.11682899568E+03  0.12797082494E+03  0.47000000000E+01 0.  1.
          5    1    4    4  503    0  0.52666332090E+01 -0.40588952362E+02 -0.17906419066E+03  0.18374241441E+03  0.47000000000E+01 0. -1.
         -5    1    4    4    0  503 -0.18478136627E+02  0.22353379726E+02  0.69227942550E+01  0.30184933306E+02  0.47000000000E+01 0. -1.
<mgrwt>
<rscale>  0 0.12701143E+03</rscale>
<asrwt>0</asrwt>
<pdfrwt beam="1">  1        5 0.43806140E-02 0.12701279E+03</pdfrwt>
<pdfrwt beam="2">  1       -5 0.11153600E+00 0.12701279E+03</pdfrwt>
<totfact> 0.13880045E+02</totfact>
</mgrwt>
</event>
<event>
 8    1  0.1865596E-007  0.1537178E+03  0.7546771E-02  0.1195978E+00
         -5   -1    0    0    0  501 -0.00000000000E+00  0.00000000000E+00  0.13393419398E+04  0.13393501864E+04  0.47000000000E+01 0. -1.
          5   -1    0    0  501    0  0.00000000000E+00 -0.00000000000E+00 -0.25255147870E+02  0.25688762016E+02  0.47000000000E+01 0. -1.
         25    2    1    2    0    0  0.51613761523E+02 -0.73075552417E+02  0.10355931940E+04  0.10469395572E+04  0.12500062431E+03 0.  0.
         25    2    1    2    0    0 -0.51613761523E+02  0.73075552417E+02  0.27849359790E+03  0.31809939122E+03  0.12499808752E+03 0.  0.
          5    1    4    4  502    0 -0.42689084286E+02  0.41036330169E+02  0.28543885215E+02  0.65902820077E+02  0.47000000000E+01 0.  1.
         -5    1    4    4    0  502 -0.89246772370E+01  0.32039222248E+02  0.24994971269E+03  0.25219657115E+03  0.47000000000E+01 0.  1.
          5    1    3    3  503    0  0.47696466186E+02  0.25130240715E+02  0.43246222018E+03  0.43583499604E+03  0.47000000000E+01 0. -1.
         -5    1    3    3    0  503  0.39172953362E+01 -0.98205793132E+02  0.60313097386E+03  0.61110456113E+03  0.47000000000E+01 0. -1.
<mgrwt>
<rscale>  0 0.15371732E+03</rscale>
<asrwt>0</asrwt>
<pdfrwt beam="2">  1        5 0.39193962E-02 0.15371784E+03</pdfrwt>
<pdfrwt beam="1">  1       -5 0.20608662E+00 0.15371784E+03</pdfrwt>
<totfact> 0.32198012E+01</totfact>
</mgrwt>
</event>
<event>
 8    1  0.1865596E-007  0.1434561E+03  0.7546771E-02  0.1208757E+00
          5   -1    0    0  501    0  0.00000000000E+00  0.00000000000E+00  0.21171891397E+03  0.21177107577E+03  0.47000000000E+01 0. -1.
         -5   -1    0    0    0  501 -0.00000000000E+00 -0.00000000000E+00 -0.18582100465E+03  0.18588043407E+03  0.47000000000E+01 0. -1.
         25    2    1    2    0    0 -0.62431137585E+02 -0.32545206649E+02 -0.12440600058E+03  0.18987541918E+03  0.12497593533E+03 0.  0.
         25    2    1    2    0    0  0.62431137585E+02  0.32545206649E+02  0.15030390990E+03  0.20777609066E+03  0.12499120410E+03 0.  0.
          5    1    3    3  502    0 -0.22304537953E+02 -0.50482855510E+02  0.25447934813E+01  0.55448869128E+02  0.47000000000E+01 0. -1.
         -5    1    3    3    0  502 -0.40126599632E+02  0.17937648861E+02 -0.12695079406E+03  0.13442655005E+03  0.47000000000E+01 0. -1.
          5    1    4    4  503    0  0.12760117843E+02 -0.19836944258E+02 -0.14297737260E+02  0.27979282614E+02  0.47000000000E+01 0. -1.
         -5    1    4    4    0  503  0.49671019742E+02  0.52382150907E+02  0.16460164716E+03  0.17979680804E+03  0.47000000000E+01 0. -1.
<mgrwt>
<rscale>  0 0.14345272E+03</rscale>
<asrwt>0</asrwt>
<pdfrwt beam="1">  1        5 0.32580725E-01 0.14345605E+03</pdfrwt>
<pdfrwt beam="2">  1       -5 0.28596431E-01 0.14345605E+03</pdfrwt>
<totfact> 0.78283072E+01</totfact>
</mgrwt>
</event>
<event>
 8    1  0.1865596E-007  0.1319143E+03  0.7546771E-02  0.1224644E+00
         -5   -1    0    0    0  501 -0.00000000000E+00  0.00000000000E+00  0.41175971981E+03  0.41178654284E+03  0.47000000000E+01 0.  1.
          5   -1    0    0  501    0  0.00000000000E+00 -0.00000000000E+00 -0.56680407997E+02  0.56874938687E+02  0.47000000000E+01 0.  1.
         25    2    1    2    0    0  0.34543746214E+02  0.24136215635E+02  0.29612066270E+03  0.32417409070E+03  0.12500226757E+03 0.  0.
         25    2    1    2    0    0 -0.34543746214E+02 -0.24136215635E+02  0.58958649120E+02  0.14448739082E+03  0.12499862596E+03 0.  0.
          5    1    4    4  502    0 -0.36930501101E+02 -0.64714852952E+02  0.24246022053E+01  0.74698345364E+02  0.47000000000E+01 0. -1.
         -5    1    4    4    0  502  0.23867548870E+01  0.40578637317E+02  0.56534046915E+02  0.69789045458E+02  0.47000000000E+01 0. -1.
          5    1    3    3  503    0 -0.15235594966E+02 -0.49906514471E+01 -0.50824765160E+01  0.17462861260E+02  0.47000000000E+01 0. -1.
         -5    1    3    3    0  503  0.49779341180E+02  0.29126867082E+02  0.30120313921E+03  0.30671122944E+03  0.47000000000E+01 0. -1.
<mgrwt>
<rscale>  0 0.13191348E+03</rscale>
<asrwt>0</asrwt>
<pdfrwt beam="2">  1        5 0.87370902E-02 0.13191434E+03</pdfrwt>
<pdfrwt beam="1">  1       -5 0.63364674E-01 0.13191434E+03</pdfrwt>
<totfact> 0.16528124E+02</totfact>
</mgrwt>
</event>
<event>
 8    1  0.1865596E-007  0.1351098E+03  0.7546771E-02  0.1220073E+00
          5   -1    0    0  501    0  0.00000000000E+00  0.00000000000E+00  0.14746831760E+03  0.14754319603E+03  0.47000000000E+01 0. -1.
         -5   -1    0    0    0  501 -0.00000000000E+00 -0.00000000000E+00 -0.12736260662E+03  0.12744929802E+03  0.47000000000E+01 0. -1.
         25    2    1    2    0    0 -0.38527797869E+02  0.33777020752E+02 -0.13514699544E+02  0.13578403118E+03  0.12501750950E+03 0.  0.
         25    2    1    2    0    0  0.38527797869E+02 -0.33777020752E+02  0.33620410520E+02  0.13920846287E+03  0.12499354300E+03 0.  0.
          5    1    4    4  502    0 -0.16419084312E+01 -0.63509009185E+02 -0.19008745587E+02  0.66479414255E+02  0.47000000000E+01 0. -1.
         -5    1    4    4    0  502  0.40169706301E+02  0.29731988432E+02  0.52629156107E+02  0.72729048619E+02  0.47000000000E+01 0. -1.
          5    1    3    3  503    0  0.36108530858E+02  0.43229167679E+02  0.87287469442E+01  0.57191502535E+02  0.47000000000E+01 0. -1.
         -5    1    3    3    0  503 -0.74636328727E+02 -0.94521469269E+01 -0.22243446489E+02  0.78592528647E+02  0.47000000000E+01 0. -1.
<mgrwt>
<rscale>  0 0.13510425E+03</rscale>
<asrwt>0</asrwt>
<pdfrwt beam="1">  1        5 0.22699862E-01 0.13510979E+03</pdfrwt>
<pdfrwt beam="2">  1       -5 0.19606676E-01 0.13510979E+03</pdfrwt>
<totfact> 0.31725695E+02</totfact>
</mgrwt>
</event>
<event>
 8    1  0.1865596E-007  0.1391031E+03  0.7546771E-02  0.1214541E+00
         -5   -1    0    0    0  501 -0.00000000000E+00  0.00000000000E+00  0.49526460303E+03  0.49528690374E+03  0.47000000000E+01 0. -1.
          5   -1    0    0  501    0  0.00000000000E+00 -0.00000000000E+00 -0.51608736127E+02  0.51822308369E+02  0.47000000000E+01 0. -1.
         25    2    1    2    0    0  0.39470554819E+02  0.46559157951E+02  0.35719663617E+03  0.38332639087E+03  0.12499602056E+03 0.  0.
         25    2    1    2    0    0 -0.39470554819E+02 -0.46559157951E+02  0.86459230729E+02  0.16378282124E+03  0.12499573620E+03 0.  0.
          5    1    4    4  502    0 -0.76471556594E+02 -0.10213524200E+02  0.80109551297E+02  0.11131866534E+03  0.47000000000E+01 0. -1.
         -5    1    4    4    0  502  0.37001001775E+02 -0.36345633751E+02  0.63496794321E+01  0.52464155897E+02  0.47000000000E+01 0. -1.
          5    1    3    3  503    0  0.72579403560E+02  0.52574344644E+02  0.16202129456E+03  0.18521560795E+03  0.47000000000E+01 0.  1.
         -5    1    3    3    0  503 -0.33108848741E+02 -0.60151866930E+01  0.19517534161E+03  0.19811078292E+03  0.47000000000E+01 0.  1.
<mgrwt>
<rscale>  0 0.13910308E+03</rscale>
<asrwt>0</asrwt>
<pdfrwt beam="2">  1        5 0.79579495E-02 0.13910315E+03</pdfrwt>
<pdfrwt beam="1">  1       -5 0.76212699E-01 0.13910315E+03</pdfrwt>
<totfact> 0.13038800E+02</totfact>
</mgrwt>
</event>
<event>
 8    1  0.1865596E-007  0.1396611E+03  0.7546771E-02  0.1213794E+00
          5   -1    0    0  501    0  0.00000000000E+00  0.00000000000E+00  0.12036232151E+03  0.12045405115E+03  0.47000000000E+01 0. -1.
         -5   -1    0    0    0  501 -0.00000000000E+00 -0.00000000000E+00 -0.16191568807E+03  0.16198388822E+03  0.47000000000E+01 0. -1.
         25    2    1    2    0    0 -0.30656156272E+02 -0.54219877141E+02 -0.23892051714E+02  0.14169002512E+03  0.12500255233E+03 0.  0.
         25    2    1    2    0    0  0.30656156272E+02  0.54219877141E+02 -0.17661314843E+02  0.14074791425E+03  0.12497383058E+03 0.  0.
          5    1    3    3  502    0 -0.68037727469E+02 -0.37764471758E+02 -0.50346333543E+02  0.92801567808E+02  0.47000000000E+01 0.  1.
         -5    1    3    3    0  502  0.37381571198E+02 -0.16455405383E+02  0.26454281830E+02  0.48888457315E+02  0.47000000000E+01 0.  1.
          5    1    4    4  503    0  0.19304739876E+02  0.51250740270E+02 -0.68805008395E+02  0.88065490064E+02  0.47000000000E+01 0. -1.
         -5    1    4    4    0  503  0.11351416396E+02  0.29691368704E+01  0.51143693552E+02  0.52682424186E+02  0.47000000000E+01 0. -1.
<mgrwt>
<rscale>  0 0.13965471E+03</rscale>
<asrwt>0</asrwt>
<pdfrwt beam="1">  1        5 0.18529583E-01 0.13966114E+03</pdfrwt>
<pdfrwt beam="2">  1       -5 0.24922408E-01 0.13966114E+03</pdfrwt>
<totfact> 0.29829427E+02</totfact>
</mgrwt>
</event>
<event>
 8    1  0.1865596E-007  0.1585227E+03  0.7546771E-02  0.1190375E+00
          5   -1    0    0  501    0  0.00000000000E+00  0.00000000000E+00  0.16660673467E+03  0.16667301533E+03  0.47000000000E+01 0. -1.
         -5   -1    0    0    0  501 -0.00000000000E+00 -0.00000000000E+00 -0.19575123219E+03  0.19580764772E+03  0.47000000000E+01 0. -1.
         25    2    1    2    0    0  0.64418734711E+02 -0.73168543034E+02 -0.10149416887E+03  0.18822993742E+03  0.12500413575E+03 0.  0.
         25    2    1    2    0    0 -0.64418734711E+02  0.73168543034E+02  0.72349671354E+02  0.17425072562E+03  0.12500172544E+03 0.  0.
          5    1    4    4  502    0 -0.16777779950E+02 -0.17847392627E+02 -0.23060976356E+02  0.33969426756E+02  0.47000000000E+01 0.  1.
         -5    1    4    4    0  502 -0.47640954761E+02  0.91015935662E+02  0.95410647710E+02  0.14028129887E+03  0.47000000000E+01 0.  1.
          5    1    3    3  503    0  0.50350066182E+02 -0.86103353932E+02 -0.12342710892E+03  0.15876163876E+03  0.47000000000E+01 0. -1.
         -5    1    3    3    0  503  0.14068668529E+02  0.12934810898E+02  0.21932940049E+02  0.29468298667E+02  0.47000000000E+01 0. -1.
<mgrwt>
<rscale>  0 0.15852221E+03</rscale>
<asrwt>0</asrwt>
<pdfrwt beam="1">  1        5 0.25641243E-01 0.15852269E+03</pdfrwt>
<pdfrwt beam="2">  1       -5 0.30125013E-01 0.15852269E+03</pdfrwt>
<totfact> 0.11655333E+02</totfact>
</mgrwt>
</event>
<event>
 8    1  0.1865596E-007  0.1484661E+03  0.7546771E-02  0.1202371E+00
         -5   -1    0    0    0  501 -0.00000000000E+00  0.00000000000E+00  0.29447120218E+03  0.29450870770E+03  0.47000000000E+01 0.  1.
          5   -1    0    0  501    0  0.00000000000E+00 -0.00000000000E+00 -0.83892109519E+02  0.84023663569E+02  0.47000000000E+01 0.  1.
         25    2    1    2    0    0 -0.11471771125E+02 -0.79281575838E+02  0.16774807776E+03  0.22401152964E+03  0.12499831207E+03 0.  0.
         25    2    1    2    0    0  0.11471771125E+02  0.79281575838E+02  0.42831014900E+02  0.15452084163E+03  0.12500009944E+03 0.  0.
          5    1    4    4  502    0 -0.47424059054E+02  0.59470718552E+02  0.50958703882E+02  0.91677081343E+02  0.47000000000E+01 0. -1.
         -5    1    4    4    0  502  0.58895830179E+02  0.19810857286E+02 -0.81276889814E+01  0.62843760287E+02  0.47000000000E+01 0. -1.
          5    1    3    3  503    0  0.40273761919E+02  0.11157535909E+02  0.66282936342E+02  0.78498306713E+02  0.47000000000E+01 0.  1.
         -5    1    3    3    0  503 -0.51745533045E+02 -0.90439111747E+02  0.10146514141E+03  0.14551322292E+03  0.47000000000E+01 0.  1.
<mgrwt>
<rscale>  0 0.14846576E+03</rscale>
<asrwt>0</asrwt>
<pdfrwt beam="2">  1        5 0.12919483E-01 0.14846614E+03</pdfrwt>
<pdfrwt beam="1">  1       -5 0.45316267E-01 0.14846614E+03</pdfrwt>
<totfact> 0.17766479E+02</totfact>
</mgrwt>
</event>
<event>
 8    1  0.1865596E-007  0.1273012E+03  0.7546771E-02  0.1231525E+00
          5   -1    0    0  501    0  0.00000000000E+00  0.00000000000E+00  0.24198223183E+04  0.24198268827E+04  0.47000000000E+01 0. -1.
         -5   -1    0    0    0  501 -0.00000000000E+00 -0.00000000000E+00 -0.59045241470E+01  0.75467480018E+01  0.47000000000E+01 0. -1.
         25    2    1    2    0    0 -0.22673186902E+02  0.80452094193E+01  0.12937752190E+04  0.13000230465E+04  0.12500722141E+03 0.  0.
         25    2    1    2    0    0  0.22673186902E+02 -0.80452094193E+01  0.11201425752E+04  0.11273505842E+04  0.12498460756E+03 0.  0.
          5    1    3    3  502    0 -0.22210646338E+01  0.32448724773E+01  0.59549891521E-01  0.61282845635E+01  0.47000000000E+01 0.  1.
         -5    1    3    3    0  502 -0.20452122268E+02  0.48003369420E+01  0.12937156691E+04  0.12938947619E+04  0.47000000000E+01 0.  1.
          5    1    4    4  503    0 -0.17041968607E+02 -0.49711065664E+02  0.26158877816E+03  0.26685651126E+03  0.47000000000E+01 0. -1.
         -5    1    4    4    0  503  0.39715155509E+02  0.41665856245E+02  0.85855379703E+03  0.86049407293E+03  0.47000000000E+01 0. -1.
<mgrwt>
<rscale>  0 0.12729568E+03</rscale>
<asrwt>0</asrwt>
<pdfrwt beam="1">  1        5 0.37240690E+00 0.12730123E+03</pdfrwt>
<pdfrwt beam="2">  1       -5 0.10350647E-02 0.12730123E+03</pdfrwt>
<totfact> 0.21636528E+01</totfact>
</mgrwt>
</event>
<event>
 8    1  0.1865596E-007  0.2064926E+03  0.7546771E-02  0.1144374E+00
          5   -1    0    0  501    0  0.00000000000E+00  0.00000000000E+00  0.42986569265E+02  0.43242746642E+02  0.47000000000E+01 0. -1.
         -5   -1    0    0    0  501 -0.00000000000E+00 -0.00000000000E+00 -0.98881810647E+03  0.98882927631E+03  0.47000000000E+01 0. -1.
         25    2    1    2    0    0 -0.68222564609E+02  0.14953353337E+03 -0.47846825458E+03  0.52112424732E+03  0.12499605826E+03 0.  0.
         25    2    1    2    0    0  0.68222564609E+02 -0.14953353337E+03 -0.46736328263E+03  0.51094777564E+03  0.12499838220E+03 0.  0.
          5    1    4    4  502    0  0.43256268412E+01 -0.11965606818E+03 -0.18929069647E+03  0.22402978255E+03  0.47000000000E+01 0. -1.
         -5    1    4    4    0  502  0.63896937768E+02 -0.29877465189E+02 -0.27807258617E+03  0.28691799309E+03  0.47000000000E+01 0. -1.
          5    1    3    3  503    0 -0.95767221976E+02  0.94126404841E+02 -0.39422442938E+03  0.41649265493E+03  0.47000000000E+01 0.  1.
         -5    1    3    3    0  503  0.27544657367E+02  0.55407128525E+02 -0.84243825201E+02  0.10463159239E+03  0.47000000000E+01 0.  1.
<mgrwt>
<rscale>  0 0.20649224E+03</rscale>
<asrwt>0</asrwt>
<pdfrwt beam="1">  1        5 0.66338843E-02 0.20649259E+03</pdfrwt>
<pdfrwt beam="2">  1       -5 0.15214641E+00 0.20649259E+03</pdfrwt>
<totfact> 0.35303168E+01</totfact>
</mgrwt>
</event>
<event>
 8    1  0.1865596E-007  0.1627902E+03  0.7546771E-02  0.1185585E+00
          5   -1    0    0  501    0  0.00000000000E+00  0.00000000000E+00  0.89492711299E+02  0.89616044187E+02  0.47000000000E+01 0. -1.
         -5   -1    0    0    0  501 -0.00000000000E+00 -0.00000000000E+00 -0.30925025705E+03  0.30928597040E+03  0.47000000000E+01 0. -1.
         25    2    1    2    0    0 -0.60560748954E+02 -0.84905983670E+02 -0.15152920603E+03  0.22239996702E+03  0.12499605862E+03 0.  0.
         25    2    1    2    0    0  0.60560748954E+02  0.84905983670E+02 -0.68228339715E+02  0.17650204757E+03  0.12498494341E+03 0.  0.
          5    1    3    3  502    0  0.20363070021E+02 -0.17704899816E+02  0.10357871830E+02  0.29282991770E+02  0.47000000000E+01 0. -1.
         -5    1    3    3    0  502 -0.80923818975E+02 -0.67201083854E+02 -0.16188707786E+03  0.19311697525E+03  0.47000000000E+01 0. -1.
          5    1    4    4  503    0  0.39518400902E+02 -0.27112879780E+01  0.24746113547E+02  0.46941615098E+02  0.47000000000E+01 0.  1.
         -5    1    4    4    0  503  0.21042348052E+02  0.87617271648E+02 -0.92974453262E+02  0.12956043247E+03  0.47000000000E+01 0.  1.
<mgrwt>
<rscale>  0 0.16278805E+03</rscale>
<asrwt>0</asrwt>
<pdfrwt beam="1">  1        5 0.13780344E-01 0.16279019E+03</pdfrwt>
<pdfrwt beam="2">  1       -5 0.47589196E-01 0.16279019E+03</pdfrwt>
<totfact> 0.14707311E+02</totfact>
</mgrwt>
</event>
<event>
 8    1  0.1865596E-007  0.1283332E+03  0.7546771E-02  0.1229950E+00
          5   -1    0    0  501    0  0.00000000000E+00  0.00000000000E+00  0.23092998197E+03  0.23097780537E+03  0.47000000000E+01 0.  1.
         -5   -1    0    0    0  501 -0.00000000000E+00 -0.00000000000E+00 -0.79117893939E+02  0.79257372789E+02  0.47000000000E+01 0.  1.
         25    2    1    2    0    0 -0.29060463420E+02 -0.84909364385E-01  0.26848504921E+02  0.13111143528E+03  0.12499939400E+03 0.  0.
         25    2    1    2    0    0  0.29060463420E+02  0.84909364385E-01  0.12496358311E+03  0.17912374288E+03  0.12499960166E+03 0.  0.
          5    1    3    3  502    0 -0.28961722839E+02  0.60401363729E+02  0.82467826208E+01  0.67655048250E+02  0.47000000000E+01 0.  1.
         -5    1    3    3    0  502 -0.98740581364E-01 -0.60486273093E+02  0.18601722300E+02  0.63456387030E+02  0.47000000000E+01 0.  1.
          5    1    4    4  503    0 -0.23808598458E+02  0.14343962644E+02 -0.12682024413E+02  0.30911524842E+02  0.47000000000E+01 0. -1.
         -5    1    4    4    0  503  0.52869061878E+02 -0.14259053280E+02  0.13764560752E+03  0.14821221803E+03  0.47000000000E+01 0. -1.
<mgrwt>
<rscale>  0 0.12833318E+03</rscale>
<asrwt>0</asrwt>
<pdfrwt beam="1">  1        5 0.35542097E-01 0.12833323E+03</pdfrwt>
<pdfrwt beam="2">  1       -5 0.12186392E-01 0.12833323E+03</pdfrwt>
<totfact> 0.30837899E+02</totfact>
</mgrwt>
</event>
<event>
 8    1  0.1865596E-007  0.1832513E+03  0.7546771E-02  0.1164702E+00
          5   -1    0    0  501    0  0.00000000000E+00  0.00000000000E+00  0.41955168668E+03  0.41957801157E+03  0.47000000000E+01 0.  1.
         -5   -1    0    0    0  501 -0.00000000000E+00 -0.00000000000E+00 -0.13284136630E+03  0.13292448458E+03  0.47000000000E+01 0.  1.
         25    2    1    2    0    0  0.36056584444E+02 -0.12906055651E+03 -0.30899966968E+02  0.18583822245E+03  0.12499732971E+03 0.  0.
         25    2    1    2    0    0 -0.36056584444E+02  0.12906055651E+03  0.31761028735E+03  0.36666427371E+03  0.12493874681E+03 0.  0.
          5    1    3    3  502    0  0.45480224854E+02  0.55962770510E+01  0.42853957468E+01  0.46262552744E+02  0.47000000000E+01 0. -1.
         -5    1    3    3    0  502 -0.94236404101E+01 -0.13465683356E+03 -0.35185362715E+02  0.13957566970E+03  0.47000000000E+01 0. -1.
          5    1    4    4  503    0 -0.26676258637E+02  0.82908773728E+01  0.17973948920E+01  0.28384538940E+02  0.47000000000E+01 0. -1.
         -5    1    4    4    0  503 -0.93803258077E+01  0.12076967914E+03  0.31581289246E+03  0.33827973477E+03  0.47000000000E+01 0. -1.
<mgrwt>
<rscale>  0 0.18324131E+03</rscale>
<asrwt>0</asrwt>
<pdfrwt beam="1">  1        5 0.64554833E-01 0.18325129E+03</pdfrwt>
<pdfrwt beam="2">  1       -5 0.20445552E-01 0.18325129E+03</pdfrwt>
<totfact> 0.38028374E+01</totfact>
</mgrwt>
</event>
<event>
 8    1  0.1865596E-007  0.1531323E+03  0.7546771E-02  0.1196676E+00
         -5   -1    0    0    0  501 -0.00000000000E+00  0.00000000000E+00  0.83058651100E+02  0.83191523141E+02  0.47000000000E+01 0.  1.
          5   -1    0    0  501    0  0.00000000000E+00 -0.00000000000E+00 -0.28325484444E+03  0.28329383491E+03  0.47000000000E+01 0.  1.
         25    2    1    2    0    0  0.87657262736E+02 -0.11757968403E+02 -0.87637516904E+02  0.17643548392E+03  0.12500840006E+03 0.  0.
         25    2    1    2    0    0 -0.87657262736E+02  0.11757968403E+02 -0.11255867643E+03  0.19004987413E+03  0.12500981356E+03 0.  0.
          5    1    4    4  502    0 -0.79676758198E+02  0.98173345024E+01 -0.13976293774E+03  0.16124681274E+03  0.47000000000E+01 0.  1.
         -5    1    4    4    0  502 -0.79805045374E+01  0.19406339006E+01  0.27204261302E+02  0.28803061393E+02  0.47000000000E+01 0.  1.
          5    1    3    3  503    0  0.16836206727E+02  0.50406056252E+02 -0.10069967417E+02  0.54292933312E+02  0.47000000000E+01 0.  1.
         -5    1    3    3    0  503  0.70821056009E+02 -0.62164024655E+02 -0.77567549487E+02  0.12214255061E+03  0.47000000000E+01 0.  1.
<mgrwt>
<rscale>  0 0.15313200E+03</rscale>
<asrwt>0</asrwt>
<pdfrwt beam="2">  1        5 0.43590888E-01 0.15313229E+03</pdfrwt>
<pdfrwt beam="1">  1       -5 0.12791474E-01 0.15313229E+03</pdfrwt>
<totfact> 0.19808092E+02</totfact>
</mgrwt>
</event>
<event>
 8    1  0.1865596E-007  0.1446620E+03  0.7546771E-02  0.1207192E+00
          5   -1    0    0  501    0  0.00000000000E+00  0.00000000000E+00  0.71971405827E+03  0.71972940448E+03  0.47000000000E+01 0.  1.
         -5   -1    0    0    0  501 -0.00000000000E+00 -0.00000000000E+00 -0.29082622062E+02  0.29459954277E+02  0.47000000000E+01 0.  1.
         25    2    1    2    0    0 -0.44197897225E+02  0.57862705982E+02  0.31351620150E+03  0.34528178242E+03  0.12500221520E+03 0.  0.
         25    2    1    2    0    0  0.44197897225E+02 -0.57862705982E+02  0.37711523471E+03  0.40390757634E+03  0.12499553236E+03 0.  0.
          5    1    3    3  502    0  0.17171564036E+02 -0.31435845778E+02  0.83389167730E+02  0.90878591021E+02  0.47000000000E+01 0.  1.
         -5    1    3    3    0  502 -0.61369461261E+02  0.89298551760E+02  0.23012703377E+03  0.25440319140E+03  0.47000000000E+01 0.  1.
          5    1    4    4  503    0  0.73992746642E+02 -0.55506401631E+02  0.16143969127E+03  0.18612025977E+03  0.47000000000E+01 0.  1.
         -5    1    4    4    0  503 -0.29794849417E+02 -0.23563043511E+01  0.21567554344E+03  0.21778731658E+03  0.47000000000E+01 0.  1.
<mgrwt>
<rscale>  0 0.14466058E+03</rscale>
<asrwt>0</asrwt>
<pdfrwt beam="1">  1        5 0.11075544E+00 0.14466202E+03</pdfrwt>
<pdfrwt beam="2">  1       -5 0.45044557E-02 0.14466202E+03</pdfrwt>
<totfact> 0.14077977E+02</totfact>
</mgrwt>
</event>
<event>
 8    1  0.1865596E-007  0.1580365E+03  0.7546771E-02  0.1190932E+00
          5   -1    0    0  501    0  0.00000000000E+00  0.00000000000E+00  0.42009030723E+03  0.42011659837E+03  0.47000000000E+01 0.  1.
         -5   -1    0    0    0  501 -0.00000000000E+00 -0.00000000000E+00 -0.88949941133E+02  0.89074025549E+02  0.47000000000E+01 0.  1.
         25    2    1    2    0    0  0.82866391605E+02  0.49838494879E+02  0.18806745178E+02  0.15915086949E+03  0.12499836465E+03 0.  0.
         25    2    1    2    0    0 -0.82866391605E+02 -0.49838494879E+02  0.31233362092E+03  0.35003975443E+03  0.12499929798E+03 0.  0.
          5    1    4    4  502    0  0.23336869409E+02 -0.44787270485E+02  0.84085057590E+02  0.98198248361E+02  0.47000000000E+01 0.  1.
         -5    1    4    4    0  502 -0.10620326101E+03 -0.50512243944E+01  0.22824856333E+03  0.25184150607E+03  0.47000000000E+01 0.  1.
          5    1    3    3  503    0  0.51149486525E+02 -0.22666235313E+02  0.48801047724E+02  0.74388577443E+02  0.47000000000E+01 0. -1.
         -5    1    3    3    0  503  0.31716905080E+02  0.72504730192E+02 -0.29994302546E+02  0.84762292048E+02  0.47000000000E+01 0. -1.
<mgrwt>
<rscale>  0 0.15803633E+03</rscale>
<asrwt>0</asrwt>
<pdfrwt beam="1">  1        5 0.64640845E-01 0.15803651E+03</pdfrwt>
<pdfrwt beam="2">  1       -5 0.13696174E-01 0.15803651E+03</pdfrwt>
<totfact> 0.75940092E+01</totfact>
</mgrwt>
</event>
<event>
 8    1  0.1865596E-007  0.1468436E+03  0.7546771E-02  0.1204407E+00
         -5   -1    0    0    0  501 -0.00000000000E+00  0.00000000000E+00  0.24827151614E+03  0.24831599974E+03  0.47000000000E+01 0.  1.
          5   -1    0    0  501    0  0.00000000000E+00 -0.00000000000E+00 -0.10685245658E+03  0.10695577346E+03  0.47000000000E+01 0.  1.
         25    2    1    2    0    0  0.52101055920E+02 -0.56774489002E+02  0.14772866380E+03  0.20829497375E+03  0.12500070140E+03 0.  0.
         25    2    1    2    0    0 -0.52101055920E+02  0.56774489002E+02 -0.63096042394E+01  0.14697679945E+03  0.12499802335E+03 0.  0.
          5    1    4    4  502    0 -0.39869148767E+02  0.17842369708E+02  0.56719511122E+02  0.71743237466E+02  0.47000000000E+01 0.  1.
         -5    1    4    4    0  502 -0.12231907153E+02  0.38932119294E+02 -0.63029115362E+02  0.75233561983E+02  0.47000000000E+01 0.  1.
          5    1    3    3  503    0  0.17711985606E+02 -0.56990091274E+02  0.16050764937E+03  0.17130785283E+03  0.47000000000E+01 0.  1.
         -5    1    3    3    0  503  0.34389070314E+02  0.21560227150E+00 -0.12778985564E+02  0.36987120913E+02  0.47000000000E+01 0.  1.
<mgrwt>
<rscale>  0 0.14684301E+03</rscale>
<asrwt>0</asrwt>
<pdfrwt beam="2">  1        5 0.16450209E-01 0.14684358E+03</pdfrwt>
<pdfrwt beam="1">  1       -5 0.38206987E-01 0.14684358E+03</pdfrwt>
<totfact> 0.16258014E+02</totfact>
</mgrwt>
</event>
<event>
 8    1  0.1865596E-007  0.1328819E+03  0.7546771E-02  0.1223245E+00
          5   -1    0    0  501    0  0.00000000000E+00  0.00000000000E+00  0.31337893846E+02  0.31688382583E+02  0.47000000000E+01 0. -1.
         -5   -1    0    0    0  501 -0.00000000000E+00 -0.00000000000E+00 -0.57549079544E+03  0.57550998744E+03  0.47000000000E+01 0. -1.
         25    2    1    2    0    0 -0.44896736320E+02 -0.38653927278E+01 -0.32201492761E+03  0.34835502603E+03  0.12500780921E+03 0.  0.
         25    2    1    2    0    0  0.44896736320E+02  0.38653927278E+01 -0.22213797399E+03  0.25884334399E+03  0.12499575611E+03 0.  0.
          5    1    4    4  502    0 -0.41976521233E+02 -0.12470460168E+02 -0.65666193105E+02  0.79067563695E+02  0.47000000000E+01 0. -1.
         -5    1    4    4    0  502  0.86873257554E+02  0.16335852896E+02 -0.15647178088E+03  0.17977578029E+03  0.47000000000E+01 0. -1.
          5    1    3    3  503    0 -0.57521769755E+02 -0.76190369556E+01 -0.52237605191E+02  0.78215478749E+02  0.47000000000E+01 0.  1.
         -5    1    3    3    0  503  0.12625033435E+02  0.37536442278E+01 -0.26977732242E+03  0.27013954728E+03  0.47000000000E+01 0.  1.
<mgrwt>
<rscale>  0 0.13287911E+03</rscale>
<asrwt>0</asrwt>
<pdfrwt beam="1">  1        5 0.48496519E-02 0.13288194E+03</pdfrwt>
<pdfrwt beam="2">  1       -5 0.88565474E-01 0.13288194E+03</pdfrwt>
<totfact> 0.20859182E+02</totfact>
</mgrwt>
</event>
<event>
 8    1  0.1865596E-007  0.1766537E+03  0.7546771E-02  0.1171082E+00
         -5   -1    0    0    0  501 -0.00000000000E+00  0.00000000000E+00  0.70674952991E+03  0.70676515762E+03  0.47000000000E+01 0.  1.
          5   -1    0    0  501    0  0.00000000000E+00 -0.00000000000E+00 -0.47892163734E+02  0.48122233397E+02  0.47000000000E+01 0.  1.
         25    2    1    2    0    0  0.70689674277E+02 -0.10287711692E+03  0.43657096458E+03  0.47095727329E+03  0.12500325964E+03 0.  0.
         25    2    1    2    0    0 -0.70689674277E+02  0.10287711692E+03  0.22228640160E+03  0.28393011773E+03  0.12499734469E+03 0.  0.
          5    1    3    3  502    0  0.81671655440E+02 -0.12520849065E+03  0.34667419353E+03  0.37756126906E+03  0.47000000000E+01 0. -1.
         -5    1    3    3    0  502 -0.10981981162E+02  0.22331373725E+02  0.89896771050E+02  0.93396004239E+02  0.47000000000E+01 0. -1.
          5    1    4    4  503    0 -0.90054031975E+02  0.11893604868E+03  0.17371924851E+03  0.22903270433E+03  0.47000000000E+01 0.  1.
         -5    1    4    4    0  503  0.19364357697E+02 -0.16058931755E+02  0.48567153087E+02  0.54897413392E+02  0.47000000000E+01 0.  1.
<mgrwt>
<rscale>  0 0.17665270E+03</rscale>
<asrwt>0</asrwt>
<pdfrwt beam="2">  1        5 0.73869253E-02 0.17665375E+03</pdfrwt>
<pdfrwt beam="1">  1       -5 0.10874959E+00 0.17665375E+03</pdfrwt>
<totfact> 0.68090973E+01</totfact>
</mgrwt>
</event>
<event>
 8    1  0.1865596E-007  0.1460003E+03  0.7546771E-02  0.1205476E+00
         -5   -1    0    0    0  501 -0.00000000000E+00  0.00000000000E+00  0.37049824368E+02  0.37346746655E+02  0.47000000000E+01 0.  1.
          5   -1    0    0  501    0  0.00000000000E+00 -0.00000000000E+00 -0.86518093490E+03  0.86519370092E+03  0.47000000000E+01 0.  1.
         25    2    1    2    0    0 -0.74225235885E+02 -0.13484538795E+02 -0.15174472496E+03  0.21057612356E+03  0.12499849532E+03 0.  0.
         25    2    1    2    0    0  0.74225235885E+02  0.13484538795E+02 -0.67638638557E+03  0.69196432402E+03  0.12499945878E+03 0.  0.
          5    1    4    4  502    0  0.35225633534E+02 -0.11535340899E+02 -0.43402235112E+02  0.57269130954E+02  0.47000000000E+01 0.  1.
         -5    1    4    4    0  502  0.38999602351E+02  0.25019879694E+02 -0.63298415046E+03  0.63469519306E+03  0.47000000000E+01 0.  1.
          5    1    3    3  503    0  0.31197358355E+02  0.52757686013E+01 -0.11342809582E+02  0.33939036991E+02  0.47000000000E+01 0.  1.
         -5    1    3    3    0  503 -0.10542259424E+03 -0.18760307397E+02 -0.14040191538E+03  0.17663708657E+03  0.47000000000E+01 0.  1.
<mgrwt>
<rscale>  0 0.14600008E+03</rscale>
<asrwt>0</asrwt>
<pdfrwt beam="2">  1        5 0.13312857E+00 0.14600028E+03</pdfrwt>
<pdfrwt beam="1">  1       -5 0.57237958E-02 0.14600028E+03</pdfrwt>
<totfact> 0.59192822E+01</totfact>
</mgrwt>
</event>
<event>
 8    1  0.1865596E-007  0.1362070E+03  0.7546771E-02  0.1218527E+00
         -5   -1    0    0    0  501 -0.00000000000E+00  0.00000000000E+00  0.27436437893E+02  0.27836093912E+02  0.47000000000E+01 0.  1.
          5   -1    0    0  501    0  0.00000000000E+00 -0.00000000000E+00 -0.85726071116E+03  0.85727359512E+03  0.47000000000E+01 0.  1.
         25    2    1    2    0    0 -0.17810932131E+02 -0.51083333211E+02 -0.20861393556E+03  0.24914278159E+03  0.12500246107E+03 0.  0.
         25    2    1    2    0    0  0.17810932131E+02  0.51083333211E+02 -0.62121033770E+03  0.63596690745E+03  0.12499954984E+03 0.  0.
          5    1    3    3  502    0 -0.45059742831E+02 -0.49006461737E+02 -0.21100774715E+03  0.22131058057E+03  0.47000000000E+01 0.  1.
         -5    1    3    3    0  502  0.27248810700E+02 -0.20768714736E+01  0.23938115860E+01  0.27832201020E+02  0.47000000000E+01 0.  1.
          5    1    4    4  503    0 -0.51571624463E+01  0.64299824409E+02 -0.14238906866E+03  0.15638989934E+03  0.47000000000E+01 0.  1.
         -5    1    4    4    0  503  0.22968094577E+02 -0.13216491198E+02 -0.47882126905E+03  0.47957700810E+03  0.47000000000E+01 0.  1.
<mgrwt>
<rscale>  0 0.13620635E+03</rscale>
<asrwt>0</asrwt>
<pdfrwt beam="2">  1        5 0.13191798E+00 0.13620702E+03</pdfrwt>
<pdfrwt beam="1">  1       -5 0.42527250E-02 0.13620702E+03</pdfrwt>
<totfact> 0.97208900E+01</totfact>
</mgrwt>
</event>
<event>
 8    1  0.1865596E-007  0.1645999E+03  0.7546771E-02  0.1183601E+00
         -5   -1    0    0    0  501 -0.00000000000E+00  0.00000000000E+00  0.82643075742E+02  0.82776614862E+02  0.47000000000E+01 0. -1.
          5   -1    0    0  501    0  0.00000000000E+00 -0.00000000000E+00 -0.34399745140E+03  0.34402955770E+03  0.47000000000E+01 0. -1.
         25    2    1    2    0    0  0.10134078487E+03 -0.34551670495E+02 -0.83824270519E+02  0.18471499779E+03  0.12501739666E+03 0.  0.
         25    2    1    2    0    0 -0.10134078487E+03  0.34551670495E+02 -0.17753010514E+03  0.24209117477E+03  0.12500970386E+03 0.  0.
          5    1    3    3  502    0  0.12210692858E+03 -0.15932917946E+02 -0.93644103277E+02  0.15477489447E+03  0.47000000000E+01 0. -1.
         -5    1    3    3    0  502 -0.20766143707E+02 -0.18618752549E+02  0.98198327574E+01  0.29940103312E+02  0.47000000000E+01 0. -1.
          5    1    4    4  503    0 -0.46717517001E+01  0.62713347121E+02 -0.57388293870E+02  0.85266027493E+02  0.47000000000E+01 0. -1.
         -5    1    4    4    0  503 -0.96669033171E+02 -0.28161676626E+02 -0.12014181127E+03  0.15682514728E+03  0.47000000000E+01 0. -1.
<mgrwt>
<rscale>  0 0.16459842E+03</rscale>
<asrwt>0</asrwt>
<pdfrwt beam="2">  1        5 0.52935426E-01 0.16459988E+03</pdfrwt>
<pdfrwt beam="1">  1       -5 0.12727061E-01 0.16459988E+03</pdfrwt>
<totfact> 0.13568956E+02</totfact>
</mgrwt>
</event>
<event>
 8    1  0.1865596E-007  0.1311248E+03  0.7546771E-02  0.1225799E+00
          5   -1    0    0  501    0  0.00000000000E+00  0.00000000000E+00  0.39207225736E+03  0.39210042718E+03  0.47000000000E+01 0. -1.
         -5   -1    0    0    0  501 -0.00000000000E+00 -0.00000000000E+00 -0.44314828139E+02  0.44563370530E+02  0.47000000000E+01 0. -1.
         25    2    1    2    0    0 -0.75726187946E+01  0.38876717253E+02  0.14815061206E+03  0.19784414357E+03  0.12499983036E+03 0.  0.
         25    2    1    2    0    0  0.75726187946E+01 -0.38876717253E+02  0.19960681716E+03  0.23881965414E+03  0.12499280798E+03 0.  0.
          5    1    4    4  502    0  0.39350095580E+02 -0.26263885008E+01  0.71419359442E+01  0.40353750603E+02  0.47000000000E+01 0. -1.
         -5    1    4    4    0  502 -0.31777476786E+02 -0.36250328752E+02  0.19246488121E+03  0.19846590354E+03  0.47000000000E+01 0. -1.
          5    1    3    3  503    0  0.86646141693E+01  0.72242341424E+02  0.39474906587E+02  0.82911939328E+02  0.47000000000E+01 0. -1.
         -5    1    3    3    0  503 -0.16237232964E+02 -0.33365624171E+02  0.10867570548E+03  0.11493220424E+03  0.47000000000E+01 0. -1.
<mgrwt>
<rscale>  0 0.13112308E+03</rscale>
<asrwt>0</asrwt>
<pdfrwt beam="1">  1        5 0.60340092E-01 0.13112475E+03</pdfrwt>
<pdfrwt beam="2">  1       -5 0.68389517E-02 0.13112475E+03</pdfrwt>
<totfact> 0.27912492E+02</totfact>
</mgrwt>
</event>
<event>
 8    1  0.1865596E-007  0.1328899E+03  0.7546771E-02  0.1223234E+00
          5   -1    0    0  501    0  0.00000000000E+00  0.00000000000E+00  0.86111472816E+02  0.86239641410E+02  0.47000000000E+01 0.  1.
         -5   -1    0    0    0  501 -0.00000000000E+00 -0.00000000000E+00 -0.21126424507E+03  0.21131651910E+03  0.47000000000E+01 0.  1.
         25    2    1    2    0    0 -0.43393270788E+02 -0.12216532840E+02 -0.88677458079E+02  0.15975131033E+03  0.12499827981E+03 0.  0.
         25    2    1    2    0    0  0.43393270788E+02  0.12216532840E+02 -0.36475314175E+02  0.13780485018E+03  0.12501003386E+03 0.  0.
          5    1    3    3  502    0 -0.41688823341E+02 -0.17177269740E+02 -0.11966988331E+03  0.12796869757E+03  0.47000000000E+01 0.  1.
         -5    1    3    3    0  502 -0.17044474470E+01  0.49607368997E+01  0.30992425231E+02  0.31782612753E+02  0.47000000000E+01 0.  1.
          5    1    4    4  503    0  0.48251182234E+02 -0.17748509770E+01  0.38064305390E+02  0.61662857765E+02  0.47000000000E+01 0. -1.
         -5    1    4    4    0  503 -0.48579114460E+01  0.13991383817E+02 -0.74539619565E+02  0.76141992420E+02  0.47000000000E+01 0. -1.
<mgrwt>
<rscale>  0 0.13288715E+03</rscale>
<asrwt>0</asrwt>
<pdfrwt beam="1">  1        5 0.13261799E-01 0.13288991E+03</pdfrwt>
<pdfrwt beam="2">  1       -5 0.32516072E-01 0.13288991E+03</pdfrwt>
<totfact> 0.32084154E+02</totfact>
</mgrwt>
</event>
<event>
 8    1  0.1865596E-007  0.1283480E+03  0.7546771E-02  0.1229930E+00
          5   -1    0    0  501    0  0.00000000000E+00  0.00000000000E+00  0.11125387542E+02  0.12077427208E+02  0.47000000000E+01 0. -1.
         -5   -1    0    0    0  501 -0.00000000000E+00 -0.00000000000E+00 -0.14194564939E+04  0.14194642751E+04  0.47000000000E+01 0. -1.
         25    2    1    2    0    0  0.27700330953E+02  0.89687289419E+01 -0.71825292191E+03  0.72963037335E+03  0.12500190179E+03 0.  0.
         25    2    1    2    0    0 -0.27700330953E+02 -0.89687289419E+01 -0.69007818447E+03  0.70191132891E+03  0.12499546604E+03 0.  0.
          5    1    3    3  502    0 -0.36981876615E+02 -0.23193358375E+02 -0.43740711392E+03  0.43960512324E+03  0.47000000000E+01 0.  1.
         -5    1    3    3    0  502  0.64682207569E+02  0.32162087316E+02 -0.28084580799E+03  0.29002525011E+03  0.47000000000E+01 0.  1.
          5    1    4    4  503    0 -0.66403583107E+02 -0.54610590579E-01 -0.59571240198E+03  0.59942038229E+03  0.47000000000E+01 0.  1.
         -5    1    4    4    0  503  0.38703252153E+02 -0.89141183513E+01 -0.94365782490E+02  0.10249094662E+03  0.47000000000E+01 0.  1.
<mgrwt>
<rscale>  0 0.12834648E+03</rscale>
<asrwt>0</asrwt>
<pdfrwt beam="1">  1        5 0.17854316E-02 0.12834805E+03</pdfrwt>
<pdfrwt beam="2">  1       -5 0.21845162E+00 0.12834805E+03</pdfrwt>
<totfact> 0.89683565E+01</totfact>
</mgrwt>
</event>
<event>
 8    1  0.1865596E-007  0.1272674E+03  0.7546771E-02  0.1231578E+00
         -5   -1    0    0    0  501 -0.00000000000E+00  0.00000000000E+00  0.69431192946E+03  0.69432783711E+03  0.47000000000E+01 0.  1.
          5   -1    0    0  501    0  0.00000000000E+00 -0.00000000000E+00 -0.28098220841E+02  0.28488594462E+02  0.47000000000E+01 0.  1.
         25    2    1    2    0    0  0.10485077328E+02  0.21306281089E+02  0.48475762968E+03  0.50117867849E+03  0.12500485506E+03 0.  0.
         25    2    1    2    0    0 -0.10485077328E+02 -0.21306281089E+02  0.18145607894E+03  0.22163775308E+03  0.12503235799E+03 0.  0.
          5    1    4    4  502    0 -0.19678456704E+02  0.34948673183E+02  0.15206037946E+03  0.15733118069E+03  0.47000000000E+01 0.  1.
         -5    1    4    4    0  502  0.91933793756E+01 -0.56254954272E+02  0.29395699480E+02  0.64306572389E+02  0.47000000000E+01 0.  1.
          5    1    3    3  503    0 -0.40538721801E+02  0.51522533057E+02  0.29858282688E+03  0.30573150620E+03  0.47000000000E+01 0.  1.
         -5    1    3    3    0  503  0.51023799129E+02 -0.30216251967E+02  0.18617480280E+03  0.19544717229E+03  0.47000000000E+01 0.  1.
<mgrwt>
<rscale>  0 0.12726062E+03</rscale>
<asrwt>0</asrwt>
<pdfrwt beam="2">  1        5 0.43540554E-02 0.12726738E+03</pdfrwt>
<pdfrwt beam="1">  1       -5 0.10684848E+00 0.12726738E+03</pdfrwt>
<totfact> 0.15604953E+02</totfact>
</mgrwt>
</event>
<event>
 8    1  0.1865596E-007  0.1332080E+03  0.7546771E-02  0.1222772E+00
         -5   -1    0    0    0  501 -0.00000000000E+00  0.00000000000E+00  0.18179037360E+03  0.18185112024E+03  0.47000000000E+01 0. -1.
          5   -1    0    0  501    0  0.00000000000E+00 -0.00000000000E+00 -0.99709992376E+02  0.99820702159E+02  0.47000000000E+01 0. -1.
         25    2    1    2    0    0  0.45014094792E+02  0.96409268747E+01  0.62108176697E+02  0.14697488764E+03  0.12499990313E+03 0.  0.
         25    2    1    2    0    0 -0.45014094792E+02 -0.96409268747E+01  0.19972204527E+02  0.13469693476E+03  0.12500063632E+03 0.  0.
          5    1    4    4  502    0 -0.49791439986E+02  0.16915915635E+02 -0.41659813647E+02  0.67252998229E+02  0.47000000000E+01 0.  1.
         -5    1    4    4    0  502  0.47773451937E+01 -0.26556842510E+02  0.61632018174E+02  0.67443936536E+02  0.47000000000E+01 0.  1.
          5    1    3    3  503    0  0.52287073629E+02  0.90678639535E+01 -0.25411910271E+02  0.59025582665E+02  0.47000000000E+01 0.  1.
         -5    1    3    3    0  503 -0.72729788367E+01  0.57306292117E+00  0.87520086968E+02  0.87949304972E+02  0.47000000000E+01 0.  1.
<mgrwt>
<rscale>  0 0.13320784E+03</rscale>
<asrwt>0</asrwt>
<pdfrwt beam="2">  1        5 0.15353188E-01 0.13320802E+03</pdfrwt>
<pdfrwt beam="1">  1       -5 0.27980938E-01 0.13320802E+03</pdfrwt>
<totfact> 0.33126824E+02</totfact>
</mgrwt>
</event>
<event>
 8    1  0.1865596E-007  0.1300968E+03  0.7546771E-02  0.1227329E+00
         -5   -1    0    0    0  501 -0.00000000000E+00  0.00000000000E+00  0.49184647959E+02  0.49408699587E+02  0.47000000000E+01 0. -1.
          5   -1    0    0  501    0  0.00000000000E+00 -0.00000000000E+00 -0.34554136928E+03  0.34557333214E+03  0.47000000000E+01 0. -1.
         25    2    1    2    0    0 -0.69541134038E+01  0.35384886722E+02 -0.13114166590E+03  0.18469364961E+03  0.12495262210E+03 0.  0.
         25    2    1    2    0    0  0.69541134038E+01 -0.35384886722E+02 -0.16521505543E+03  0.21028838212E+03  0.12499895685E+03 0.  0.
          5    1    3    3  502    0  0.58202780227E+02  0.19684633178E+02 -0.75527503063E+02  0.97475854079E+02  0.47000000000E+01 0.  1.
         -5    1    3    3    0  502 -0.65156893631E+02  0.15700253544E+02 -0.55614162833E+02  0.87217795527E+02  0.47000000000E+01 0.  1.
          5    1    4    4  503    0  0.27929650026E+02 -0.24658533682E+02 -0.17879257917E+03  0.18269369174E+03  0.47000000000E+01 0.  1.
         -5    1    4    4    0  503 -0.20975536622E+02 -0.10726353040E+02  0.13577523746E+02  0.27594690381E+02  0.47000000000E+01 0.  1.
<mgrwt>
<rscale>  0 0.13008571E+03</rscale>
<asrwt>0</asrwt>
<pdfrwt beam="2">  1        5 0.53179903E-01 0.13009685E+03</pdfrwt>
<pdfrwt beam="1">  1       -5 0.75865626E-02 0.13009685E+03</pdfrwt>
<totfact> 0.30665808E+02</totfact>
</mgrwt>
</event>
<event>
 8    1  0.1865596E-007  0.1283204E+03  0.7546771E-02  0.1229973E+00
         -5   -1    0    0    0  501 -0.00000000000E+00  0.00000000000E+00  0.31524396318E+02  0.31872834252E+02  0.47000000000E+01 0. -1.
          5   -1    0    0  501    0  0.00000000000E+00 -0.00000000000E+00 -0.51918731293E+03  0.51920858613E+03  0.47000000000E+01 0. -1.
         25    2    1    2    0    0 -0.28418399225E+02  0.56443004655E+01 -0.23955362158E+03  0.27175734620E+03  0.12500661605E+03 0.  0.
         25    2    1    2    0    0  0.28418399225E+02 -0.56443004655E+01 -0.24810929504E+03  0.27932407419E+03  0.12499701034E+03 0.  0.
          5    1    4    4  502    0  0.56230946830E+02 -0.15942879199E+02 -0.44754368916E+02  0.73764071984E+02  0.47000000000E+01 0.  1.
         -5    1    4    4    0  502 -0.27812547605E+02  0.10298578734E+02 -0.20335492612E+03  0.20556000220E+03  0.47000000000E+01 0.  1.
          5    1    3    3  503    0 -0.45485828759E+02  0.55761578676E+02 -0.16620241471E+03  0.18117297516E+03  0.47000000000E+01 0.  1.
         -5    1    3    3    0  503  0.17067429534E+02 -0.50117278210E+02 -0.73351206873E+02  0.90584371035E+02  0.47000000000E+01 0.  1.
<mgrwt>
<rscale>  0 0.12831803E+03</rscale>
<asrwt>0</asrwt>
<pdfrwt beam="2">  1        5 0.79903404E-01 0.12832037E+03</pdfrwt>
<pdfrwt beam="1">  1       -5 0.48783468E-02 0.12832037E+03</pdfrwt>
<totfact> 0.25945447E+02</totfact>
</mgrwt>
</event>
<event>
 8    1  0.1865596E-007  0.1327103E+03  0.7546771E-02  0.1223490E+00
          5   -1    0    0  501    0  0.00000000000E+00  0.00000000000E+00  0.17580348669E+03  0.17586630130E+03  0.47000000000E+01 0. -1.
         -5   -1    0    0    0  501 -0.00000000000E+00 -0.00000000000E+00 -0.13568857982E+03  0.13576995504E+03  0.47000000000E+01 0. -1.
         25    2    1    2    0    0  0.33047085404E+02 -0.29918070135E+02 -0.59762123743E+02  0.14554156695E+03  0.12499454189E+03 0.  0.
         25    2    1    2    0    0 -0.33047085404E+02  0.29918070135E+02  0.99877030618E+02  0.16609468940E+03  0.12499929530E+03 0.  0.
          5    1    4    4  502    0 -0.14005448901E+02 -0.32549240897E+02  0.93751712068E+02  0.10033483541E+03  0.47000000000E+01 0. -1.
         -5    1    4    4    0  502 -0.19041636503E+02  0.62467311031E+02  0.61253185497E+01  0.65759853981E+02  0.47000000000E+01 0. -1.
          5    1    3    3  503    0 -0.44026504938E+02  0.69115368542E+01 -0.33826158123E+02  0.56146250562E+02  0.47000000000E+01 0. -1.
         -5    1    3    3    0  503  0.77073590342E+02 -0.36829606989E+02 -0.25935965619E+02  0.89395316386E+02  0.47000000000E+01 0. -1.
<mgrwt>
<rscale>  0 0.13270918E+03</rscale>
<asrwt>0</asrwt>
<pdfrwt beam="1">  1        5 0.27057782E-01 0.13271030E+03</pdfrwt>
<pdfrwt beam="2">  1       -5 0.20886258E-01 0.13271030E+03</pdfrwt>
<totfact> 0.20024323E+02</totfact>
</mgrwt>
</event>
<event>
 8    1  0.1865596E-007  0.1406367E+03  0.7546771E-02  0.1212479E+00
          5   -1    0    0  501    0  0.00000000000E+00  0.00000000000E+00  0.25671459540E+03  0.25675761622E+03  0.47000000000E+01 0. -1.
         -5   -1    0    0    0  501 -0.00000000000E+00 -0.00000000000E+00 -0.82328971738E+02  0.82463019514E+02  0.47000000000E+01 0. -1.
         25    2    1    2    0    0  0.58909931785E+02  0.26032534638E+02  0.43758129213E+02  0.14728694177E+03  0.12502238369E+03 0.  0.
         25    2    1    2    0    0 -0.58909931785E+02 -0.26032534638E+02  0.13062749444E+03  0.19193369396E+03  0.12500771037E+03 0.  0.
          5    1    3    3  502    0  0.91260903399E+02  0.28457672432E+01  0.53650759381E+02  0.10600540016E+03  0.47000000000E+01 0. -1.
         -5    1    3    3    0  502 -0.32350971614E+02  0.23186767395E+02 -0.98926301685E+01  0.41281541617E+02  0.47000000000E+01 0. -1.
          5    1    4    4  503    0  0.23438011006E+02 -0.38264943351E+02  0.86579843593E+02  0.97630454092E+02  0.47000000000E+01 0. -1.
         -5    1    4    4    0  503 -0.82347942791E+02  0.12232408713E+02  0.44047650852E+02  0.94303239872E+02  0.47000000000E+01 0. -1.
<mgrwt>
<rscale>  0 0.14063340E+03</rscale>
<asrwt>0</asrwt>
<pdfrwt beam="1">  1        5 0.39508173E-01 0.14063666E+03</pdfrwt>
<pdfrwt beam="2">  1       -5 0.12679617E-01 0.14063666E+03</pdfrwt>
<totfact> 0.23951190E+02</totfact>
</mgrwt>
</event>
<event>
 8    1  0.1865596E-007  0.1452445E+03  0.7546771E-02  0.1206443E+00
         -5   -1    0    0    0  501 -0.00000000000E+00  0.00000000000E+00  0.37712440318E+03  0.37715368946E+03  0.47000000000E+01 0. -1.
          5   -1    0    0  501    0  0.00000000000E+00 -0.00000000000E+00 -0.58335547863E+02  0.58524577268E+02  0.47000000000E+01 0. -1.
         25    2    1    2    0    0 -0.23909744881E+02  0.69981919339E+02  0.20465992756E+03  0.25096145134E+03  0.12500727650E+03 0.  0.
         25    2    1    2    0    0  0.23909744881E+02 -0.69981919339E+02  0.11412892775E+03  0.18471681538E+03  0.12500297916E+03 0.  0.
          5    1    4    4  502    0  0.60276223670E+02 -0.85418676522E+02  0.73720540292E+02  0.12800930240E+03  0.47000000000E+01 0.  1.
         -5    1    4    4    0  502 -0.36366478789E+02  0.15436757183E+02  0.40408387460E+02  0.56707512985E+02  0.47000000000E+01 0.  1.
          5    1    3    3  503    0 -0.70185771660E+02  0.12750382147E+02  0.10184542798E+03  0.12443149114E+03  0.47000000000E+01 0.  1.
         -5    1    3    3    0  503  0.46276026779E+02  0.57231537193E+02  0.10281449959E+03  0.12652996020E+03  0.47000000000E+01 0.  1.
<mgrwt>
<rscale>  0 0.14524357E+03</rscale>
<asrwt>0</asrwt>
<pdfrwt beam="2">  1        5 0.89914935E-02 0.14524450E+03</pdfrwt>
<pdfrwt beam="1">  1       -5 0.58035930E-01 0.14524450E+03</pdfrwt>
<totfact> 0.19689263E+02</totfact>
</mgrwt>
</event>
<event>
 8    1  0.1865596E-007  0.1295331E+03  0.7546771E-02  0.1228151E+00
          5   -1    0    0  501    0  0.00000000000E+00  0.00000000000E+00  0.33898835153E+03  0.33902093221E+03  0.47000000000E+01 0. -1.
         -5   -1    0    0    0  501 -0.00000000000E+00 -0.00000000000E+00 -0.63854661162E+02  0.64027398448E+02  0.47000000000E+01 0. -1.
         25    2    1    2    0    0  0.32004310087E+02  0.11331677667E+02  0.41690087856E+02  0.13607680802E+03  0.12500460581E+03 0.  0.
         25    2    1    2    0    0 -0.32004310087E+02 -0.11331677667E+02  0.23344360252E+03  0.26697152263E+03  0.12500078224E+03 0.  0.
          5    1    4    4  502    0 -0.66325694916E+02 -0.12044129833E+02  0.21942441260E+03  0.22959381898E+03  0.47000000000E+01 0. -1.
         -5    1    4    4    0  502  0.34321384829E+02  0.71245216572E+00  0.14019189917E+02  0.37377703656E+02  0.47000000000E+01 0. -1.
          5    1    3    3  503    0  0.75609818024E+02  0.18194979040E+02  0.47589228809E+02  0.91294723520E+02  0.47000000000E+01 0.  1.
         -5    1    3    3    0  503 -0.43605507938E+02 -0.68633013730E+01 -0.58991409534E+01  0.44782084501E+02  0.47000000000E+01 0.  1.
<mgrwt>
<rscale>  0 0.12953222E+03</rscale>
<asrwt>0</asrwt>
<pdfrwt beam="1">  1        5 0.52167848E-01 0.12953314E+03</pdfrwt>
<pdfrwt beam="2">  1       -5 0.98395878E-02 0.12953314E+03</pdfrwt>
<totfact> 0.20379953E+02</totfact>
</mgrwt>
</event>
<event>
 8    1  0.1865596E-007  0.1250301E+03  0.7546771E-02  0.1235024E+00
          5   -1    0    0  501    0  0.00000000000E+00  0.00000000000E+00  0.71506318237E+03  0.71507862839E+03  0.47000000000E+01 0. -1.
         -5   -1    0    0    0  501 -0.00000000000E+00 -0.00000000000E+00 -0.50587111522E+02  0.50804978616E+02  0.47000000000E+01 0. -1.
         25    2    1    2    0    0 -0.56296068406E+00 -0.27227837227E+01  0.43395786392E+02  0.13234336166E+03  0.12499536240E+03 0.  0.
         25    2    1    2    0    0  0.56296068406E+00  0.27227837227E+01  0.62108028446E+03  0.63354024535E+03  0.12499916904E+03 0.  0.
          5    1    4    4  502    0  0.50714282497E+02 -0.24662830313E+02  0.43937344790E+03  0.44300260763E+03  0.47000000000E+01 0. -1.
         -5    1    4    4    0  502 -0.50151321813E+02  0.27385614035E+02  0.18170683656E+03  0.19053763772E+03  0.47000000000E+01 0. -1.
          5    1    3    3  503    0  0.11996448800E+02 -0.51173763180E+01  0.86259862673E+02  0.87366791361E+02  0.47000000000E+01 0. -1.
         -5    1    3    3    0  503 -0.12559409484E+02  0.23945925953E+01 -0.42864076282E+02  0.44976570298E+02  0.47000000000E+01 0. -1.
<mgrwt>
<rscale>  0 0.12502914E+03</rscale>
<asrwt>0</asrwt>
<pdfrwt beam="1">  1        5 0.11002766E+00 0.12503009E+03</pdfrwt>
<pdfrwt beam="2">  1       -5 0.78005804E-02 0.12503009E+03</pdfrwt>
<totfact> 0.54309328E+01</totfact>
</mgrwt>
</event>
<event>
 8    1  0.1865596E-007  0.1483112E+03  0.7546771E-02  0.1202567E+00
          5   -1    0    0  501    0  0.00000000000E+00  0.00000000000E+00  0.58796695162E+03  0.58798573639E+03  0.47000000000E+01 0. -1.
         -5   -1    0    0    0  501 -0.00000000000E+00 -0.00000000000E+00 -0.42841296224E+02  0.43098337116E+02  0.47000000000E+01 0. -1.
         25    2    1    2    0    0 -0.15704310633E+02 -0.78244978580E+02  0.15887759410E+03  0.21734375670E+03  0.12500926616E+03 0.  0.
         25    2    1    2    0    0  0.15704310633E+02  0.78244978580E+02  0.38624806130E+03  0.41374031681E+03  0.12499833138E+03 0.  0.
          5    1    4    4  502    0 -0.14423737212E+02  0.98648034157E+02  0.34196864960E+03  0.35623605397E+03  0.47000000000E+01 0.  1.
         -5    1    4    4    0  502  0.30128047846E+02 -0.20403055577E+02  0.44279411701E+02  0.57504262837E+02  0.47000000000E+01 0.  1.
          5    1    3    3  503    0 -0.46309053562E+02 -0.21518871047E+02  0.63278788233E+01  0.51669355554E+02  0.47000000000E+01 0. -1.
         -5    1    3    3    0  503  0.30604742929E+02 -0.56726107533E+02  0.15254971527E+03  0.16567440115E+03  0.47000000000E+01 0. -1.
<mgrwt>
<rscale>  0 0.14830892E+03</rscale>
<asrwt>0</asrwt>
<pdfrwt beam="1">  1        5 0.90477665E-01 0.14831122E+03</pdfrwt>
<pdfrwt beam="2">  1       -5 0.66121865E-02 0.14831122E+03</pdfrwt>
<totfact> 0.12227416E+02</totfact>
</mgrwt>
</event>
<event>
 8    1  0.1865596E-007  0.1285652E+03  0.7546771E-02  0.1229606E+00
          5   -1    0    0  501    0  0.00000000000E+00  0.00000000000E+00  0.20913831522E+02  0.21435446087E+02  0.47000000000E+01 0. -1.
         -5   -1    0    0    0  501 -0.00000000000E+00 -0.00000000000E+00 -0.84494478857E+03  0.84495786033E+03  0.47000000000E+01 0. -1.
         25    2    1    2    0    0 -0.29810265053E+02  0.33739131931E+01 -0.53207446376E+03  0.54738294459E+03  0.12499927143E+03 0.  0.
         25    2    1    2    0    0  0.29810265053E+02 -0.33739131931E+01 -0.29195649329E+03  0.31901036182E+03  0.12501592611E+03 0.  0.
          5    1    4    4  502    0  0.46581956576E+02 -0.78598242094E+00 -0.29701959048E+03  0.30068791724E+03  0.47000000000E+01 0. -1.
         -5    1    4    4    0  502 -0.16771691522E+02 -0.25879307721E+01  0.50630971891E+01  0.18322444579E+02  0.47000000000E+01 0. -1.
          5    1    3    3  503    0 -0.26724226136E+02  0.62949744648E+02 -0.29764032830E+03  0.30543200495E+03  0.47000000000E+01 0.  1.
         -5    1    3    3    0  503 -0.30860389173E+01 -0.59575831455E+02 -0.23443413545E+03  0.24195093964E+03  0.47000000000E+01 0.  1.
<mgrwt>
<rscale>  0 0.12856118E+03</rscale>
<asrwt>0</asrwt>
<pdfrwt beam="1">  1        5 0.32586429E-02 0.12856522E+03</pdfrwt>
<pdfrwt beam="2">  1       -5 0.13003261E+00 0.12856522E+03</pdfrwt>
<totfact> 0.15293324E+02</totfact>
</mgrwt>
</event>
<event>
 8    1  0.1865596E-007  0.1359206E+03  0.7546771E-02  0.1218934E+00
          5   -1    0    0  501    0  0.00000000000E+00  0.00000000000E+00  0.48205528068E+03  0.48207819244E+03  0.47000000000E+01 0.  1.
         -5   -1    0    0    0  501 -0.00000000000E+00 -0.00000000000E+00 -0.38769731046E+02  0.39053579163E+02  0.47000000000E+01 0.  1.
         25    2    1    2    0    0  0.27692176502E+02  0.45622709028E+02  0.18884142762E+03  0.23267034003E+03  0.12500445642E+03 0.  0.
         25    2    1    2    0    0 -0.27692176502E+02 -0.45622709028E+02  0.25444412201E+03  0.28846143158E+03  0.12497959058E+03 0.  0.
          5    1    4    4  502    0 -0.64921755564E+01 -0.10065661806E+02 -0.12705369451E+02  0.18082652016E+02  0.47000000000E+01 0. -1.
         -5    1    4    4    0  502 -0.21200000945E+02 -0.35557047222E+02  0.26714949146E+03  0.27037877956E+03  0.47000000000E+01 0. -1.
          5    1    3    3  503    0  0.39576199711E+02  0.84460428371E+02  0.11381976997E+03  0.14723066794E+03  0.47000000000E+01 0. -1.
         -5    1    3    3    0  503 -0.11884023209E+02 -0.38837719343E+02  0.75021657644E+02  0.85439672091E+02  0.47000000000E+01 0. -1.
<mgrwt>
<rscale>  0 0.13591486E+03</rscale>
<asrwt>0</asrwt>
<pdfrwt beam="1">  1        5 0.74185950E-01 0.13592057E+03</pdfrwt>
<pdfrwt beam="2">  1       -5 0.59881707E-02 0.13592057E+03</pdfrwt>
<totfact> 0.22296087E+02</totfact>
</mgrwt>
</event>
<event>
 8    1  0.1865596E-007  0.1331052E+03  0.7546771E-02  0.1222922E+00
         -5   -1    0    0    0  501 -0.00000000000E+00  0.00000000000E+00  0.16047643956E+04  0.16047712782E+04  0.47000000000E+01 0.  1.
          5   -1    0    0  501    0  0.00000000000E+00 -0.00000000000E+00 -0.10568523652E+02  0.11566490054E+02  0.47000000000E+01 0.  1.
         25    2    1    2    0    0 -0.11123613777E+02  0.44344333752E+02  0.84243417528E+03  0.85288471645E+03  0.12500738044E+03 0.  0.
         25    2    1    2    0    0  0.11123613777E+02 -0.44344333752E+02  0.75176169671E+03  0.76345305185E+03  0.12499903611E+03 0.  0.
          5    1    4    4  502    0 -0.52476477601E+02 -0.35797750505E+02  0.26990902939E+03  0.27732333798E+03  0.47000000000E+01 0.  1.
         -5    1    4    4    0  502  0.63600091379E+02 -0.85465832472E+01  0.48185266731E+03  0.48612971387E+03  0.47000000000E+01 0.  1.
          5    1    3    3  503    0  0.46955805317E+02 -0.11244330555E+02  0.22150760626E+03  0.22675756273E+03  0.47000000000E+01 0. -1.
         -5    1    3    3    0  503 -0.58079419095E+02  0.55588664307E+02  0.62092656901E+03  0.62612715372E+03  0.47000000000E+01 0. -1.
<mgrwt>
<rscale>  0 0.13310326E+03</rscale>
<asrwt>0</asrwt>
<pdfrwt beam="2">  1        5 0.17032226E-02 0.13310522E+03</pdfrwt>
<pdfrwt beam="1">  1       -5 0.24696415E+00 0.13310522E+03</pdfrwt>
<totfact> 0.64109651E+01</totfact>
</mgrwt>
</event>
<event>
 8    1  0.1865596E-007  0.1287773E+03  0.7546771E-02  0.1229283E+00
          5   -1    0    0  501    0  0.00000000000E+00  0.00000000000E+00  0.66050088286E+03  0.66051760481E+03  0.47000000000E+01 0. -1.
         -5   -1    0    0    0  501 -0.00000000000E+00 -0.00000000000E+00 -0.29054842497E+02  0.29432530855E+02  0.47000000000E+01 0. -1.
         25    2    1    2    0    0 -0.54474531413E+01  0.30466563194E+02  0.18573922317E+03  0.22601246967E+03  0.12499876482E+03 0.  0.
         25    2    1    2    0    0  0.54474531413E+01 -0.30466563194E+02  0.44570681720E+03  0.46393766599E+03  0.12500281920E+03 0.  0.
          5    1    3    3  502    0 -0.54794284825E+02  0.38274459602E+02  0.57459334885E+02  0.88266715543E+02  0.47000000000E+01 0. -1.
         -5    1    3    3    0  502  0.49346831684E+02 -0.78078964073E+01  0.12827988828E+03  0.13774575413E+03  0.47000000000E+01 0. -1.
          5    1    4    4  503    0 -0.46803761810E+02  0.90633885304E+00  0.77284021528E+02  0.90478304323E+02  0.47000000000E+01 0.  1.
         -5    1    4    4    0  503  0.52251214951E+02 -0.31372902047E+02  0.36842279567E+03  0.37345936167E+03  0.47000000000E+01 0.  1.
<mgrwt>
<rscale>  0 0.12877631E+03</rscale>
<asrwt>0</asrwt>
<pdfrwt beam="1">  1        5 0.10164585E+00 0.12877729E+03</pdfrwt>
<pdfrwt beam="2">  1       -5 0.45003154E-02 0.12877729E+03</pdfrwt>
<totfact> 0.16776256E+02</totfact>
</mgrwt>
</event>
<event>
 8    1  0.1865596E-007  0.1265740E+03  0.7546771E-02  0.1232632E+00
         -5   -1    0    0    0  501 -0.00000000000E+00  0.00000000000E+00  0.15808893072E+04  0.15808962937E+04  0.47000000000E+01 0. -1.
          5   -1    0    0  501    0  0.00000000000E+00 -0.00000000000E+00 -0.10222519244E+02  0.11251217699E+02  0.47000000000E+01 0. -1.
         25    2    1    2    0    0 -0.68434759950E+01  0.18644613452E+02  0.97508234291E+03  0.98326321842E+03  0.12500610573E+03 0.  0.
         25    2    1    2    0    0  0.68434759950E+01 -0.18644613452E+02  0.59558444502E+03  0.60888429301E+03  0.12499918540E+03 0.  0.
          5    1    3    3  502    0  0.23478719096E+02 -0.47228704688E+02  0.47164500105E+03  0.47460815186E+03  0.47000000000E+01 0.  1.
         -5    1    3    3    0  502 -0.30322195091E+02  0.65873318140E+02  0.50343734185E+03  0.50865506655E+03  0.47000000000E+01 0.  1.
          5    1    4    4  503    0 -0.11515216046E+02 -0.58004314183E+02  0.50328473395E+03  0.50676889614E+03  0.47000000000E+01 0.  1.
         -5    1    4    4    0  503  0.18358692041E+02  0.39359700731E+02  0.92299711067E+02  0.10211539687E+03  0.47000000000E+01 0.  1.
<mgrwt>
<rscale>  0 0.12657231E+03</rscale>
<asrwt>0</asrwt>
<pdfrwt beam="2">  1        5 0.16523633E-02 0.12657401E+03</pdfrwt>
<pdfrwt beam="1">  1       -5 0.24329341E+00 0.12657401E+03</pdfrwt>
<totfact> 0.69901510E+01</totfact>
</mgrwt>
</event>
<event>
 8    1  0.1865596E-007  0.1257273E+03  0.7546771E-02  0.1233942E+00
          5   -1    0    0  501    0  0.00000000000E+00  0.00000000000E+00  0.14473426856E+03  0.14481056072E+03  0.47000000000E+01 0. -1.
         -5   -1    0    0    0  501 -0.00000000000E+00 -0.00000000000E+00 -0.11091641697E+03  0.11101595179E+03  0.47000000000E+01 0. -1.
         25    2    1    2    0    0 -0.13333461386E+02  0.22711471119E+01  0.32628286029E+00  0.12571491189E+03  0.12498477231E+03 0.  0.
         25    2    1    2    0    0  0.13333461386E+02 -0.22711471119E+01  0.33491568733E+02  0.13011160062E+03  0.12499761653E+03 0.  0.
          5    1    4    4  502    0 -0.34293506567E+02  0.30720066501E+02  0.51517947761E+02  0.69252841241E+02  0.47000000000E+01 0. -1.
         -5    1    4    4    0  502  0.47626967953E+02 -0.32991213613E+02 -0.18026379028E+02  0.60858759377E+02  0.47000000000E+01 0. -1.
          5    1    3    3  503    0  0.46786100991E+02 -0.31226606243E+02  0.43664220412E+01  0.56614448906E+02  0.47000000000E+01 0.  1.
         -5    1    3    3    0  503 -0.60119562378E+02  0.33497753355E+02 -0.40401391809E+01  0.69100462986E+02  0.47000000000E+01 0.  1.
<mgrwt>
<rscale>  0 0.12572407E+03</rscale>
<asrwt>0</asrwt>
<pdfrwt beam="1">  1        5 0.22280336E-01 0.12572726E+03</pdfrwt>
<pdfrwt beam="2">  1       -5 0.17077589E-01 0.12572726E+03</pdfrwt>
<totfact> 0.41313843E+02</totfact>
</mgrwt>
</event>
<event>
 8    1  0.1865596E-007  0.1286955E+03  0.7546771E-02  0.1229405E+00
          5   -1    0    0  501    0  0.00000000000E+00  0.00000000000E+00  0.11120879139E+03  0.11130806477E+03  0.47000000000E+01 0.  1.
         -5   -1    0    0    0  501 -0.00000000000E+00 -0.00000000000E+00 -0.14994055741E+03  0.15001420184E+03  0.47000000000E+01 0.  1.
         25    2    1    2    0    0  0.18824236086E+02 -0.24114556799E+02 -0.31110586130E+02  0.13240242829E+03  0.12500668276E+03 0.  0.
         25    2    1    2    0    0 -0.18824236086E+02  0.24114556799E+02 -0.76211798840E+01  0.12891983832E+03  0.12500551434E+03 0.  0.
          5    1    3    3  502    0 -0.52119478998E+02  0.19071189961E+01 -0.19121172238E+02  0.55747523906E+02  0.47000000000E+01 0. -1.
         -5    1    3    3    0  502  0.70943715084E+02 -0.26021675795E+02 -0.11989413891E+02  0.76654904386E+02  0.47000000000E+01 0. -1.
          5    1    4    4  503    0  0.19856552510E+02  0.53270961916E+02  0.32671145974E+02  0.65738663208E+02  0.47000000000E+01 0. -1.
         -5    1    4    4    0  503 -0.38680788596E+02 -0.29156405118E+02 -0.40292325858E+02  0.63181175114E+02  0.47000000000E+01 0. -1.
<mgrwt>
<rscale>  0 0.12869523E+03</rscale>
<asrwt>0</asrwt>
<pdfrwt beam="1">  1        5 0.17122346E-01 0.12869551E+03</pdfrwt>
<pdfrwt beam="2">  1       -5 0.23081079E-01 0.12869551E+03</pdfrwt>
<totfact> 0.38795506E+02</totfact>
</mgrwt>
</event>
<event>
 8    1  0.1865596E-007  0.1361785E+03  0.7546771E-02  0.1218574E+00
         -5   -1    0    0    0  501 -0.00000000000E+00  0.00000000000E+00  0.90467362192E+02  0.90589368151E+02  0.47000000000E+01 0.  1.
          5   -1    0    0  501    0  0.00000000000E+00 -0.00000000000E+00 -0.21412994073E+03  0.21418151535E+03  0.47000000000E+01 0.  1.
         25    2    1    2    0    0  0.24294796577E+01 -0.53984069213E+02 -0.29810275805E+02  0.13940311487E+03  0.12499757514E+03 0.  0.
         25    2    1    2    0    0 -0.24294796577E+01  0.53984069213E+02 -0.93852302730E+02  0.16536776863E+03  0.12497224521E+03 0.  0.
          5    1    4    4  502    0 -0.23808053822E+02 -0.58721194772E-01  0.23843288901E+02  0.34020865665E+02  0.47000000000E+01 0.  1.
         -5    1    4    4    0  502  0.21378574165E+02  0.54042790408E+02 -0.11769559163E+03  0.13134690296E+03  0.47000000000E+01 0.  1.
          5    1    3    3  503    0 -0.38368174377E+02 -0.55723988187E+02  0.23777698192E+02  0.71866185344E+02  0.47000000000E+01 0. -1.
         -5    1    3    3    0  503  0.40797654035E+02  0.17399189740E+01 -0.53587973998E+02  0.67536929527E+02  0.47000000000E+01 0. -1.
<mgrwt>
<rscale>  0 0.13617266E+03</rscale>
<asrwt>0</asrwt>
<pdfrwt beam="2">  1        5 0.32956420E-01 0.13617847E+03</pdfrwt>
<pdfrwt beam="1">  1       -5 0.13931408E-01 0.13617847E+03</pdfrwt>
<totfact> 0.28840362E+02</totfact>
</mgrwt>
</event>
<event>
 8    1  0.1865596E-007  0.1254565E+03  0.7546771E-02  0.1234359E+00
         -5   -1    0    0    0  501 -0.00000000000E+00  0.00000000000E+00  0.42760941465E+02  0.43018462490E+02  0.47000000000E+01 0. -1.
          5   -1    0    0  501    0  0.00000000000E+00 -0.00000000000E+00 -0.37036664470E+03  0.37039646530E+03  0.47000000000E+01 0. -1.
         25    2    1    2    0    0  0.65233679391E+01  0.84763325963E+01 -0.18439427319E+03  0.22302360045E+03  0.12499550323E+03 0.  0.
         25    2    1    2    0    0 -0.65233679391E+01 -0.84763325963E+01 -0.14321143005E+03  0.19039132734E+03  0.12499976515E+03 0.  0.
          5    1    4    4  502    0 -0.21263289264E+02  0.48394029760E+02 -0.25776881472E+02  0.58997010138E+02  0.47000000000E+01 0. -1.
         -5    1    4    4    0  502  0.14739921324E+02 -0.56870362357E+02 -0.11743454857E+03  0.13139431721E+03  0.47000000000E+01 0. -1.
          5    1    3    3  503    0  0.16598713796E+02 -0.63021208764E+01  0.14420158153E+02  0.23350909798E+02  0.47000000000E+01 0. -1.
         -5    1    3    3    0  503 -0.10075345857E+02  0.14778453473E+02 -0.19881443134E+03  0.19967269065E+03  0.47000000000E+01 0. -1.
<mgrwt>
<rscale>  0 0.12545548E+03</rscale>
<asrwt>0</asrwt>
<pdfrwt beam="2">  1        5 0.57001585E-01 0.12545654E+03</pdfrwt>
<pdfrwt beam="1">  1       -5 0.66007098E-02 0.12545654E+03</pdfrwt>
<totfact> 0.33011320E+02</totfact>
</mgrwt>
</event>
<event>
 8    1  0.1865596E-007  0.1490440E+03  0.7546771E-02  0.1201653E+00
          5   -1    0    0  501    0  0.00000000000E+00  0.00000000000E+00  0.18664013928E+03  0.18669930795E+03  0.47000000000E+01 0. -1.
         -5   -1    0    0    0  501 -0.00000000000E+00 -0.00000000000E+00 -0.11895239408E+03  0.11904521014E+03  0.47000000000E+01 0. -1.
         25    2    1    2    0    0 -0.74848810404E+02 -0.31406841643E+02  0.30475551509E+02  0.15212779514E+03  0.12500149077E+03 0.  0.
         25    2    1    2    0    0  0.74848810404E+02  0.31406841643E+02  0.37212193685E+02  0.15361672295E+03  0.12499846435E+03 0.  0.
          5    1    3    3  502    0  0.16687948323E+02 -0.45947216371E+02 -0.11240795428E+02  0.50379358802E+02  0.47000000000E+01 0.  1.
         -5    1    3    3    0  502 -0.91536758727E+02  0.14540374728E+02  0.41716346937E+02  0.10174843634E+03  0.47000000000E+01 0.  1.
          5    1    4    4  503    0  0.10034107646E+02  0.64451546848E+02 -0.10856557152E+02  0.66292081281E+02  0.47000000000E+01 0. -1.
         -5    1    4    4    0  503  0.64814702759E+02 -0.33044705205E+02  0.48068750838E+02  0.87324641671E+02  0.47000000000E+01 0. -1.
<mgrwt>
<rscale>  0 0.14904334E+03</rscale>
<asrwt>0</asrwt>
<pdfrwt beam="1">  1        5 0.28725558E-01 0.14904398E+03</pdfrwt>
<pdfrwt beam="2">  1       -5 0.18312060E-01 0.14904398E+03</pdfrwt>
<totfact> 0.23677925E+02</totfact>
</mgrwt>
</event>
<event>
 8    1  0.1865596E-007  0.1261300E+03  0.7546771E-02  0.1233318E+00
         -5   -1    0    0    0  501 -0.00000000000E+00  0.00000000000E+00  0.62673898700E+01  0.78339119080E+01  0.47000000000E+01 0.  1.
          5   -1    0    0  501    0  0.00000000000E+00 -0.00000000000E+00 -0.23272415341E+04  0.23272462800E+04  0.47000000000E+01 0.  1.
         25    2    1    2    0    0 -0.15986209884E+02 -0.52149003800E+01 -0.95425741258E+03  0.96255572652E+03  0.12499425226E+03 0.  0.
         25    2    1    2    0    0  0.15986209884E+02  0.52149003800E+01 -0.13667167316E+04  0.13725244654E+04  0.12500411827E+03 0.  0.
          5    1    4    4  502    0 -0.49722163881E+02 -0.19932125678E+02 -0.70984794531E+03  0.71188185724E+03  0.47000000000E+01 0. -1.
         -5    1    4    4    0  502  0.65708373765E+02  0.25147026058E+02 -0.65686878633E+03  0.66064260819E+03  0.47000000000E+01 0. -1.
          5    1    3    3  503    0  0.34472976371E+02 -0.48327683314E+02 -0.46225198081E+03  0.46607181296E+03  0.47000000000E+01 0. -1.
         -5    1    3    3    0  503 -0.50459186256E+02  0.43112782934E+02 -0.49200543177E+03  0.49648391356E+03  0.47000000000E+01 0. -1.
<mgrwt>
<rscale>  0 0.12612758E+03</rscale>
<asrwt>0</asrwt>
<pdfrwt beam="2">  1        5 0.35815741E+00 0.12613003E+03</pdfrwt>
<pdfrwt beam="1">  1       -5 0.10850825E-02 0.12613003E+03</pdfrwt>
<totfact> 0.24991694E+01</totfact>
</mgrwt>
</event>
<event>
 8    1  0.1865596E-007  0.1472050E+03  0.7546771E-02  0.1203953E+00
         -5   -1    0    0    0  501 -0.00000000000E+00  0.00000000000E+00  0.27195995549E+02  0.27599133572E+02  0.47000000000E+01 0.  1.
          5   -1    0    0  501    0  0.00000000000E+00 -0.00000000000E+00 -0.89055061360E+03  0.89056301595E+03  0.47000000000E+01 0.  1.
         25    2    1    2    0    0  0.55389069387E+02 -0.54538734424E+02 -0.27779634010E+03  0.31438420947E+03  0.12499680808E+03 0.  0.
         25    2    1    2    0    0 -0.55389069387E+02  0.54538734424E+02 -0.58555827795E+03  0.60377794006E+03  0.12500752562E+03 0.  0.
          5    1    3    3  502    0 -0.14179778937E+02 -0.73371343013E+02 -0.14699379801E+03  0.16496571390E+03  0.47000000000E+01 0.  1.
         -5    1    3    3    0  502  0.69568848323E+02  0.18832608589E+02 -0.13080254209E+03  0.14941849557E+03  0.47000000000E+01 0.  1.
          5    1    4    4  503    0 -0.57636274871E+01  0.48479848073E+02 -0.51413668333E+03  0.51647084547E+03  0.47000000000E+01 0.  1.
         -5    1    4    4    0  503 -0.49625441899E+02  0.60588863511E+01 -0.71421594620E+02  0.87307094589E+02  0.47000000000E+01 0.  1.
<mgrwt>
<rscale>  0 0.14720270E+03</rscale>
<asrwt>0</asrwt>
<pdfrwt beam="2">  1        5 0.13703973E+00 0.14720497E+03</pdfrwt>
<pdfrwt beam="1">  1       -5 0.42159646E-02 0.14720497E+03</pdfrwt>
<totfact> 0.91380280E+01</totfact>
</mgrwt>
</event>
<event>
 8    1  0.1865596E-007  0.1458899E+03  0.7546771E-02  0.1205618E+00
         -5   -1    0    0    0  501 -0.00000000000E+00  0.00000000000E+00  0.17756674883E+03  0.17762893990E+03  0.47000000000E+01 0.  1.
          5   -1    0    0  501    0  0.00000000000E+00 -0.00000000000E+00 -0.12394242846E+03  0.12403151040E+03  0.47000000000E+01 0.  1.
         25    2    1    2    0    0 -0.29283912090E+02 -0.69286853061E+02  0.54599845564E+02  0.15577232025E+03  0.12500262840E+03 0.  0.
         25    2    1    2    0    0  0.29283912090E+02  0.69286853061E+02 -0.97552519568E+00  0.14588813005E+03  0.12499671725E+03 0.  0.
          5    1    3    3  502    0  0.85294162246E+01 -0.48855483189E+02 -0.31839776272E+02  0.59122504445E+02  0.47000000000E+01 0. -1.
         -5    1    3    3    0  502 -0.37813328314E+02 -0.20431369871E+02  0.86439621835E+02  0.96649815810E+02  0.47000000000E+01 0. -1.
          5    1    4    4  503    0 -0.45957125972E+02  0.63674059611E+01  0.78817730491E+01  0.47294964136E+02  0.47000000000E+01 0. -1.
         -5    1    4    4    0  503  0.75241038061E+02  0.62919447100E+02 -0.88572982447E+01  0.98593165910E+02  0.47000000000E+01 0. -1.
<mgrwt>
<rscale>  0 0.14588867E+03</rscale>
<asrwt>0</asrwt>
<pdfrwt beam="2">  1        5 0.19079702E-01 0.14588993E+03</pdfrwt>
<pdfrwt beam="1">  1       -5 0.27329598E-01 0.14588993E+03</pdfrwt>
<totfact> 0.24004722E+02</totfact>
</mgrwt>
</event>
<event>
 8    1  0.1865596E-007  0.1900382E+03  0.7546771E-02  0.1158428E+00
         -5   -1    0    0    0  501 -0.00000000000E+00  0.00000000000E+00  0.36527456846E+03  0.36530480474E+03  0.47000000000E+01 0.  1.
          5   -1    0    0  501    0  0.00000000000E+00 -0.00000000000E+00 -0.98780919349E+02  0.98892669230E+02  0.47000000000E+01 0.  1.
         25    2    1    2    0    0  0.10831984649E+03 -0.93566804666E+02  0.13474676294E+03  0.23295788733E+03  0.12499900427E+03 0.  0.
         25    2    1    2    0    0 -0.10831984649E+03  0.93566804666E+02  0.13174688618E+03  0.23123958664E+03  0.12500627317E+03 0.  0.
          5    1    3    3  502    0  0.54148528097E+02 -0.81992905962E+02  0.14618374498E+03  0.17620067258E+03  0.47000000000E+01 0. -1.
         -5    1    3    3    0  502  0.54171318391E+02 -0.11573898703E+02 -0.11436982043E+02  0.56757214746E+02  0.47000000000E+01 0. -1.
          5    1    4    4  503    0  0.17529203974E+02  0.41959694918E+02  0.65489774767E+02  0.79867950948E+02  0.47000000000E+01 0. -1.
         -5    1    4    4    0  503 -0.12584905046E+03  0.51607109748E+02  0.66257111409E+02  0.15137163569E+03  0.47000000000E+01 0. -1.
<mgrwt>
<rscale>  0 0.19003697E+03</rscale>
<asrwt>0</asrwt>
<pdfrwt beam="2">  1        5 0.15207986E-01 0.19003817E+03</pdfrwt>
<pdfrwt beam="1">  1       -5 0.56207011E-01 0.19003817E+03</pdfrwt>
<totfact> 0.90135160E+01</totfact>
</mgrwt>
</event>
<event>
 8    1  0.1865596E-007  0.1252430E+03  0.7546771E-02  0.1234692E+00
         -5   -1    0    0    0  501 -0.00000000000E+00  0.00000000000E+00  0.47322807332E+03  0.47325141244E+03  0.47000000000E+01 0.  1.
          5   -1    0    0  501    0  0.00000000000E+00 -0.00000000000E+00 -0.70377766389E+02  0.70534530565E+02  0.47000000000E+01 0.  1.
         25    2    1    2    0    0  0.38864610072E+01 -0.66253841565E+01  0.39931391853E+03  0.41849303203E+03  0.12500324807E+03 0.  0.
         25    2    1    2    0    0 -0.38864610072E+01  0.66253841565E+01  0.35363883954E+01  0.12529291098E+03  0.12500722860E+03 0.  0.
          5    1    4    4  502    0  0.50172273910E+02 -0.13063890103E+02  0.31819229016E+02  0.61012094122E+02  0.47000000000E+01 0. -1.
         -5    1    4    4    0  502 -0.54058734918E+02  0.19689274260E+02 -0.28282840620E+02  0.64280816853E+02  0.47000000000E+01 0. -1.
          5    1    3    3  503    0  0.32101753302E+01 -0.61806621067E+02  0.13712550283E+03  0.15051862729E+03  0.47000000000E+01 0.  1.
         -5    1    3    3    0  503  0.67628567704E+00  0.55181236911E+02  0.26218841570E+03  0.26797440474E+03  0.47000000000E+01 0.  1.
<mgrwt>
<rscale>  0 0.12524200E+03</rscale>
<asrwt>0</asrwt>
<pdfrwt beam="2">  1        5 0.10841203E-01 0.12524299E+03</pdfrwt>
<pdfrwt beam="1">  1       -5 0.72818169E-01 0.12524299E+03</pdfrwt>
<totfact> 0.81728327E+01</totfact>
</mgrwt>
</event>
<event>
 8    1  0.1865596E-007  0.1449484E+03  0.7546771E-02  0.1206823E+00
         -5   -1    0    0    0  501 -0.00000000000E+00  0.00000000000E+00  0.24512566454E+03  0.24517071892E+03  0.47000000000E+01 0. -1.
          5   -1    0    0  501    0  0.00000000000E+00 -0.00000000000E+00 -0.86194257425E+02  0.86322303103E+02  0.47000000000E+01 0. -1.
         25    2    1    2    0    0 -0.57802773313E+02 -0.45195791150E+02  0.93309490461E+02  0.17238209788E+03  0.12500042608E+03 0.  0.
         25    2    1    2    0    0  0.57802773313E+02  0.45195791150E+02  0.65621916654E+02  0.15911092414E+03  0.12500492028E+03 0.  0.
          5    1    4    4  502    0  0.71256132726E+02 -0.10636476021E+02  0.56024315132E+00  0.72200934520E+02  0.47000000000E+01 0.  1.
         -5    1    4    4    0  502 -0.13453359413E+02  0.55832267171E+02  0.65061673503E+02  0.86909989621E+02  0.47000000000E+01 0.  1.
          5    1    3    3  503    0 -0.42026331112E+02 -0.79814085838E+02  0.98562959381E+02  0.13369086643E+03  0.47000000000E+01 0. -1.
         -5    1    3    3    0  503 -0.15776442201E+02  0.34618294688E+02 -0.52534689202E+01  0.38691231453E+02  0.47000000000E+01 0. -1.
<mgrwt>
<rscale>  0 0.14494747E+03</rscale>
<asrwt>0</asrwt>
<pdfrwt beam="2">  1        5 0.13273971E-01 0.14494844E+03</pdfrwt>
<pdfrwt beam="1">  1       -5 0.37724955E-01 0.14494844E+03</pdfrwt>
<totfact> 0.24491373E+02</totfact>
</mgrwt>
</event>
<event>
 8    1  0.1865596E-007  0.1342310E+03  0.7546771E-02  0.1221310E+00
         -5   -1    0    0    0  501 -0.00000000000E+00  0.00000000000E+00  0.11825525693E+04  0.11825619092E+04  0.47000000000E+01 0.  1.
          5   -1    0    0  501    0  0.00000000000E+00 -0.00000000000E+00 -0.15690558677E+02  0.16379366031E+02  0.47000000000E+01 0.  1.
         25    2    1    2    0    0 -0.52728549472E+01 -0.48631999573E+02  0.71796049085E+03  0.73040073223E+03  0.12500035534E+03 0.  0.
         25    2    1    2    0    0  0.52728549472E+01  0.48631999573E+02  0.44890151975E+03  0.46854054301E+03  0.12499916651E+03 0.  0.
          5    1    4    4  502    0 -0.47976048094E+02  0.52647761673E+02  0.16746621090E+03  0.18204535092E+03  0.47000000000E+01 0. -1.
         -5    1    4    4    0  502  0.53248903042E+02 -0.40157621005E+01  0.28143530885E+03  0.28649519209E+03  0.47000000000E+01 0. -1.
          5    1    3    3  503    0 -0.49954859807E+02 -0.45077419637E+02  0.60550483504E+03  0.60925007758E+03  0.47000000000E+01 0.  1.
         -5    1    3    3    0  503  0.44682004860E+02 -0.35545799357E+01  0.11245565581E+03  0.12115065464E+03  0.47000000000E+01 0.  1.
<mgrwt>
<rscale>  0 0.13423073E+03</rscale>
<asrwt>0</asrwt>
<pdfrwt beam="2">  1        5 0.24676364E-02 0.13423101E+03</pdfrwt>
<pdfrwt beam="1">  1       -5 0.18198482E+00 0.13423101E+03</pdfrwt>
<totfact> 0.95933604E+01</totfact>
</mgrwt>
</event>
<event>
 8    1  0.1865596E-007  0.1428249E+03  0.7546771E-02  0.1209580E+00
          5   -1    0    0  501    0  0.00000000000E+00  0.00000000000E+00  0.15994196914E+03  0.16001101053E+03  0.47000000000E+01 0. -1.
         -5   -1    0    0    0  501 -0.00000000000E+00 -0.00000000000E+00 -0.12913297763E+03  0.12921848131E+03  0.47000000000E+01 0. -1.
         25    2    1    2    0    0  0.62024560411E+01 -0.68803438478E+02 -0.13689031285E+01  0.14283142890E+03  0.12500623816E+03 0.  0.
         25    2    1    2    0    0 -0.62024560411E+01  0.68803438478E+02  0.32177894639E+02  0.14639806294E+03  0.12499836928E+03 0.  0.
          5    1    3    3  502    0  0.51716218456E+02 -0.27431728505E+02  0.37723340467E+02  0.69801199102E+02  0.47000000000E+01 0.  1.
         -5    1    3    3    0  502 -0.45513762415E+02 -0.41371709973E+02 -0.39092243595E+02  0.73030229799E+02  0.47000000000E+01 0.  1.
          5    1    4    4  503    0 -0.45141687418E+02  0.19603246795E+02 -0.30089841083E+02  0.57875277660E+02  0.47000000000E+01 0.  1.
         -5    1    4    4    0  503  0.38939231377E+02  0.49200191683E+02  0.62267735722E+02  0.88522785280E+02  0.47000000000E+01 0.  1.
<mgrwt>
<rscale>  0 0.14282315E+03</rscale>
<asrwt>0</asrwt>
<pdfrwt beam="1">  1        5 0.24618345E-01 0.14282487E+03</pdfrwt>
<pdfrwt beam="2">  1       -5 0.19878500E-01 0.14282487E+03</pdfrwt>
<totfact> 0.27004513E+02</totfact>
</mgrwt>
</event>
<event>
 8    1  0.1865596E-007  0.2175493E+03  0.7546771E-02  0.1135724E+00
         -5   -1    0    0    0  501 -0.00000000000E+00  0.00000000000E+00  0.22330588088E+03  0.22335533671E+03  0.47000000000E+01 0.  1.
          5   -1    0    0  501    0  0.00000000000E+00 -0.00000000000E+00 -0.23389863417E+03  0.23394585072E+03  0.47000000000E+01 0.  1.
         25    2    1    2    0    0  0.14184049874E+03  0.10762244444E+03  0.64907762344E+02  0.22702303202E+03  0.12500048730E+03 0.  0.
         25    2    1    2    0    0 -0.14184049874E+03 -0.10762244444E+03 -0.75500515632E+02  0.23027815541E+03  0.12500553336E+03 0.  0.
          5    1    4    4  502    0  0.11429574740E+02 -0.27746184589E+02  0.16351467072E+02  0.34495599913E+02  0.47000000000E+01 0. -1.
         -5    1    4    4    0  502 -0.15327007348E+03 -0.79876259850E+02 -0.91851982705E+02  0.19578255550E+03  0.47000000000E+01 0. -1.
          5    1    3    3  503    0  0.78608264298E+02  0.11900090380E+03  0.11172618186E+02  0.14313417383E+03  0.47000000000E+01 0.  1.
         -5    1    3    3    0  503  0.63232234439E+02 -0.11378459363E+02  0.53735144158E+02  0.83888858183E+02  0.47000000000E+01 0.  1.
<mgrwt>
<rscale>  0 0.21754858E+03</rscale>
<asrwt>0</asrwt>
<pdfrwt beam="2">  1        5 0.35991842E-01 0.21754931E+03</pdfrwt>
<pdfrwt beam="1">  1       -5 0.34362187E-01 0.21754931E+03</pdfrwt>
<totfact> 0.50116112E+01</totfact>
</mgrwt>
</event>
<event>
 8    1  0.1865596E-007  0.1303424E+03  0.7546771E-02  0.1226949E+00
          5   -1    0    0  501    0  0.00000000000E+00  0.00000000000E+00  0.27184238071E+03  0.27188300784E+03  0.47000000000E+01 0. -1.
         -5   -1    0    0    0  501 -0.00000000000E+00 -0.00000000000E+00 -0.62456161880E+02  0.62632756260E+02  0.47000000000E+01 0. -1.
         25    2    1    2    0    0  0.28635738619E+02  0.23316484512E+02  0.98193835056E+02  0.16319060779E+03  0.12500192499E+03 0.  0.
         25    2    1    2    0    0 -0.28635738619E+02 -0.23316484512E+02  0.11119238378E+03  0.17132515631E+03  0.12499959599E+03 0.  0.
          5    1    3    3  502    0  0.51887847546E+02 -0.19337189258E+01 -0.68468260697E+01  0.52583809477E+02  0.47000000000E+01 0.  1.
         -5    1    3    3    0  502 -0.23252108927E+02  0.25250203438E+02  0.10504066113E+03  0.11060679831E+03  0.47000000000E+01 0.  1.
          5    1    4    4  503    0 -0.28697417421E+02  0.30803801280E+02  0.10901636466E+03  0.11695757224E+03  0.47000000000E+01 0.  1.
         -5    1    4    4    0  503  0.61678801342E-01 -0.54120285792E+02  0.21760191147E+01  0.54367584071E+02  0.47000000000E+01 0.  1.
<mgrwt>
<rscale>  0 0.13034186E+03</rscale>
<asrwt>0</asrwt>
<pdfrwt beam="1">  1        5 0.41838614E-01 0.13034242E+03</pdfrwt>
<pdfrwt beam="2">  1       -5 0.96253496E-02 0.13034242E+03</pdfrwt>
<totfact> 0.33687263E+02</totfact>
</mgrwt>
</event>
<event>
 8    1  0.1865596E-007  0.1272599E+03  0.7546771E-02  0.1231580E+00
         -5   -1    0    0    0  501 -0.00000000000E+00  0.00000000000E+00  0.28591116441E+03  0.28594979268E+03  0.47000000000E+01 0. -1.
          5   -1    0    0  501    0  0.00000000000E+00 -0.00000000000E+00 -0.56954964008E+02  0.57148560131E+02  0.47000000000E+01 0. -1.
         25    2    1    2    0    0  0.18488163389E+02 -0.15164489200E+02  0.12972648894E+03  0.18172420410E+03  0.12499180176E+03 0.  0.
         25    2    1    2    0    0 -0.18488163389E+02  0.15164489200E+02  0.99229711467E+02  0.16137414871E+03  0.12499322508E+03 0.  0.
          5    1    4    4  502    0 -0.65925195501E+02 -0.16473053301E+01  0.87175360196E+02  0.10940968167E+03  0.47000000000E+01 0. -1.
         -5    1    4    4    0  502  0.47437032112E+02  0.16811794530E+02  0.12054351270E+02  0.51964467047E+02  0.47000000000E+01 0. -1.
          5    1    3    3  503    0  0.68273060406E+02  0.12466500595E+01  0.44773754097E+02  0.81789632408E+02  0.47000000000E+01 0.  1.
         -5    1    3    3    0  503 -0.49784897016E+02 -0.16411139259E+02  0.84952734840E+02  0.99934571693E+02  0.47000000000E+01 0.  1.
<mgrwt>
<rscale>  0 0.12725954E+03</rscale>
<asrwt>0</asrwt>
<pdfrwt beam="2">  1        5 0.87801657E-02 0.12725989E+03</pdfrwt>
<pdfrwt beam="1">  1       -5 0.44004196E-01 0.12725989E+03</pdfrwt>
<totfact> 0.35277470E+02</totfact>
</mgrwt>
</event>
<event>
 8    1  0.1865596E-007  0.1393893E+03  0.7546771E-02  0.1214154E+00
          5   -1    0    0  501    0  0.00000000000E+00  0.00000000000E+00  0.69708899284E+02  0.69867164243E+02  0.47000000000E+01 0. -1.
         -5   -1    0    0    0  501 -0.00000000000E+00 -0.00000000000E+00 -0.28255767932E+03  0.28259676598E+03  0.47000000000E+01 0. -1.
         25    2    1    2    0    0  0.61670289039E+02 -0.27829760918E+00 -0.12824809176E+03  0.18940977616E+03  0.12500075306E+03 0.  0.
         25    2    1    2    0    0 -0.61670289039E+02  0.27829760918E+00 -0.84600688274E+02  0.16305415406E+03  0.12500431473E+03 0.  0.
          5    1    4    4  502    0 -0.31685436075E+02 -0.58141016656E+02 -0.16638154062E+02  0.68434368906E+02  0.47000000000E+01 0.  1.
         -5    1    4    4    0  502 -0.29984852965E+02  0.58419314265E+02 -0.67962534212E+02  0.94619785156E+02  0.47000000000E+01 0.  1.
          5    1    3    3  503    0 -0.50559600304E+01  0.32019126257E+02 -0.10736388347E+03  0.11224918998E+03  0.47000000000E+01 0.  1.
         -5    1    3    3    0  503  0.66726249070E+02 -0.32297423867E+02 -0.20884208293E+02  0.77160586178E+02  0.47000000000E+01 0.  1.
<mgrwt>
<rscale>  0 0.13938851E+03</rscale>
<asrwt>0</asrwt>
<pdfrwt beam="1">  1        5 0.10739627E-01 0.13938931E+03</pdfrwt>
<pdfrwt beam="2">  1       -5 0.43485592E-01 0.13938931E+03</pdfrwt>
<totfact> 0.26294721E+02</totfact>
</mgrwt>
</event>
<event>
 8    1  0.1865596E-007  0.1822686E+03  0.7546771E-02  0.1165632E+00
         -5   -1    0    0    0  501 -0.00000000000E+00  0.00000000000E+00  0.34520283495E+03  0.34523482914E+03  0.47000000000E+01 0. -1.
          5   -1    0    0  501    0  0.00000000000E+00 -0.00000000000E+00 -0.97794259137E+02  0.97907135185E+02  0.47000000000E+01 0. -1.
         25    2    1    2    0    0 -0.13259648908E+03 -0.14864692540E+01  0.15258226435E+03  0.23768185520E+03  0.12500911322E+03 0.  0.
         25    2    1    2    0    0  0.13259648908E+03  0.14864692540E+01  0.94826311456E+02  0.20546010913E+03  0.12505114391E+03 0.  0.
          5    1    4    4  502    0  0.72588637307E+02  0.29005966599E+02 -0.12565178078E+02  0.79312231494E+02  0.47000000000E+01 0.  1.
         -5    1    4    4    0  502  0.60007851774E+02 -0.27519497345E+02  0.10739148953E+03  0.12614787764E+03  0.47000000000E+01 0.  1.
          5    1    3    3  503    0 -0.92620196936E+02 -0.43614312007E+02  0.14693264459E+03  0.17914240463E+03  0.47000000000E+01 0.  1.
         -5    1    3    3    0  503 -0.39976292145E+02  0.42127842753E+02  0.56496197650E+01  0.58539450563E+02  0.47000000000E+01 0.  1.
<mgrwt>
<rscale>  0 0.18226135E+03</rscale>
<asrwt>0</asrwt>
<pdfrwt beam="2">  1        5 0.15056415E-01 0.18226856E+03</pdfrwt>
<pdfrwt beam="1">  1       -5 0.53119272E-01 0.18226856E+03</pdfrwt>
<totfact> 0.10249627E+02</totfact>
</mgrwt>
</event>
<event>
 8    1  0.1865596E-007  0.1398188E+03  0.7546771E-02  0.1213576E+00
          5   -1    0    0  501    0  0.00000000000E+00  0.00000000000E+00  0.88577668137E+02  0.88702273322E+02  0.47000000000E+01 0.  1.
         -5   -1    0    0    0  501 -0.00000000000E+00 -0.00000000000E+00 -0.22633662467E+03  0.22638541840E+03  0.47000000000E+01 0.  1.
         25    2    1    2    0    0  0.57337992651E+02 -0.25243269658E+02 -0.94418228270E+02  0.16871304866E+03  0.12499769155E+03 0.  0.
         25    2    1    2    0    0 -0.57337992651E+02  0.25243269658E+02 -0.43340728262E+02  0.14637464307E+03  0.12498899689E+03 0.  0.
          5    1    4    4  502    0 -0.80379861406E+02  0.18865284152E+02  0.14181281750E+02  0.83904825951E+02  0.47000000000E+01 0. -1.
         -5    1    4    4    0  502  0.23041868755E+02  0.63779855052E+01 -0.57522010011E+02  0.62469817116E+02  0.47000000000E+01 0. -1.
          5    1    3    3  503    0  0.10080404397E+02  0.47143564730E+02 -0.55870482910E+02  0.73944108006E+02  0.47000000000E+01 0.  1.
         -5    1    3    3    0  503  0.47257588253E+02 -0.72386834387E+02 -0.38547745359E+02  0.94768940653E+02  0.47000000000E+01 0.  1.
<mgrwt>
<rscale>  0 0.13981684E+03</rscale>
<asrwt>0</asrwt>
<pdfrwt beam="1">  1        5 0.13640672E-01 0.13981878E+03</pdfrwt>
<pdfrwt beam="2">  1       -5 0.34834357E-01 0.13981878E+03</pdfrwt>
<totfact> 0.27059726E+02</totfact>
</mgrwt>
</event>
<event>
 8    1  0.1865596E-007  0.1604244E+03  0.7546771E-02  0.1188229E+00
         -5   -1    0    0    0  501 -0.00000000000E+00  0.00000000000E+00  0.67704687168E+02  0.67867626041E+02  0.47000000000E+01 0.  1.
          5   -1    0    0  501    0  0.00000000000E+00 -0.00000000000E+00 -0.38855217011E+03  0.38858059511E+03  0.47000000000E+01 0.  1.
         25    2    1    2    0    0 -0.57365760928E+02  0.82526252744E+02 -0.19543232062E+03  0.25281879550E+03  0.12498855346E+03 0.  0.
         25    2    1    2    0    0  0.57365760928E+02 -0.82526252744E+02 -0.12541516231E+03  0.20362942564E+03  0.12503826267E+03 0.  0.
          5    1    3    3  502    0 -0.72862017292E+02  0.79612393062E+02 -0.20645938452E+03  0.23301196139E+03  0.47000000000E+01 0.  1.
         -5    1    3    3    0  502  0.15496256363E+02  0.29138596819E+01  0.11027063897E+02  0.19806834116E+02  0.47000000000E+01 0.  1.
          5    1    4    4  503    0  0.31336827250E+01 -0.12419340537E+02  0.25286094594E+02  0.28732152140E+02  0.47000000000E+01 0. -1.
         -5    1    4    4    0  503  0.54232078203E+02 -0.70106912207E+02 -0.15070125691E+03  0.17489727350E+03  0.47000000000E+01 0. -1.
<mgrwt>
<rscale>  0 0.16041469E+03</rscale>
<asrwt>0</asrwt>
<pdfrwt beam="2">  1        5 0.59791976E-01 0.16042437E+03</pdfrwt>
<pdfrwt beam="1">  1       -5 0.10430826E-01 0.16042437E+03</pdfrwt>
<totfact> 0.14704692E+02</totfact>
</mgrwt>
</event>
<event>
 8    1  0.1865596E-007  0.1512396E+03  0.7546771E-02  0.1198959E+00
          5   -1    0    0  501    0  0.00000000000E+00  0.00000000000E+00  0.58341569112E+03  0.58343462243E+03  0.47000000000E+01 0. -1.
         -5   -1    0    0    0  501 -0.00000000000E+00 -0.00000000000E+00 -0.39119689034E+02  0.39401016105E+02  0.47000000000E+01 0. -1.
         25    2    1    2    0    0  0.64367389856E+02  0.55720810793E+02  0.25856786115E+03  0.29955094099E+03  0.12500183116E+03 0.  0.
         25    2    1    2    0    0 -0.64367389856E+02 -0.55720810793E+02  0.28572814094E+03  0.32328469754E+03  0.12499782202E+03 0.  0.
          5    1    3    3  502    0  0.79733134469E+02  0.35642966165E+02  0.78094364212E+02  0.11725448175E+03  0.47000000000E+01 0.  1.
         -5    1    3    3    0  502 -0.15365744613E+02  0.20077844628E+02  0.18047349694E+03  0.18229645924E+03  0.47000000000E+01 0.  1.
          5    1    4    4  503    0 -0.53542149123E+02 -0.95452919748E+02  0.21527558727E+03  0.24154438535E+03  0.47000000000E+01 0. -1.
         -5    1    4    4    0  503 -0.10825240733E+02  0.39732108955E+02  0.70452553669E+02  0.81740312193E+02  0.47000000000E+01 0. -1.
<mgrwt>
<rscale>  0 0.15123881E+03</rscale>
<asrwt>0</asrwt>
<pdfrwt beam="1">  1        5 0.89779355E-01 0.15123964E+03</pdfrwt>
<pdfrwt beam="2">  1       -5 0.60415106E-02 0.15123964E+03</pdfrwt>
<totfact> 0.14596151E+02</totfact>
</mgrwt>
</event>
<event>
 8    1  0.1865596E-007  0.1349057E+03  0.7546771E-02  0.1220354E+00
          5   -1    0    0  501    0  0.00000000000E+00  0.00000000000E+00  0.77182270651E+03  0.77183701666E+03  0.47000000000E+01 0. -1.
         -5   -1    0    0    0  501 -0.00000000000E+00 -0.00000000000E+00 -0.23950372302E+02  0.24407177908E+02  0.47000000000E+01 0. -1.
         25    2    1    2    0    0  0.40900214207E+02  0.30029243237E+02  0.31053209538E+03  0.33857010976E+03  0.12499981595E+03 0.  0.
         25    2    1    2    0    0 -0.40900214207E+02 -0.30029243237E+02  0.43734023883E+03  0.45767408481E+03  0.12499800173E+03 0.  0.
          5    1    4    4  502    0  0.20658935651E+02  0.12208947353E+02  0.14841625513E+02  0.28604437865E+02  0.47000000000E+01 0.  1.
         -5    1    4    4    0  502 -0.61559149858E+02 -0.42238190590E+02  0.42249861332E+03  0.42906964695E+03  0.47000000000E+01 0.  1.
          5    1    3    3  503    0  0.16107898887E+02  0.90583760648E+01  0.30463829307E+03  0.30523449705E+03  0.47000000000E+01 0. -1.
         -5    1    3    3    0  503  0.24792315320E+02  0.20970867172E+02  0.58938023067E+01  0.33335612706E+02  0.47000000000E+01 0. -1.
<mgrwt>
<rscale>  0 0.13490524E+03</rscale>
<asrwt>0</asrwt>
<pdfrwt beam="1">  1        5 0.11877818E+00 0.13490566E+03</pdfrwt>
<pdfrwt beam="2">  1       -5 0.37209127E-02 0.13490566E+03</pdfrwt>
<totfact> 0.15809717E+02</totfact>
</mgrwt>
</event>
<event>
 8    1  0.1865596E-007  0.1285721E+03  0.7546771E-02  0.1229593E+00
          5   -1    0    0  501    0  0.00000000000E+00  0.00000000000E+00  0.43300578541E+02  0.43554909046E+02  0.47000000000E+01 0.  1.
         -5   -1    0    0    0  501 -0.00000000000E+00 -0.00000000000E+00 -0.48321750745E+03  0.48324036411E+03  0.47000000000E+01 0.  1.
         25    2    1    2    0    0 -0.23490385810E+02 -0.18792509111E+02 -0.34145176212E+03  0.36485624302E+03  0.12500326235E+03 0.  0.
         25    2    1    2    0    0  0.23490385810E+02  0.18792509111E+02 -0.98465166794E+02  0.16193903013E+03  0.12499561506E+03 0.  0.
          5    1    3    3  502    0 -0.23440789981E+02  0.15227978173E+01 -0.12207718508E+01  0.23986867908E+02  0.47000000000E+01 0. -1.
         -5    1    3    3    0  502 -0.49595829546E-01 -0.20315306928E+02 -0.34023099027E+03  0.34086937512E+03  0.47000000000E+01 0. -1.
          5    1    4    4  503    0  0.37490769680E+02 -0.46001686222E+02 -0.62746243275E+02  0.86492161446E+02  0.47000000000E+01 0.  1.
         -5    1    4    4    0  503 -0.14000383870E+02  0.64794195333E+02 -0.35718923519E+02  0.75446868687E+02  0.47000000000E+01 0.  1.
<mgrwt>
<rscale>  0 0.12857019E+03</rscale>
<asrwt>0</asrwt>
<pdfrwt beam="1">  1        5 0.66829499E-02 0.12857205E+03</pdfrwt>
<pdfrwt beam="2">  1       -5 0.74362473E-01 0.12857205E+03</pdfrwt>
<totfact> 0.18080641E+02</totfact>
</mgrwt>
</event>
<event>
 8    1  0.1865596E-007  0.1261397E+03  0.7546771E-02  0.1233301E+00
          5   -1    0    0  501    0  0.00000000000E+00  0.00000000000E+00  0.57682647929E+03  0.57684562685E+03  0.47000000000E+01 0. -1.
         -5   -1    0    0    0  501 -0.00000000000E+00 -0.00000000000E+00 -0.32280160060E+02  0.32620526261E+02  0.47000000000E+01 0. -1.
         25    2    1    2    0    0  0.48012589535E+01 -0.16223420035E+02  0.15404680279E+03  0.19909913400E+03  0.12499518496E+03 0.  0.
         25    2    1    2    0    0 -0.48012589535E+01  0.16223420035E+02  0.39049951644E+03  0.41036701911E+03  0.12499986634E+03 0.  0.
          5    1    3    3  502    0 -0.50953786779E+02  0.37504421450E+01  0.25087056957E+02  0.57112210867E+02  0.47000000000E+01 0.  1.
         -5    1    3    3    0  502  0.55755045732E+02 -0.19973862180E+02  0.12895974583E+03  0.14198692313E+03  0.47000000000E+01 0.  1.
          5    1    4    4  503    0  0.93899240031E+01  0.31590922706E+02  0.38725550121E+03  0.38868376643E+03  0.47000000000E+01 0.  1.
         -5    1    4    4    0  503 -0.14191182957E+02 -0.15367502671E+02  0.32440152371E+01  0.21683252683E+02  0.47000000000E+01 0.  1.
<mgrwt>
<rscale>  0 0.12613852E+03</rscale>
<asrwt>0</asrwt>
<pdfrwt beam="1">  1        5 0.88770182E-01 0.12613968E+03</pdfrwt>
<pdfrwt beam="2">  1       -5 0.49938338E-02 0.12613968E+03</pdfrwt>
<totfact> 0.19403837E+02</totfact>
</mgrwt>
</event>
<event>
 8    1  0.1865596E-007  0.1851858E+03  0.7546771E-02  0.1162877E+00
          5   -1    0    0  501    0  0.00000000000E+00  0.00000000000E+00  0.17708583177E+04  0.17708645547E+04  0.47000000000E+01 0.  1.
         -5   -1    0    0    0  501 -0.00000000000E+00 -0.00000000000E+00 -0.20447267303E+02  0.20980484745E+02  0.47000000000E+01 0.  1.
         25    2    1    2    0    0 -0.13066721786E+03 -0.39939079173E+02  0.64613556537E+03  0.67214950639E+03  0.12499895291E+03 0.  0.
         25    2    1    2    0    0  0.13066721786E+03  0.39939079173E+02  0.11042754850E+04  0.11196955331E+04  0.12499875290E+03 0.  0.
          5    1    3    3  502    0 -0.76933857186E+02 -0.64171869423E+02  0.55159841634E+03  0.56064226573E+03  0.47000000000E+01 0.  1.
         -5    1    3    3    0  502 -0.53733360678E+02  0.24232790250E+02  0.94537149027E+02  0.11150724066E+03  0.47000000000E+01 0.  1.
          5    1    4    4  503    0  0.28515459920E+02  0.52241292415E+02  0.69870242403E+03  0.70124849478E+03  0.47000000000E+01 0.  1.
         -5    1    4    4    0  503  0.10215175794E+03 -0.12302213242E+02  0.40557306097E+03  0.41844703833E+03  0.47000000000E+01 0.  1.
<mgrwt>
<rscale>  0 0.18518579E+03</rscale>
<asrwt>0</asrwt>
<pdfrwt beam="1">  1        5 0.27248127E+00 0.18518583E+03</pdfrwt>
<pdfrwt beam="2">  1       -5 0.31872295E-02 0.18518583E+03</pdfrwt>
<totfact> 0.17565481E+01</totfact>
</mgrwt>
</event>
<event>
 8    1  0.1865596E-007  0.1253653E+03  0.7546771E-02  0.1234502E+00
         -5   -1    0    0    0  501 -0.00000000000E+00  0.00000000000E+00  0.13182058275E+03  0.13190434427E+03  0.47000000000E+01 0.  1.
          5   -1    0    0  501    0  0.00000000000E+00 -0.00000000000E+00 -0.12103817480E+03  0.12112939263E+03  0.47000000000E+01 0.  1.
         25    2    1    2    0    0  0.31540527539E+01  0.89402619988E+01  0.21590800747E+02  0.12720332818E+03  0.12499859075E+03 0.  0.
         25    2    1    2    0    0 -0.31540527539E+01 -0.89402619988E+01 -0.10808392799E+02  0.12583040872E+03  0.12500637612E+03 0.  0.
          5    1    4    4  502    0  0.11015555056E+02  0.55522176679E+02 -0.17219644227E+02  0.59352006736E+02  0.47000000000E+01 0.  1.
         -5    1    4    4    0  502 -0.14169607810E+02 -0.64462438677E+02  0.64112514276E+01  0.66478401986E+02  0.47000000000E+01 0.  1.
          5    1    3    3  503    0  0.51229881170E+02  0.23160201029E+02  0.44525797256E+02  0.71871637366E+02  0.47000000000E+01 0. -1.
         -5    1    3    3    0  503 -0.48075828416E+02 -0.14219939030E+02 -0.22934996508E+02  0.55331690818E+02  0.47000000000E+01 0. -1.
<mgrwt>
<rscale>  0 0.12536341E+03</rscale>
<asrwt>0</asrwt>
<pdfrwt beam="2">  1        5 0.18634718E-01 0.12536535E+03</pdfrwt>
<pdfrwt beam="1">  1       -5 0.20293550E-01 0.12536535E+03</pdfrwt>
<totfact> 0.41882172E+02</totfact>
</mgrwt>
</event>
<event>
 8    1  0.1865596E-007  0.1405741E+03  0.7546771E-02  0.1212559E+00
         -5   -1    0    0    0  501 -0.00000000000E+00  0.00000000000E+00  0.60291764446E+02  0.60474679495E+02  0.47000000000E+01 0.  1.
          5   -1    0    0  501    0  0.00000000000E+00 -0.00000000000E+00 -0.32984896574E+03  0.32988244907E+03  0.47000000000E+01 0.  1.
         25    2    1    2    0    0  0.62768723258E+02  0.14024689163E+02 -0.11682359599E+03  0.18278082537E+03  0.12499789205E+03 0.  0.
         25    2    1    2    0    0 -0.62768723258E+02 -0.14024689163E+02 -0.15273360531E+03  0.20757630319E+03  0.12499505163E+03 0.  0.
          5    1    4    4  502    0  0.11014160404E+01  0.24915928419E+02 -0.12516898863E+03  0.12771602217E+03  0.47000000000E+01 0.  1.
         -5    1    4    4    0  502 -0.63870139299E+02 -0.38940617581E+02 -0.27564616682E+02  0.79860281019E+02  0.47000000000E+01 0.  1.
          5    1    3    3  503    0  0.81377566876E+02  0.52246368592E+02 -0.90679263409E+02  0.13265296919E+03  0.47000000000E+01 0. -1.
         -5    1    3    3    0  503 -0.18608843618E+02 -0.38221679429E+02 -0.26144332579E+02  0.50127856180E+02  0.47000000000E+01 0. -1.
<mgrwt>
<rscale>  0 0.14057347E+03</rscale>
<asrwt>0</asrwt>
<pdfrwt beam="2">  1        5 0.50762640E-01 0.14057410E+03</pdfrwt>
<pdfrwt beam="1">  1       -5 0.92923023E-02 0.14057410E+03</pdfrwt>
<totfact> 0.24536686E+02</totfact>
</mgrwt>
</event>
<event>
 8    1  0.1865596E-007  0.1498772E+03  0.7546771E-02  0.1200625E+00
         -5   -1    0    0    0  501 -0.00000000000E+00  0.00000000000E+00  0.31493208382E+03  0.31496715292E+03  0.47000000000E+01 0.  1.
          5   -1    0    0  501    0  0.00000000000E+00 -0.00000000000E+00 -0.72224806869E+02  0.72377570609E+02  0.47000000000E+01 0.  1.
         25    2    1    2    0    0 -0.76952184699E+02  0.30253039755E+02  0.14429484793E+03  0.20804554925E+03  0.12500024912E+03 0.  0.
         25    2    1    2    0    0  0.76952184699E+02 -0.30253039755E+02  0.98412429019E+02  0.17929917428E+03  0.12500521016E+03 0.  0.
          5    1    3    3  502    0 -0.10050658372E+03  0.53780178841E+02  0.12518205344E+03  0.16937094647E+03  0.47000000000E+01 0. -1.
         -5    1    3    3    0  502  0.23554399017E+02 -0.23527139085E+02  0.19112794491E+02  0.38674602776E+02  0.47000000000E+01 0. -1.
          5    1    4    4  503    0  0.49148292348E+02  0.12423552019E+01 -0.20214449406E+02  0.53364895315E+02  0.47000000000E+01 0.  1.
         -5    1    4    4    0  503  0.27803892351E+02 -0.31495394957E+02  0.11862687843E+03  0.12593427896E+03  0.47000000000E+01 0.  1.
<mgrwt>
<rscale>  0 0.14987621E+03</rscale>
<asrwt>0</asrwt>
<pdfrwt beam="2">  1        5 0.11125958E-01 0.14987724E+03</pdfrwt>
<pdfrwt beam="1">  1       -5 0.48465538E-01 0.14987724E+03</pdfrwt>
<totfact> 0.20177558E+02</totfact>
</mgrwt>
</event>
<event>
 8    1  0.1865596E-007  0.1437565E+03  0.7546771E-02  0.1208362E+00
         -5   -1    0    0    0  501 -0.00000000000E+00  0.00000000000E+00  0.19021644866E+03  0.19027450523E+03  0.47000000000E+01 0.  1.
          5   -1    0    0  501    0  0.00000000000E+00 -0.00000000000E+00 -0.11541408666E+03  0.11550974590E+03  0.47000000000E+01 0.  1.
         25    2    1    2    0    0 -0.69589315619E+02  0.13847779385E+02  0.74749505172E+02  0.16202774236E+03  0.12502426536E+03 0.  0.
         25    2    1    2    0    0  0.69589315619E+02 -0.13847779385E+02  0.52856825527E-01  0.14375650877E+03  0.12502598601E+03 0.  0.
          5    1    4    4  502    0 -0.27965083764E+02  0.86715377461E+01  0.26853095161E+02  0.40005252112E+02  0.47000000000E+01 0.  1.
         -5    1    4    4    0  502  0.97554399382E+02 -0.22519317131E+02 -0.26800238336E+02  0.10375125666E+03  0.47000000000E+01 0.  1.
          5    1    3    3  503    0 -0.69324003772E+02  0.36487390544E+02  0.10043849696E+03  0.12746422572E+03  0.47000000000E+01 0.  1.
         -5    1    3    3    0  503 -0.26531184676E+00 -0.22639611159E+02 -0.25688991784E+02  0.34563516642E+02  0.47000000000E+01 0.  1.
<mgrwt>
<rscale>  0 0.14375612E+03</rscale>
<asrwt>0</asrwt>
<pdfrwt beam="2">  1        5 0.17767838E-01 0.14375650E+03</pdfrwt>
<pdfrwt beam="1">  1       -5 0.29275893E-01 0.14375650E+03</pdfrwt>
<totfact> 0.23832974E+02</totfact>
</mgrwt>
</event>
<event>
 8    1  0.1865596E-007  0.1279391E+03  0.7546771E-02  0.1230548E+00
          5   -1    0    0  501    0  0.00000000000E+00  0.00000000000E+00  0.41946006583E+03  0.41948639647E+03  0.47000000000E+01 0.  1.
         -5   -1    0    0    0  501 -0.00000000000E+00 -0.00000000000E+00 -0.46276635533E+02  0.46514696562E+02  0.47000000000E+01 0.  1.
         25    2    1    2    0    0 -0.18419202846E+02 -0.20077099020E+02  0.93546007262E+02  0.15848604823E+03  0.12499846027E+03 0.  0.
         25    2    1    2    0    0  0.18419202846E+02  0.20077099020E+02  0.27963742303E+03  0.30751504480E+03  0.12500422986E+03 0.  0.
          5    1    4    4  502    0  0.22677401659E+02  0.62620476916E+02  0.23968158849E+03  0.24880703875E+03  0.47000000000E+01 0.  1.
         -5    1    4    4    0  502 -0.42581988132E+01 -0.42543377896E+02  0.39955834546E+02  0.58708006048E+02  0.47000000000E+01 0.  1.
          5    1    3    3  503    0 -0.68480441188E+00 -0.47472718219E+02  0.11125966300E+03  0.12105755054E+03  0.47000000000E+01 0.  1.
         -5    1    3    3    0  503 -0.17734398434E+02  0.27395619199E+02 -0.17713655742E+02  0.37428497684E+02  0.47000000000E+01 0.  1.
<mgrwt>
<rscale>  0 0.12793770E+03</rscale>
<asrwt>0</asrwt>
<pdfrwt beam="1">  1        5 0.64552653E-01 0.12793910E+03</pdfrwt>
<pdfrwt beam="2">  1       -5 0.71398205E-02 0.12793910E+03</pdfrwt>
<totfact> 0.22167860E+02</totfact>
</mgrwt>
</event>
<event>
 8    1  0.1865596E-007  0.1426482E+03  0.7546771E-02  0.1209809E+00
          5   -1    0    0  501    0  0.00000000000E+00  0.00000000000E+00  0.49473277823E+03  0.49475510291E+03  0.47000000000E+01 0. -1.
         -5   -1    0    0    0  501 -0.00000000000E+00 -0.00000000000E+00 -0.64139562933E+02  0.64311534994E+02  0.47000000000E+01 0. -1.
         25    2    1    2    0    0  0.68718154179E+02 -0.10786128139E+01  0.47615514577E+02  0.15038532374E+03  0.12500064099E+03 0.  0.
         25    2    1    2    0    0 -0.68718154179E+02  0.10786128139E+01  0.38297770072E+03  0.40868131416E+03  0.12500059672E+03 0.  0.
          5    1    4    4  502    0 -0.89136657771E+02  0.23780601416E+01  0.14858966680E+03  0.17335506341E+03  0.47000000000E+01 0.  1.
         -5    1    4    4    0  502  0.20418503592E+02 -0.12994473277E+01  0.23438803391E+03  0.23532625075E+03  0.47000000000E+01 0.  1.
          5    1    3    3  503    0  0.88015257061E+02 -0.30442561838E+02  0.62158783387E+02  0.11206801238E+03  0.47000000000E+01 0. -1.
         -5    1    3    3    0  503 -0.19297102882E+02  0.29363949024E+02 -0.14543268810E+02  0.38317311357E+02  0.47000000000E+01 0. -1.
<mgrwt>
<rscale>  0 0.14264819E+03</rscale>
<asrwt>0</asrwt>
<pdfrwt beam="1">  1        5 0.76127680E-01 0.14264820E+03</pdfrwt>
<pdfrwt beam="2">  1       -5 0.98825711E-02 0.14264820E+03</pdfrwt>
<totfact> 0.90612121E+01</totfact>
</mgrwt>
</event>
<event>
 8    1  0.1865596E-007  0.1354369E+03  0.7546771E-02  0.1219607E+00
         -5   -1    0    0    0  501 -0.00000000000E+00  0.00000000000E+00  0.33181219769E+03  0.33184548292E+03  0.47000000000E+01 0. -1.
          5   -1    0    0  501    0  0.00000000000E+00 -0.00000000000E+00 -0.56298336826E+02  0.56494183146E+02  0.47000000000E+01 0. -1.
         25    2    1    2    0    0  0.46210256088E+02 -0.24136818437E+02  0.11000106651E+03  0.17448034280E+03  0.12500072647E+03 0.  0.
         25    2    1    2    0    0 -0.46210256088E+02  0.24136818437E+02  0.16551279436E+03  0.21385932327E+03  0.12499340495E+03 0.  0.
          5    1    4    4  502    0  0.59077917091E+00 -0.43321391115E+02  0.22889620039E+02  0.49225162810E+02  0.47000000000E+01 0. -1.
         -5    1    4    4    0  502 -0.46801035259E+02  0.67458209551E+02  0.14262317432E+03  0.16463416046E+03  0.47000000000E+01 0. -1.
          5    1    3    3  503    0  0.59464296688E+02  0.20677005320E+02  0.98939486770E+01  0.63902436182E+02  0.47000000000E+01 0.  1.
         -5    1    3    3    0  503 -0.13254040600E+02 -0.44813823756E+02  0.10010711783E+03  0.11057790662E+03  0.47000000000E+01 0.  1.
<mgrwt>
<rscale>  0 0.13543522E+03</rscale>
<asrwt>0</asrwt>
<pdfrwt beam="2">  1        5 0.86789081E-02 0.13543691E+03</pdfrwt>
<pdfrwt beam="1">  1       -5 0.51065656E-01 0.13543691E+03</pdfrwt>
<totfact> 0.26925281E+02</totfact>
</mgrwt>
</event>
<event>
 8    1  0.1865596E-007  0.1275994E+03  0.7546771E-02  0.1231063E+00
          5   -1    0    0  501    0  0.00000000000E+00  0.00000000000E+00  0.29068665172E+03  0.29072464548E+03  0.47000000000E+01 0.  1.
         -5   -1    0    0    0  501 -0.00000000000E+00 -0.00000000000E+00 -0.61135375510E+02  0.61315773980E+02  0.47000000000E+01 0.  1.
         25    2    1    2    0    0 -0.14003655128E+02  0.21444940676E+02  0.63212155112E+02  0.14239710164E+03  0.12500068066E+03 0.  0.
         25    2    1    2    0    0  0.14003655128E+02 -0.21444940676E+02  0.16633912110E+03  0.20964331782E+03  0.12500251861E+03 0.  0.
          5    1    3    3  502    0  0.37724122737E+02 -0.12131553752E+02  0.69591354913E+02  0.80220513033E+02  0.47000000000E+01 0.  1.
         -5    1    3    3    0  502 -0.51727777865E+02  0.33576494428E+02 -0.63791998011E+01  0.62176588609E+02  0.47000000000E+01 0.  1.
          5    1    4    4  503    0 -0.35731607224E+02 -0.56044228359E+02  0.92835199880E+02  0.11427233971E+03  0.47000000000E+01 0. -1.
         -5    1    4    4    0  503  0.49735262352E+02  0.34599287682E+02  0.73503921220E+02  0.95370978102E+02  0.47000000000E+01 0. -1.
<mgrwt>
<rscale>  0 0.12759899E+03</rscale>
<asrwt>0</asrwt>
<pdfrwt beam="1">  1        5 0.44737823E-01 0.12759944E+03</pdfrwt>
<pdfrwt beam="2">  1       -5 0.94222418E-02 0.12759944E+03</pdfrwt>
<totfact> 0.30200021E+02</totfact>
</mgrwt>
</event>
<event>
 8    1  0.1865596E-007  0.1329257E+03  0.7546771E-02  0.1223193E+00
         -5   -1    0    0    0  501 -0.00000000000E+00  0.00000000000E+00  0.66254171747E+02  0.66420669026E+02  0.47000000000E+01 0. -1.
          5   -1    0    0  501    0  0.00000000000E+00 -0.00000000000E+00 -0.28820790510E+03  0.28824622558E+03  0.47000000000E+01 0. -1.
         25    2    1    2    0    0 -0.24158774681E+02 -0.38069435798E+02 -0.61845245627E+02  0.14657081307E+03  0.12500096200E+03 0.  0.
         25    2    1    2    0    0  0.24158774681E+02  0.38069435798E+02 -0.16010848773E+03  0.20809608153E+03  0.12504528368E+03 0.  0.
          5    1    4    4  502    0  0.20736087026E+02 -0.32617849950E+02 -0.12098346991E+03  0.12709445083E+03  0.47000000000E+01 0.  1.
         -5    1    4    4    0  502  0.34226876549E+01  0.70687285748E+02 -0.39125017813E+02  0.81001630700E+02  0.47000000000E+01 0.  1.
          5    1    3    3  503    0 -0.61909807643E+02 -0.55680698539E+02 -0.16869075702E+02  0.85087132912E+02  0.47000000000E+01 0. -1.
         -5    1    3    3    0  503  0.37751032962E+02  0.17611262740E+02 -0.44976169925E+02  0.61483680161E+02  0.47000000000E+01 0. -1.
<mgrwt>
<rscale>  0 0.13291531E+03</rscale>
<asrwt>0</asrwt>
<pdfrwt beam="2">  1        5 0.44355432E-01 0.13292574E+03</pdfrwt>
<pdfrwt beam="1">  1       -5 0.10208705E-01 0.13292574E+03</pdfrwt>
<totfact> 0.27137253E+02</totfact>
</mgrwt>
</event>
<event>
 8    1  0.1865596E-007  0.1352157E+03  0.7546771E-02  0.1219920E+00
         -5   -1    0    0    0  501 -0.00000000000E+00  0.00000000000E+00  0.15156620910E+03  0.15163906404E+03  0.47000000000E+01 0. -1.
          5   -1    0    0  501    0  0.00000000000E+00 -0.00000000000E+00 -0.13131706780E+03  0.13140115028E+03  0.47000000000E+01 0. -1.
         25    2    1    2    0    0 -0.32033232683E+01  0.51436501199E+02  0.50771963561E+02  0.14443362748E+03  0.12500922177E+03 0.  0.
         25    2    1    2    0    0  0.32033232683E+01 -0.51436501199E+02 -0.30522822254E+02  0.13860658683E+03  0.12499667316E+03 0.  0.
          5    1    4    4  502    0  0.32232768587E+02  0.29308470583E+02  0.78141826995E+01  0.44509429001E+02  0.47000000000E+01 0. -1.
         -5    1    4    4    0  502 -0.29029445319E+02 -0.80744971782E+02 -0.38337004954E+02  0.94097157834E+02  0.47000000000E+01 0. -1.
          5    1    3    3  503    0  0.26482828717E+01  0.21999748754E+02 -0.41505557709E+02  0.47284285637E+02  0.47000000000E+01 0.  1.
         -5    1    3    3    0  503 -0.58516061400E+01  0.29436752445E+02  0.92277521270E+02  0.97149341844E+02  0.47000000000E+01 0.  1.
<mgrwt>
<rscale>  0 0.13521278E+03</rscale>
<asrwt>0</asrwt>
<pdfrwt beam="2">  1        5 0.20214698E-01 0.13521568E+03</pdfrwt>
<pdfrwt beam="1">  1       -5 0.23329950E-01 0.13521568E+03</pdfrwt>
<totfact> 0.28460801E+02</totfact>
</mgrwt>
</event>
<event>
 8    1  0.1865596E-007  0.1317800E+03  0.7546771E-02  0.1224841E+00
          5   -1    0    0  501    0  0.00000000000E+00  0.00000000000E+00  0.19420087569E+02  0.19980735751E+02  0.47000000000E+01 0.  1.
         -5   -1    0    0    0  501 -0.00000000000E+00 -0.00000000000E+00 -0.88161603589E+03  0.88162856393E+03  0.47000000000E+01 0.  1.
         25    2    1    2    0    0 -0.29703294324E+02 -0.29289600895E+02 -0.44404738217E+03  0.46318689749E+03  0.12499543183E+03 0.  0.
         25    2    1    2    0    0  0.29703294324E+02  0.29289600895E+02 -0.41814856614E+03  0.43842240219E+03  0.12500325178E+03 0.  0.
          5    1    3    3  502    0  0.26444916837E+01  0.26031395465E+02 -0.17500822157E+02  0.31827592782E+02  0.47000000000E+01 0. -1.
         -5    1    3    3    0  502 -0.32347786007E+02 -0.55320996360E+02 -0.42654656002E+03  0.43135930471E+03  0.47000000000E+01 0. -1.
          5    1    4    4  503    0  0.68396201678E+02  0.51203733651E+02 -0.30447078009E+03  0.31626635716E+03  0.47000000000E+01 0.  1.
         -5    1    4    4    0  503 -0.38692907355E+02 -0.21914132756E+02 -0.11367778605E+03  0.12215604502E+03  0.47000000000E+01 0.  1.
<mgrwt>
<rscale>  0 0.13177819E+03</rscale>
<asrwt>0</asrwt>
<pdfrwt beam="1">  1        5 0.30317969E-02 0.13178004E+03</pdfrwt>
<pdfrwt beam="2">  1       -5 0.13567730E+00 0.13178004E+03</pdfrwt>
<totfact> 0.15510925E+02</totfact>
</mgrwt>
</event>
<event>
 8    1  0.1865596E-007  0.1837066E+03  0.7546771E-02  0.1164264E+00
          5   -1    0    0  501    0  0.00000000000E+00  0.00000000000E+00  0.19066384495E+03  0.19072176533E+03  0.47000000000E+01 0. -1.
         -5   -1    0    0    0  501 -0.00000000000E+00 -0.00000000000E+00 -0.17791989765E+03  0.17798196532E+03  0.47000000000E+01 0. -1.
         25    2    1    2    0    0  0.31136337243E+02  0.13097026499E+03  0.20424978748E+02  0.18483852309E+03  0.12500167220E+03 0.  0.
         25    2    1    2    0    0 -0.31136337243E+02 -0.13097026499E+03 -0.76810314437E+01  0.18386520756E+03  0.12499893799E+03 0.  0.
          5    1    4    4  502    0 -0.44033947166E+02 -0.11985910014E+03  0.39291127220E+02  0.13368274035E+03  0.47000000000E+01 0.  1.
         -5    1    4    4    0  502  0.12897609923E+02 -0.11111164855E+02 -0.46972158664E+02  0.50182467214E+02  0.47000000000E+01 0.  1.
          5    1    3    3  503    0  0.31483375541E+02  0.69182878034E+02  0.71557565400E+02  0.10449903691E+03  0.47000000000E+01 0.  1.
         -5    1    3    3    0  503 -0.34703829739E+00  0.61787386957E+02 -0.51132586652E+02  0.80339486183E+02  0.47000000000E+01 0.  1.
<mgrwt>
<rscale>  0 0.18370609E+03</rscale>
<asrwt>0</asrwt>
<pdfrwt beam="1">  1        5 0.29342129E-01 0.18370656E+03</pdfrwt>
<pdfrwt beam="2">  1       -5 0.27381522E-01 0.18370656E+03</pdfrwt>
<totfact> 0.11292579E+02</totfact>
</mgrwt>
</event>
<event>
 8    1  0.1865596E-007  0.1305103E+03  0.7546771E-02  0.1226702E+00
         -5   -1    0    0    0  501 -0.00000000000E+00  0.00000000000E+00  0.49236132269E+03  0.49238375489E+03  0.47000000000E+01 0.  1.
          5   -1    0    0  501    0  0.00000000000E+00 -0.00000000000E+00 -0.36477622846E+02  0.36779164869E+02  0.47000000000E+01 0.  1.
         25    2    1    2    0    0 -0.26849805339E+02 -0.26184069669E+02  0.16524217846E+03  0.21056573252E+03  0.12500573035E+03 0.  0.
         25    2    1    2    0    0  0.26849805339E+02  0.26184069669E+02  0.29064152139E+03  0.31859718724E+03  0.12500062485E+03 0.  0.
          5    1    4    4  502    0 -0.31339316529E+02 -0.33824742558E+02  0.11629247806E+03  0.12518904275E+03  0.47000000000E+01 0.  1.
         -5    1    4    4    0  502  0.58189121868E+02  0.60008812227E+02  0.17434904332E+03  0.19340814449E+03  0.47000000000E+01 0.  1.
          5    1    3    3  503    0  0.24343609970E+02  0.30081797518E+02  0.10924274335E+03  0.11598962394E+03  0.47000000000E+01 0. -1.
         -5    1    3    3    0  503 -0.51193415310E+02 -0.56265867187E+02  0.55999435114E+02  0.94576108582E+02  0.47000000000E+01 0. -1.
<mgrwt>
<rscale>  0 0.13050912E+03</rscale>
<asrwt>0</asrwt>
<pdfrwt beam="2">  1        5 0.56368634E-02 0.13051035E+03</pdfrwt>
<pdfrwt beam="1">  1       -5 0.75772812E-01 0.13051035E+03</pdfrwt>
<totfact> 0.23184426E+02</totfact>
</mgrwt>
</event>
<event>
 8    1  0.1865596E-007  0.1272880E+03  0.7546771E-02  0.1231542E+00
          5   -1    0    0  501    0  0.00000000000E+00  0.00000000000E+00  0.16199379840E+02  0.16867421475E+02  0.47000000000E+01 0.  1.
         -5   -1    0    0    0  501 -0.00000000000E+00 -0.00000000000E+00 -0.13355409561E+04  0.13355492262E+04  0.47000000000E+01 0.  1.
         25    2    1    2    0    0  0.17085973077E+02 -0.16813610088E+02 -0.10089132077E+04  0.10169110529E+04  0.12501040271E+03 0.  0.
         25    2    1    2    0    0 -0.17085973077E+02  0.16813610088E+02 -0.31042836858E+03  0.33550559478E+03  0.12499441645E+03 0.  0.
          5    1    3    3  502    0 -0.44477509469E+02  0.26356928678E+02 -0.42355188740E+03  0.42672148746E+03  0.47000000000E+01 0.  1.
         -5    1    3    3    0  502  0.61563482546E+02 -0.43170538766E+02 -0.58536132032E+03  0.59018956541E+03  0.47000000000E+01 0.  1.
          5    1    4    4  503    0 -0.20015312352E+02 -0.50772429698E+02 -0.95054666480E+02  0.10970839515E+03  0.47000000000E+01 0.  1.
         -5    1    4    4    0  503  0.29293392748E+01  0.67586039786E+02 -0.21537370210E+03  0.22579719963E+03  0.47000000000E+01 0.  1.
<mgrwt>
<rscale>  0 0.12728405E+03</rscale>
<asrwt>0</asrwt>
<pdfrwt beam="1">  1        5 0.25442373E-02 0.12728798E+03</pdfrwt>
<pdfrwt beam="2">  1       -5 0.20551978E+00 0.12728798E+03</pdfrwt>
<totfact> 0.62024362E+01</totfact>
</mgrwt>
</event>
<event>
 8    1  0.1865596E-007  0.1259817E+03  0.7546771E-02  0.1233544E+00
          5   -1    0    0  501    0  0.00000000000E+00  0.00000000000E+00  0.57403330898E+03  0.57405254970E+03  0.47000000000E+01 0.  1.
         -5   -1    0    0    0  501 -0.00000000000E+00 -0.00000000000E+00 -0.27507010760E+02  0.27905656075E+02  0.47000000000E+01 0.  1.
         25    2    1    2    0    0  0.15282523799E+02 -0.35769195701E+01  0.25731785878E+03  0.28650153214E+03  0.12499719029E+03 0.  0.
         25    2    1    2    0    0 -0.15282523799E+02  0.35769195701E+01  0.28920843944E+03  0.31545667364E+03  0.12500016646E+03 0.  0.
          5    1    3    3  502    0  0.47033062402E+02 -0.20058354539E+02  0.37100845329E+02  0.63348317025E+02  0.47000000000E+01 0. -1.
         -5    1    3    3    0  502 -0.31750538603E+02  0.16481434968E+02  0.22021701345E+03  0.22315321511E+03  0.47000000000E+01 0. -1.
          5    1    4    4  503    0 -0.43418358233E+01  0.49850829668E+02  0.47784679050E+02  0.69349998622E+02  0.47000000000E+01 0.  1.
         -5    1    4    4    0  503 -0.10940687976E+02 -0.46273910098E+02  0.24142376039E+03  0.24610667502E+03  0.47000000000E+01 0.  1.
<mgrwt>
<rscale>  0 0.12598097E+03</rscale>
<asrwt>0</asrwt>
<pdfrwt beam="1">  1        5 0.88344950E-01 0.12598171E+03</pdfrwt>
<pdfrwt beam="2">  1       -5 0.42639934E-02 0.12598171E+03</pdfrwt>
<totfact> 0.25461251E+02</totfact>
</mgrwt>
</event>
<event>
 8    1  0.1865596E-007  0.1935131E+03  0.7546771E-02  0.1155331E+00
         -5   -1    0    0    0  501 -0.00000000000E+00  0.00000000000E+00  0.14763792727E+03  0.14771271973E+03  0.47000000000E+01 0. -1.
          5   -1    0    0  501    0  0.00000000000E+00 -0.00000000000E+00 -0.26537642600E+03  0.26541804286E+03  0.47000000000E+01 0. -1.
         25    2    1    2    0    0 -0.14250633042E+03 -0.38913118973E+02 -0.15140165091E+02  0.19410445933E+03  0.12500012597E+03 0.  0.
         25    2    1    2    0    0  0.14250633042E+03  0.38913118973E+02 -0.10259833364E+03  0.21902630326E+03  0.12499527357E+03 0.  0.
          5    1    4    4  502    0 -0.20523107711E+02  0.51610548688E+01 -0.30783363940E+02  0.37650231512E+02  0.47000000000E+01 0. -1.
         -5    1    4    4    0  502  0.16302943814E+03  0.33752064104E+02 -0.71814969696E+02  0.18137607175E+03  0.47000000000E+01 0. -1.
          5    1    3    3  503    0 -0.73631233997E+02  0.42269029455E+02  0.68004994062E+01  0.85302791649E+02  0.47000000000E+01 0.  1.
         -5    1    3    3    0  503 -0.68875096427E+02 -0.81182148428E+02 -0.21940664498E+02  0.10880166768E+03  0.47000000000E+01 0.  1.
<mgrwt>
<rscale>  0 0.19351231E+03</rscale>
<asrwt>0</asrwt>
<pdfrwt beam="2">  1        5 0.40836097E-01 0.19351309E+03</pdfrwt>
<pdfrwt beam="1">  1       -5 0.22722482E-01 0.19351309E+03</pdfrwt>
<totfact> 0.84379243E+01</totfact>
</mgrwt>
</event>
<event>
 8    1  0.1865596E-007  0.1414237E+03  0.7546771E-02  0.1211427E+00
         -5   -1    0    0    0  501 -0.00000000000E+00  0.00000000000E+00  0.54418343405E+02  0.54620930960E+02  0.47000000000E+01 0.  1.
          5   -1    0    0  501    0  0.00000000000E+00 -0.00000000000E+00 -0.36740802803E+03  0.36743808875E+03  0.47000000000E+01 0.  1.
         25    2    1    2    0    0 -0.65971038031E+02  0.46967293469E+01 -0.14674605477E+03  0.20379859895E+03  0.12500090887E+03 0.  0.
         25    2    1    2    0    0  0.65971038031E+02 -0.46967293469E+01 -0.16624362986E+03  0.21826042076E+03  0.12500571857E+03 0.  0.
          5    1    3    3  502    0 -0.53128098147E+02 -0.56400395369E+02 -0.94188682362E+02  0.12205407529E+03  0.47000000000E+01 0. -1.
         -5    1    3    3    0  502 -0.12842939884E+02  0.61097124716E+02 -0.52557372405E+02  0.81744523655E+02  0.47000000000E+01 0. -1.
          5    1    4    4  503    0  0.36515619908E+02  0.59864331651E+02 -0.84706340953E+02  0.11006535740E+03  0.47000000000E+01 0. -1.
         -5    1    4    4    0  503  0.29455418123E+02 -0.64561060998E+02 -0.81537288909E+02  0.10819506337E+03  0.47000000000E+01 0. -1.
<mgrwt>
<rscale>  0 0.14142265E+03</rscale>
<asrwt>0</asrwt>
<pdfrwt beam="2">  1        5 0.56542207E-01 0.14142371E+03</pdfrwt>
<pdfrwt beam="1">  1       -5 0.83899491E-02 0.14142371E+03</pdfrwt>
<totfact> 0.23275418E+02</totfact>
</mgrwt>
</event>
<event>
 8    1  0.1865596E-007  0.1307568E+03  0.7546771E-02  0.1226337E+00
         -5   -1    0    0    0  501 -0.00000000000E+00  0.00000000000E+00  0.96866685029E+02  0.96980640689E+02  0.47000000000E+01 0.  1.
          5   -1    0    0  501    0  0.00000000000E+00 -0.00000000000E+00 -0.17675055211E+03  0.17681303026E+03  0.47000000000E+01 0.  1.
         25    2    1    2    0    0  0.24240013145E+02 -0.29745363565E+02 -0.32691487393E+02  0.13478117915E+03  0.12499947206E+03 0.  0.
         25    2    1    2    0    0 -0.24240013145E+02  0.29745363565E+02 -0.47192379687E+02  0.13901249180E+03  0.12499994914E+03 0.  0.
          5    1    4    4  502    0  0.39609418759E+02 -0.20338667611E+02 -0.34974549969E+02  0.56814404865E+02  0.47000000000E+01 0. -1.
         -5    1    4    4    0  502 -0.63849431904E+02  0.50084031176E+02 -0.12217829719E+02  0.82198086938E+02  0.47000000000E+01 0. -1.
          5    1    3    3  503    0  0.21566809102E+02 -0.78563020650E+02 -0.21922041761E+02  0.84498173847E+02  0.47000000000E+01 0. -1.
         -5    1    3    3    0  503  0.26732040436E+01  0.48817657085E+02 -0.10769445632E+02  0.50283005303E+02  0.47000000000E+01 0. -1.
<mgrwt>
<rscale>  0 0.13075673E+03</rscale>
<asrwt>0</asrwt>
<pdfrwt beam="2">  1        5 0.27205964E-01 0.13075684E+03</pdfrwt>
<pdfrwt beam="1">  1       -5 0.14916139E-01 0.13075684E+03</pdfrwt>
<totfact> 0.36612401E+02</totfact>
</mgrwt>
</event>
<event>
 8    1  0.1865596E-007  0.1256307E+03  0.7546771E-02  0.1234087E+00
          5   -1    0    0  501    0  0.00000000000E+00  0.00000000000E+00  0.77586549291E+03  0.77587972849E+03  0.47000000000E+01 0. -1.
         -5   -1    0    0    0  501 -0.00000000000E+00 -0.00000000000E+00 -0.21351805968E+02  0.21862973679E+02  0.47000000000E+01 0. -1.
         25    2    1    2    0    0  0.11589959369E+02 -0.48400743802E+01  0.28023435405E+03  0.30710645381E+03  0.12500130921E+03 0.  0.
         25    2    1    2    0    0 -0.11589959369E+02  0.48400743802E+01  0.47427933289E+03  0.49063624836E+03  0.12500115649E+03 0.  0.
          5    1    3    3  502    0  0.33826847481E+02 -0.17276471135E+02  0.15800193692E+02  0.41406137059E+02  0.47000000000E+01 0.  1.
         -5    1    3    3    0  502 -0.22236888113E+02  0.12436396755E+02  0.26443416036E+03  0.26570031675E+03  0.47000000000E+01 0.  1.
          5    1    4    4  503    0  0.43312569635E+02 -0.10231067140E+02  0.36104034072E+03  0.36380334118E+03  0.47000000000E+01 0.  1.
         -5    1    4    4    0  503 -0.54902529004E+02  0.15071141520E+02  0.11323899217E+03  0.12683290718E+03  0.47000000000E+01 0.  1.
<mgrwt>
<rscale>  0 0.12563069E+03</rscale>
<asrwt>0</asrwt>
<pdfrwt beam="1">  1        5 0.11940436E+00 0.12563073E+03</pdfrwt>
<pdfrwt beam="2">  1       -5 0.33253083E-02 0.12563073E+03</pdfrwt>
<totfact> 0.18281202E+02</totfact>
</mgrwt>
</event>
<event>
 8    1  0.1865596E-007  0.1461594E+03  0.7546771E-02  0.1205276E+00
          5   -1    0    0  501    0  0.00000000000E+00  0.00000000000E+00  0.61631566546E+03  0.61633358621E+03  0.47000000000E+01 0. -1.
         -5   -1    0    0    0  501 -0.00000000000E+00 -0.00000000000E+00 -0.35254217155E+02  0.35566133149E+02  0.47000000000E+01 0. -1.
         25    2    1    2    0    0  0.58596414712E+02  0.47980103417E+02  0.24249630247E+03  0.28313295403E+03  0.12499673116E+03 0.  0.
         25    2    1    2    0    0 -0.58596414712E+02 -0.47980103417E+02  0.33856514583E+03  0.36876676534E+03  0.12500775617E+03 0.  0.
          5    1    3    3  502    0 -0.10673929794E+02 -0.21045322259E+02  0.28121354946E+01  0.24224707888E+02  0.47000000000E+01 0.  1.
         -5    1    3    3    0  502  0.69270344506E+02  0.69025425676E+02  0.23968416698E+03  0.25890824614E+03  0.47000000000E+01 0.  1.
          5    1    4    4  503    0 -0.17985995321E+02 -0.24919912935E+02  0.44924556241E+01  0.31412899356E+02  0.47000000000E+01 0.  1.
         -5    1    4    4    0  503 -0.40610419391E+02 -0.23060190482E+02  0.33407269021E+03  0.33735386598E+03  0.47000000000E+01 0.  1.
<mgrwt>
<rscale>  0 0.14615704E+03</rscale>
<asrwt>0</asrwt>
<pdfrwt beam="1">  1        5 0.94843162E-01 0.14615940E+03</pdfrwt>
<pdfrwt beam="2">  1       -5 0.54490981E-02 0.14615940E+03</pdfrwt>
<totfact> 0.15057293E+02</totfact>
</mgrwt>
</event>
<event>
 8    1  0.1865596E-007  0.1474690E+03  0.7546771E-02  0.1203623E+00
         -5   -1    0    0    0  501 -0.00000000000E+00  0.00000000000E+00  0.55816244945E+02  0.56013776874E+02  0.47000000000E+01 0. -1.
          5   -1    0    0  501    0  0.00000000000E+00 -0.00000000000E+00 -0.42026881967E+03  0.42029509964E+03  0.47000000000E+01 0. -1.
         25    2    1    2    0    0  0.76331463110E+02  0.17088774958E+02 -0.11694486895E+03  0.18819921502E+03  0.12499729466E+03 0.  0.
         25    2    1    2    0    0 -0.76331463110E+02 -0.17088774958E+02 -0.24750770578E+03  0.28810966149E+03  0.12501437572E+03 0.  0.
          5    1    3    3  502    0 -0.52483517764E+01 -0.20408367754E+02  0.16583035994E+02  0.27223771846E+02  0.47000000000E+01 0.  1.
         -5    1    3    3    0  502  0.81579814887E+02  0.37497142712E+02 -0.13352790494E+03  0.16097544318E+03  0.47000000000E+01 0.  1.
          5    1    4    4  503    0  0.15457690408E+02  0.98602670054E+01 -0.15085789683E+03  0.15204065277E+03  0.47000000000E+01 0.  1.
         -5    1    4    4    0  503 -0.91789153518E+02 -0.26949041963E+02 -0.96649808949E+02  0.13606900873E+03  0.47000000000E+01 0.  1.
<mgrwt>
<rscale>  0 0.14746540E+03</rscale>
<asrwt>0</asrwt>
<pdfrwt beam="2">  1        5 0.64673956E-01 0.14746902E+03</pdfrwt>
<pdfrwt beam="1">  1       -5 0.86043312E-02 0.14746902E+03</pdfrwt>
<totfact> 0.16826272E+02</totfact>
</mgrwt>
</event>
<event>
 8    1  0.1865596E-007  0.1290496E+03  0.7546771E-02  0.1228874E+00
         -5   -1    0    0    0  501 -0.00000000000E+00  0.00000000000E+00  0.30065237317E+02  0.30430387689E+02  0.47000000000E+01 0. -1.
          5   -1    0    0  501    0  0.00000000000E+00 -0.00000000000E+00 -0.57264456504E+03  0.57266385242E+03  0.47000000000E+01 0. -1.
         25    2    1    2    0    0  0.97381754313E+01  0.30553235734E+02 -0.21160462280E+03  0.24785138802E+03  0.12500184749E+03 0.  0.
         25    2    1    2    0    0 -0.97381754313E+01 -0.30553235734E+02 -0.33097470492E+03  0.35524285210E+03  0.12499958557E+03 0.  0.
          5    1    4    4  502    0 -0.57353305030E+02 -0.19966993042E+02 -0.85823111539E+02  0.10524152642E+03  0.47000000000E+01 0. -1.
         -5    1    4    4    0  502  0.47615129599E+02 -0.10586242693E+02 -0.24515159338E+03  0.25000132568E+03  0.47000000000E+01 0. -1.
          5    1    3    3  503    0 -0.23418250967E+02 -0.17027290960E+01 -0.19794813625E+03  0.19939124456E+03  0.47000000000E+01 0.  1.
         -5    1    3    3    0  503  0.33156426398E+02  0.32255964830E+02 -0.13656486558E+02  0.48460143456E+02  0.47000000000E+01 0.  1.
<mgrwt>
<rscale>  0 0.12904903E+03</rscale>
<asrwt>0</asrwt>
<pdfrwt beam="2">  1        5 0.88128728E-01 0.12904958E+03</pdfrwt>
<pdfrwt beam="1">  1       -5 0.46549937E-02 0.12904958E+03</pdfrwt>
<totfact> 0.22352944E+02</totfact>
</mgrwt>
</event>
<event>
 8    1  0.1865596E-007  0.1511792E+03  0.7546771E-02  0.1199034E+00
          5   -1    0    0  501    0  0.00000000000E+00  0.00000000000E+00  0.58407467752E+02  0.58596265148E+02  0.47000000000E+01 0. -1.
         -5   -1    0    0    0  501 -0.00000000000E+00 -0.00000000000E+00 -0.39817455308E+03  0.39820229121E+03  0.47000000000E+01 0. -1.
         25    2    1    2    0    0 -0.76472181037E+01 -0.84662328557E+02 -0.13806927920E+03  0.20473275630E+03  0.12500474319E+03 0.  0.
         25    2    1    2    0    0  0.76472181037E+01  0.84662328557E+02 -0.20169780613E+03  0.25206580006E+03  0.12501588995E+03 0.  0.
          5    1    3    3  502    0 -0.20031798798E+02 -0.11830713311E+02 -0.12781437442E+03  0.12999939634E+03  0.47000000000E+01 0. -1.
         -5    1    3    3    0  502  0.12384580694E+02 -0.72831615246E+02 -0.10254904781E+02  0.74733359956E+02  0.47000000000E+01 0. -1.
          5    1    4    4  503    0 -0.57816870374E+02  0.29492511878E+02 -0.95764244127E+02  0.11578203319E+03  0.47000000000E+01 0.  1.
         -5    1    4    4    0  503  0.65464088478E+02  0.55169816679E+02 -0.10593356200E+03  0.13628376687E+03  0.47000000000E+01 0.  1.
<mgrwt>
<rscale>  0 0.15117694E+03</rscale>
<asrwt>0</asrwt>
<pdfrwt beam="1">  1        5 0.90024211E-02 0.15117924E+03</pdfrwt>
<pdfrwt beam="2">  1       -5 0.61274278E-01 0.15117924E+03</pdfrwt>
<totfact> 0.17676172E+02</totfact>
</mgrwt>
</event>
<event>
 8    1  0.1865596E-007  0.1255040E+03  0.7546771E-02  0.1234284E+00
          5   -1    0    0  501    0  0.00000000000E+00  0.00000000000E+00  0.86629231628E+01  0.98557717975E+01  0.47000000000E+01 0.  1.
         -5   -1    0    0    0  501 -0.00000000000E+00 -0.00000000000E+00 -0.24223053131E+04  0.24223098728E+04  0.47000000000E+01 0.  1.
         25    2    1    2    0    0  0.99144252899E+01  0.52982624146E+01 -0.18707566326E+04  0.18749617712E+04  0.12499959039E+03 0.  0.
         25    2    1    2    0    0 -0.99144252899E+01 -0.52982624146E+01 -0.54288575741E+03  0.55720387348E+03  0.12499937444E+03 0.  0.
          5    1    4    4  502    0  0.24832934238E+02  0.52137036713E+02 -0.26951942254E+03  0.27567690209E+03  0.47000000000E+01 0. -1.
         -5    1    4    4    0  502 -0.34747359528E+02 -0.57435299128E+02 -0.27336633487E+03  0.28152697139E+03  0.47000000000E+01 0. -1.
          5    1    3    3  503    0  0.31145710880E+02 -0.30862820334E+02 -0.26449292429E+03  0.26814392775E+03  0.47000000000E+01 0. -1.
         -5    1    3    3    0  503 -0.21231285590E+02  0.36161082749E+02 -0.16062637083E+04  0.16068178434E+04  0.47000000000E+01 0. -1.
<mgrwt>
<rscale>  0 0.12550399E+03</rscale>
<asrwt>0</asrwt>
<pdfrwt beam="1">  1        5 0.14248677E-02 0.12550404E+03</pdfrwt>
<pdfrwt beam="2">  1       -5 0.37275396E+00 0.12550404E+03</pdfrwt>
<totfact> 0.13060753E+01</totfact>
</mgrwt>
</event>
<event>
 8    1  0.1865596E-007  0.1662635E+03  0.7546771E-02  0.1181805E+00
          5   -1    0    0  501    0  0.00000000000E+00  0.00000000000E+00  0.13678413834E+03  0.13686486219E+03  0.47000000000E+01 0.  1.
         -5   -1    0    0    0  501 -0.00000000000E+00 -0.00000000000E+00 -0.21186034126E+03  0.21191246825E+03  0.47000000000E+01 0.  1.
         25    2    1    2    0    0  0.12557910717E+02 -0.10890242751E+03 -0.75314662122E+02  0.18252633920E+03  0.12500450525E+03 0.  0.
         25    2    1    2    0    0 -0.12557910717E+02  0.10890242751E+03  0.23845920816E+00  0.16625099123E+03  0.12498758091E+03 0.  0.
          5    1    3    3  502    0  0.60403761754E+02 -0.32658323016E+02 -0.59567908609E+02  0.91025305450E+02  0.47000000000E+01 0.  1.
         -5    1    3    3    0  502 -0.47845851037E+02 -0.76244104496E+02 -0.15746753513E+02  0.91501033754E+02  0.47000000000E+01 0.  1.
          5    1    4    4  503    0 -0.58894868849E+01  0.61806489833E+02  0.62191153830E+02  0.88003169580E+02  0.47000000000E+01 0. -1.
         -5    1    4    4    0  503 -0.66684238318E+01  0.47095937679E+02 -0.61952694622E+02  0.78247821651E+02  0.47000000000E+01 0. -1.
<mgrwt>
<rscale>  0 0.16626036E+03</rscale>
<asrwt>0</asrwt>
<pdfrwt beam="1">  1        5 0.21053933E-01 0.16626354E+03</pdfrwt>
<pdfrwt beam="2">  1       -5 0.32604118E-01 0.16626354E+03</pdfrwt>
<totfact> 0.14719391E+02</totfact>
</mgrwt>
</event>
<event>
 8    1  0.1865596E-007  0.1346233E+03  0.7546771E-02  0.1220753E+00
          5   -1    0    0  501    0  0.00000000000E+00  0.00000000000E+00  0.23572077635E+03  0.23576762798E+03  0.47000000000E+01 0.  1.
         -5   -1    0    0    0  501 -0.00000000000E+00 -0.00000000000E+00 -0.11112881485E+03  0.11122815961E+03  0.47000000000E+01 0.  1.
         25    2    1    2    0    0  0.86764731496E+01 -0.49218259635E+02 -0.34118553081E+02  0.13887945879E+03  0.12500284054E+03 0.  0.
         25    2    1    2    0    0 -0.86764731496E+01  0.49218259635E+02  0.15871051459E+03  0.20811632880E+03  0.12500264238E+03 0.  0.
          5    1    4    4  502    0  0.47649258152E+02  0.46747433249E+02  0.43638415784E+02  0.79888520139E+02  0.47000000000E+01 0.  1.
         -5    1    4    4    0  502 -0.56325731302E+02  0.24708263855E+01  0.11507209880E+03  0.12822780866E+03  0.47000000000E+01 0.  1.
          5    1    3    3  503    0 -0.26618264954E+02  0.29107555201E+02  0.11688244378E+02  0.41406362501E+02  0.47000000000E+01 0.  1.
         -5    1    3    3    0  503  0.35294738104E+02 -0.78325814835E+02 -0.45806797459E+02  0.97473096293E+02  0.47000000000E+01 0.  1.
<mgrwt>
<rscale>  0 0.13462324E+03</rscale>
<asrwt>0</asrwt>
<pdfrwt beam="1">  1        5 0.36275980E-01 0.13462328E+03</pdfrwt>
<pdfrwt beam="2">  1       -5 0.17107987E-01 0.13462328E+03</pdfrwt>
<totfact> 0.16331292E+02</totfact>
</mgrwt>
</event>
<event>
 8    1  0.1865596E-007  0.1590378E+03  0.7546771E-02  0.1189789E+00
         -5   -1    0    0    0  501 -0.00000000000E+00  0.00000000000E+00  0.18360303216E+03  0.18366317927E+03  0.47000000000E+01 0.  1.
          5   -1    0    0  501    0  0.00000000000E+00 -0.00000000000E+00 -0.14468249023E+03  0.14475880968E+03  0.47000000000E+01 0.  1.
         25    2    1    2    0    0 -0.94510957718E+02  0.27090857203E+02  0.55696033734E+02  0.16850189204E+03  0.12499841508E+03 0.  0.
         25    2    1    2    0    0  0.94510957718E+02 -0.27090857203E+02 -0.16775491801E+02  0.15992009691E+03  0.12500713819E+03 0.  0.
          5    1    4    4  502    0  0.14360265029E+02  0.53233003805E+01 -0.60737121104E+02  0.62814350420E+02  0.47000000000E+01 0.  1.
         -5    1    4    4    0  502  0.80150692689E+02 -0.32414157583E+02  0.43961629303E+02  0.97105746489E+02  0.47000000000E+01 0.  1.
          5    1    3    3  503    0 -0.12022101188E+03  0.29012120445E+02  0.21816582938E+02  0.12566959903E+03  0.47000000000E+01 0.  1.
         -5    1    3    3    0  503  0.25710054164E+02 -0.19212632417E+01  0.33879450796E+02  0.42832293002E+02  0.47000000000E+01 0.  1.
<mgrwt>
<rscale>  0 0.15903608E+03</rscale>
<asrwt>0</asrwt>
<pdfrwt beam="2">  1        5 0.22269342E-01 0.15903780E+03</pdfrwt>
<pdfrwt beam="1">  1       -5 0.28257118E-01 0.15903780E+03</pdfrwt>
<totfact> 0.17316204E+02</totfact>
</mgrwt>
</event>
<event>
 8    1  0.1865596E-007  0.1279083E+03  0.7546771E-02  0.1230593E+00
          5   -1    0    0  501    0  0.00000000000E+00  0.00000000000E+00  0.96924694405E+01  0.10771906231E+02  0.47000000000E+01 0.  1.
         -5   -1    0    0    0  501 -0.00000000000E+00 -0.00000000000E+00 -0.16004254625E+04  0.16004323638E+04  0.47000000000E+01 0.  1.
         25    2    1    2    0    0 -0.22043958038E+02 -0.15794741071E+02 -0.76299283487E+03  0.77363975744E+03  0.12499999316E+03 0.  0.
         25    2    1    2    0    0  0.22043958038E+02  0.15794741071E+02 -0.82774015819E+03  0.83756451257E+03  0.12500053323E+03 0.  0.
          5    1    4    4  502    0  0.57614263974E+02  0.32188296895E+02 -0.25420062415E+03  0.26267001578E+03  0.47000000000E+01 0.  1.
         -5    1    4    4    0  502 -0.35570305937E+02 -0.16393555824E+02 -0.57353953404E+03  0.57489449680E+03  0.47000000000E+01 0.  1.
          5    1    3    3  503    0 -0.38448395490E+02 -0.36947987799E+02 -0.72474404578E+03  0.72671827747E+03  0.47000000000E+01 0. -1.
         -5    1    3    3    0  503  0.16404437452E+02  0.21153246728E+02 -0.38248789096E+02  0.46921479970E+02  0.47000000000E+01 0. -1.
<mgrwt>
<rscale>  0 0.12790821E+03</rscale>
<asrwt>0</asrwt>
<pdfrwt beam="1">  1        5 0.15747149E-02 0.12790834E+03</pdfrwt>
<pdfrwt beam="2">  1       -5 0.24630267E+00 0.12790834E+03</pdfrwt>
<totfact> 0.72376260E+01</totfact>
</mgrwt>
</event>
<event>
 8    1  0.1865596E-007  0.1329339E+03  0.7546771E-02  0.1223170E+00
         -5   -1    0    0    0  501 -0.00000000000E+00  0.00000000000E+00  0.12511366276E+03  0.12520191136E+03  0.47000000000E+01 0. -1.
          5   -1    0    0  501    0  0.00000000000E+00 -0.00000000000E+00 -0.14107814118E+03  0.14115640941E+03  0.47000000000E+01 0. -1.
         25    2    1    2    0    0 -0.27779342593E+02 -0.35699818133E+02 -0.96955056584E+01  0.13327668082E+03  0.12499000733E+03 0.  0.
         25    2    1    2    0    0  0.27779342593E+02  0.35699818133E+02 -0.62689727596E+01  0.13308163995E+03  0.12500101592E+03 0.  0.
          5    1    4    4  502    0 -0.46166846693E+02  0.16585827461E+02 -0.23573335286E+02  0.54628376716E+02  0.47000000000E+01 0.  1.
         -5    1    4    4    0  502  0.73946189286E+02  0.19113990672E+02  0.17304362526E+02  0.78453263232E+02  0.47000000000E+01 0.  1.
          5    1    3    3  503    0  0.43352937074E+02  0.13610195909E+02  0.24656183839E+01  0.45748047604E+02  0.47000000000E+01 0.  1.
         -5    1    3    3    0  503 -0.71132279667E+02 -0.49310014041E+02 -0.12161124042E+02  0.87528633220E+02  0.47000000000E+01 0.  1.
<mgrwt>
<rscale>  0 0.13293132E+03</rscale>
<asrwt>0</asrwt>
<pdfrwt beam="2">  1        5 0.21717138E-01 0.13293390E+03</pdfrwt>
<pdfrwt beam="1">  1       -5 0.19261065E-01 0.13293390E+03</pdfrwt>
<totfact> 0.35450170E+02</totfact>
</mgrwt>
</event>
<event>
 8    1  0.1865596E-007  0.1318243E+03  0.7546771E-02  0.1224774E+00
          5   -1    0    0  501    0  0.00000000000E+00  0.00000000000E+00  0.40981816984E+03  0.40984511993E+03  0.47000000000E+01 0.  1.
         -5   -1    0    0    0  501 -0.00000000000E+00 -0.00000000000E+00 -0.46427602023E+02  0.46664892902E+02  0.47000000000E+01 0.  1.
         25    2    1    2    0    0 -0.25396034306E+02  0.33258688256E+02  0.11338335284E+03  0.17387727797E+03  0.12500569662E+03 0.  0.
         25    2    1    2    0    0  0.25396034306E+02 -0.33258688256E+02  0.25000721497E+03  0.28263273486E+03  0.12500622535E+03 0.  0.
          5    1    4    4  502    0  0.71655642425E+02 -0.43725141018E+02  0.16449194715E+03  0.18473253564E+03  0.47000000000E+01 0. -1.
         -5    1    4    4    0  502 -0.46259608119E+02  0.10466452762E+02  0.85515267826E+02  0.97900199224E+02  0.47000000000E+01 0. -1.
          5    1    3    3  503    0 -0.10295667039E+02 -0.44729621004E+02  0.68282104225E+02  0.82409195557E+02  0.47000000000E+01 0. -1.
         -5    1    3    3    0  503 -0.15100367267E+02  0.77988309260E+02  0.45101248619E+02  0.91468082410E+02  0.47000000000E+01 0. -1.
<mgrwt>
<rscale>  0 0.13182421E+03</rscale>
<asrwt>0</asrwt>
<pdfrwt beam="1">  1        5 0.63069276E-01 0.13182433E+03</pdfrwt>
<pdfrwt beam="2">  1       -5 0.71630342E-02 0.13182433E+03</pdfrwt>
<totfact> 0.23457866E+02</totfact>
</mgrwt>
</event>
<event>
 8    1  0.1865596E-007  0.1314161E+03  0.7546771E-02  0.1225370E+00
          5   -1    0    0  501    0  0.00000000000E+00  0.00000000000E+00  0.24904463701E+03  0.24908898254E+03  0.47000000000E+01 0.  1.
         -5   -1    0    0    0  501 -0.00000000000E+00 -0.00000000000E+00 -0.11531876310E+03  0.11541450135E+03  0.47000000000E+01 0.  1.
         25    2    1    2    0    0 -0.22597338407E+02  0.33674882717E+02 -0.48288374247E+02  0.14000697307E+03  0.12500219195E+03 0.  0.
         25    2    1    2    0    0  0.22597338407E+02 -0.33674882717E+02  0.18201424816E+03  0.22449651082E+03  0.12499943763E+03 0.  0.
          5    1    3    3  502    0  0.11933802549E+02 -0.23842881900E+02  0.27562819459E+02  0.38635445863E+02  0.47000000000E+01 0.  1.
         -5    1    3    3    0  502 -0.34531140956E+02  0.57517764616E+02 -0.75851193706E+02  0.10137152721E+03  0.47000000000E+01 0.  1.
          5    1    4    4  503    0 -0.38624267885E+01 -0.78712300073E+02  0.11129723261E+03  0.13645405275E+03  0.47000000000E+01 0.  1.
         -5    1    4    4    0  503  0.26459765196E+02  0.45037417356E+02  0.70717015548E+02  0.88042458077E+02  0.47000000000E+01 0.  1.
<mgrwt>
<rscale>  0 0.13141542E+03</rscale>
<asrwt>0</asrwt>
<pdfrwt beam="1">  1        5 0.38325335E-01 0.13141608E+03</pdfrwt>
<pdfrwt beam="2">  1       -5 0.17752124E-01 0.13141608E+03</pdfrwt>
<totfact> 0.13543783E+02</totfact>
</mgrwt>
</event>
<event>
 8    1  0.1865596E-007  0.1274101E+03  0.7546771E-02  0.1231352E+00
         -5   -1    0    0    0  501 -0.00000000000E+00  0.00000000000E+00  0.29632029365E+02  0.30002452638E+02  0.47000000000E+01 0. -1.
          5   -1    0    0  501    0  0.00000000000E+00 -0.00000000000E+00 -0.10961551834E+04  0.10961652595E+04  0.47000000000E+01 0. -1.
         25    2    1    2    0    0  0.15654028205E+02 -0.19073549610E+02 -0.13370803325E+03  0.18469212968E+03  0.12499798285E+03 0.  0.
         25    2    1    2    0    0 -0.15654028205E+02  0.19073549610E+02 -0.93281512082E+03  0.94147558247E+03  0.12499349531E+03 0.  0.
          5    1    4    4  502    0  0.46353082815E+02  0.36100783852E+02 -0.56357907046E+03  0.56665274511E+03  0.47000000000E+01 0.  1.
         -5    1    4    4    0  502 -0.62007111019E+02 -0.17027234241E+02 -0.36923605036E+03  0.37482283736E+03  0.47000000000E+01 0.  1.
          5    1    3    3  503    0  0.41941936716E+02 -0.21618610038E+01 -0.14507218930E+03  0.15110205097E+03  0.47000000000E+01 0.  1.
         -5    1    3    3    0  503 -0.26287908511E+02 -0.16911688606E+02  0.11364156048E+02  0.33590078715E+02  0.47000000000E+01 0.  1.
<mgrwt>
<rscale>  0 0.12740904E+03</rscale>
<asrwt>0</asrwt>
<pdfrwt beam="2">  1        5 0.16866850E+00 0.12741014E+03</pdfrwt>
<pdfrwt beam="1">  1       -5 0.45880438E-02 0.12741014E+03</pdfrwt>
<totfact> 0.43003571E+01</totfact>
</mgrwt>
</event>
<event>
 8    1  0.1865596E-007  0.1452922E+03  0.7546771E-02  0.1206383E+00
          5   -1    0    0  501    0  0.00000000000E+00  0.00000000000E+00  0.68080100484E+02  0.68242143005E+02  0.47000000000E+01 0.  1.
         -5   -1    0    0    0  501 -0.00000000000E+00 -0.00000000000E+00 -0.33121291734E+03  0.33124626279E+03  0.47000000000E+01 0.  1.
         25    2    1    2    0    0  0.57338577289E+01 -0.73831838849E+02 -0.18268061432E+03  0.23340892425E+03  0.12499400593E+03 0.  0.
         25    2    1    2    0    0 -0.57338577289E+01  0.73831838849E+02 -0.80452202532E+02  0.16607948154E+03  0.12500327894E+03 0.  0.
          5    1    3    3  502    0  0.60294070201E+02 -0.10197836715E+02 -0.77143978046E+02  0.98552798661E+02  0.47000000000E+01 0.  1.
         -5    1    3    3    0  502 -0.54560212472E+02 -0.63634002134E+02 -0.10553663628E+03  0.13485612559E+03  0.47000000000E+01 0.  1.
          5    1    4    4  503    0  0.42007890875E+02  0.17320710427E+02  0.12335628836E+02  0.47317308083E+02  0.47000000000E+01 0. -1.
         -5    1    4    4    0  503 -0.47741748604E+02  0.56511128421E+02 -0.92787831368E+02  0.11876217346E+03  0.47000000000E+01 0. -1.
<mgrwt>
<rscale>  0 0.14529025E+03</rscale>
<asrwt>0</asrwt>
<pdfrwt beam="1">  1        5 0.10488892E-01 0.14529225E+03</pdfrwt>
<pdfrwt beam="2">  1       -5 0.50970863E-01 0.14529225E+03</pdfrwt>
<totfact> 0.19908605E+02</totfact>
</mgrwt>
</event>
<event>
 8    1  0.1865596E-007  0.1559955E+03  0.7546771E-02  0.1193296E+00
         -5   -1    0    0    0  501 -0.00000000000E+00  0.00000000000E+00  0.65083574080E+02  0.65253058281E+02  0.47000000000E+01 0. -1.
          5   -1    0    0  501    0  0.00000000000E+00 -0.00000000000E+00 -0.37503501338E+03  0.37506446281E+03  0.47000000000E+01 0. -1.
         25    2    1    2    0    0 -0.34160138820E+02  0.86834318059E+02 -0.13958381871E+03  0.20932028690E+03  0.12499690470E+03 0.  0.
         25    2    1    2    0    0  0.34160138820E+02 -0.86834318059E+02 -0.17036762060E+03  0.23099723420E+03  0.12500992833E+03 0.  0.
          5    1    4    4  502    0  0.20501433297E+02 -0.13907116285E+02  0.16330484484E+02  0.30041494205E+02  0.47000000000E+01 0. -1.
         -5    1    4    4    0  502  0.13658705522E+02 -0.72927201775E+02 -0.18669810508E+03  0.20095573999E+03  0.47000000000E+01 0. -1.
          5    1    3    3  503    0 -0.73110190516E+02  0.53113398457E+02 -0.12723956522E+03  0.15613497370E+03  0.47000000000E+01 0. -1.
         -5    1    3    3    0  503  0.38950051696E+02  0.33720919603E+02 -0.12344253485E+02  0.53185313199E+02  0.47000000000E+01 0. -1.
<mgrwt>
<rscale>  0 0.15599289E+03</rscale>
<asrwt>0</asrwt>
<pdfrwt beam="2">  1        5 0.57712996E-01 0.15599550E+03</pdfrwt>
<pdfrwt beam="1">  1       -5 0.10028160E-01 0.15599550E+03</pdfrwt>
<totfact> 0.16870968E+02</totfact>
</mgrwt>
</event>
<event>
 8    1  0.1865596E-007  0.1336429E+03  0.7546771E-02  0.1222150E+00
         -5   -1    0    0    0  501 -0.00000000000E+00  0.00000000000E+00  0.97323596791E+02  0.97437018080E+02  0.47000000000E+01 0.  1.
          5   -1    0    0  501    0  0.00000000000E+00 -0.00000000000E+00 -0.26574387233E+03  0.26578543166E+03  0.47000000000E+01 0.  1.
         25    2    1    2    0    0 -0.41102347242E+02  0.23333103825E+02  0.16938415583E+02  0.13471205691E+03  0.12500636653E+03 0.  0.
         25    2    1    2    0    0  0.41102347242E+02 -0.23333103825E+02 -0.18535869112E+03  0.22851039282E+03  0.12500127427E+03 0.  0.
          5    1    3    3  502    0  0.13924554758E+02  0.38222882827E+02  0.53088024575E+02  0.67047075627E+02  0.47000000000E+01 0.  1.
         -5    1    3    3    0  502 -0.55026902000E+02 -0.14889779002E+02 -0.36149608992E+02  0.67664981288E+02  0.47000000000E+01 0.  1.
          5    1    4    4  503    0 -0.36773567688E+02 -0.32522861621E+02 -0.40884627056E+02  0.64059929270E+02  0.47000000000E+01 0.  1.
         -5    1    4    4    0  503  0.77875914930E+02  0.91897577958E+01 -0.14447406407E+03  0.16445046355E+03  0.47000000000E+01 0.  1.
<mgrwt>
<rscale>  0 0.13364172E+03</rscale>
<asrwt>0</asrwt>
<pdfrwt beam="2">  1        5 0.40895594E-01 0.13364291E+03</pdfrwt>
<pdfrwt beam="1">  1       -5 0.14984783E-01 0.13364291E+03</pdfrwt>
<totfact> 0.16254715E+02</totfact>
</mgrwt>
</event>
<event>
 8    1  0.1865596E-007  0.1759426E+03  0.7546771E-02  0.1171789E+00
         -5   -1    0    0    0  501 -0.00000000000E+00  0.00000000000E+00  0.13806295376E+03  0.13814293033E+03  0.47000000000E+01 0.  1.
          5   -1    0    0  501    0  0.00000000000E+00 -0.00000000000E+00 -0.22548064822E+03  0.22552962714E+03  0.47000000000E+01 0.  1.
         25    2    1    2    0    0 -0.10457196758E+03  0.66302601791E+02 -0.29203921123E+02  0.17834950798E+03  0.12499738629E+03 0.  0.
         25    2    1    2    0    0  0.10457196758E+03 -0.66302601791E+02 -0.58213773335E+02  0.18532304950E+03  0.12499783142E+03 0.  0.
          5    1    4    4  502    0  0.10318239986E+03 -0.77627603567E+02 -0.35216905210E+01  0.12925612086E+03  0.47000000000E+01 0. -1.
         -5    1    4    4    0  502  0.13895677217E+01  0.11325001775E+02 -0.54692082814E+02  0.56066928632E+02  0.47000000000E+01 0. -1.
          5    1    3    3  503    0 -0.88245371070E+02  0.81137049263E+02  0.22390566322E+02  0.12204054137E+03  0.47000000000E+01 0. -1.
         -5    1    3    3    0  503 -0.16326596512E+02 -0.14834447471E+02 -0.51594487444E+02  0.56308966605E+02  0.47000000000E+01 0. -1.
<mgrwt>
<rscale>  0 0.17594249E+03</rscale>
<asrwt>0</asrwt>
<pdfrwt beam="2">  1        5 0.34699250E-01 0.17594257E+03</pdfrwt>
<pdfrwt beam="1">  1       -5 0.21250374E-01 0.17594257E+03</pdfrwt>
<totfact> 0.12986788E+02</totfact>
</mgrwt>
</event>
<event>
 8    1  0.1865596E-007  0.1256086E+03  0.7546771E-02  0.1234121E+00
         -5   -1    0    0    0  501 -0.00000000000E+00  0.00000000000E+00  0.80732318185E+03  0.80733686275E+03  0.47000000000E+01 0. -1.
          5   -1    0    0  501    0  0.00000000000E+00 -0.00000000000E+00 -0.22921818374E+02  0.23398712733E+02  0.47000000000E+01 0. -1.
         25    2    1    2    0    0 -0.12263455302E+02 -0.16386388454E+01  0.55662023444E+03  0.57061683562E+03  0.12499764089E+03 0.  0.
         25    2    1    2    0    0  0.12263455302E+02  0.16386388454E+01  0.22778112903E+03  0.26011873986E+03  0.12499775442E+03 0.  0.
          5    1    3    3  502    0  0.23952209948E+02 -0.30840244479E+02  0.47442315147E+03  0.47605067555E+03  0.47000000000E+01 0. -1.
         -5    1    3    3    0  502 -0.36215665249E+02  0.29201605634E+02  0.82197082969E+02  0.94566160067E+02  0.47000000000E+01 0. -1.
          5    1    4    4  503    0  0.35234845615E+02  0.55340566536E+02  0.13851464917E+03  0.15333776666E+03  0.47000000000E+01 0.  1.
         -5    1    4    4    0  503 -0.22971390313E+02 -0.53701927690E+02  0.89266479861E+02  0.10678097320E+03  0.47000000000E+01 0.  1.
<mgrwt>
<rscale>  0 0.12560855E+03</rscale>
<asrwt>0</asrwt>
<pdfrwt beam="2">  1        5 0.35641701E-02 0.12560858E+03</pdfrwt>
<pdfrwt beam="1">  1       -5 0.12424130E+00 0.12560858E+03</pdfrwt>
<totfact> 0.14755988E+02</totfact>
</mgrwt>
</event>
<event>
 8    1  0.1865596E-007  0.1398264E+03  0.7546771E-02  0.1213563E+00
          5   -1    0    0  501    0  0.00000000000E+00  0.00000000000E+00  0.82927323285E+02  0.83060405412E+02  0.47000000000E+01 0.  1.
         -5   -1    0    0    0  501 -0.00000000000E+00 -0.00000000000E+00 -0.24302607089E+03  0.24307151444E+03  0.47000000000E+01 0.  1.
         25    2    1    2    0    0 -0.44901340992E+02 -0.43705119468E+02 -0.10889344555E+03  0.17722641955E+03  0.12500061365E+03 0.  0.
         25    2    1    2    0    0  0.44901340992E+02  0.43705119468E+02 -0.51205302056E+02  0.14890550030E+03  0.12499838867E+03 0.  0.
          5    1    3    3  502    0 -0.10793426188E+01  0.20175024632E+01 -0.11343763961E+03  0.11355801767E+03  0.47000000000E+01 0. -1.
         -5    1    3    3    0  502 -0.43821998373E+02 -0.45722621931E+02  0.45441940677E+01  0.63668401876E+02  0.47000000000E+01 0. -1.
          5    1    4    4  503    0 -0.12504650115E+02  0.15643479544E+02 -0.77102350419E+02  0.79799418337E+02  0.47000000000E+01 0.  1.
         -5    1    4    4    0  503  0.57405991107E+02  0.28061639924E+02  0.25897048364E+02  0.69106081962E+02  0.47000000000E+01 0.  1.
<mgrwt>
<rscale>  0 0.13982590E+03</rscale>
<asrwt>0</asrwt>
<pdfrwt beam="1">  1        5 0.12771783E-01 0.13982640E+03</pdfrwt>
<pdfrwt beam="2">  1       -5 0.37402359E-01 0.13982640E+03</pdfrwt>
<totfact> 0.26377790E+02</totfact>
</mgrwt>
</event>
<event>
 8    1  0.1865596E-007  0.1280209E+03  0.7546771E-02  0.1230425E+00
         -5   -1    0    0    0  501 -0.00000000000E+00  0.00000000000E+00  0.17604847890E+02  0.18221434335E+02  0.47000000000E+01 0.  1.
          5   -1    0    0  501    0  0.00000000000E+00 -0.00000000000E+00 -0.92939913838E+03  0.92941102233E+03  0.47000000000E+01 0.  1.
         25    2    1    2    0    0  0.27139588305E+02 -0.53332279670E+01 -0.39546442404E+03  0.41566989411E+03  0.12499739841E+03 0.  0.
         25    2    1    2    0    0 -0.27139588305E+02  0.53332279670E+01 -0.51632986645E+03  0.53196256256E+03  0.12499054524E+03 0.  0.
          5    1    3    3  502    0 -0.24658081707E+02  0.42585542905E+02 -0.23761344689E+03  0.24270102926E+03  0.47000000000E+01 0.  1.
         -5    1    3    3    0  502  0.51797670012E+02 -0.47918770872E+02 -0.15785097715E+03  0.17296886485E+03  0.47000000000E+01 0.  1.
          5    1    4    4  503    0 -0.26988894444E+02  0.54143045561E+02 -0.14181637621E+03  0.15425253439E+03  0.47000000000E+01 0. -1.
         -5    1    4    4    0  503 -0.15069386053E+00 -0.48809817594E+02 -0.37451349024E+03  0.37771002816E+03  0.47000000000E+01 0. -1.
<mgrwt>
<rscale>  0 0.12801922E+03</rscale>
<asrwt>0</asrwt>
<pdfrwt beam="2">  1        5 0.14303279E+00 0.12802090E+03</pdfrwt>
<pdfrwt beam="1">  1       -5 0.27567827E-02 0.12802090E+03</pdfrwt>
<totfact> 0.15555794E+02</totfact>
</mgrwt>
</event>
<event>
 8    1  0.1865596E-007  0.1257463E+03  0.7546771E-02  0.1233908E+00
         -5   -1    0    0    0  501 -0.00000000000E+00  0.00000000000E+00  0.10135765258E+04  0.10135874227E+04  0.47000000000E+01 0. -1.
          5   -1    0    0  501    0  0.00000000000E+00 -0.00000000000E+00 -0.15278623322E+02  0.15985190979E+02  0.47000000000E+01 0. -1.
         25    2    1    2    0    0 -0.53582067875E+01 -0.12571641070E+02  0.52605192776E+03  0.54087190326E+03  0.12500011398E+03 0.  0.
         25    2    1    2    0    0  0.53582067875E+01  0.12571641070E+02  0.47224597467E+03  0.48870071047E+03  0.12500146912E+03 0.  0.
          5    1    3    3  502    0  0.36336498034E+01 -0.58862694879E+02  0.14091667208E+03  0.15283199511E+03  0.47000000000E+01 0. -1.
         -5    1    3    3    0  502 -0.89918565909E+01  0.46291053809E+02  0.38513525568E+03  0.38803990815E+03  0.47000000000E+01 0. -1.
          5    1    4    4  503    0  0.49184170188E+02  0.10132766656E+02  0.84188918658E+02  0.98140815067E+02  0.47000000000E+01 0.  1.
         -5    1    4    4    0  503 -0.43825963401E+02  0.24388744143E+01  0.38805705601E+03  0.39055989540E+03  0.47000000000E+01 0.  1.
<mgrwt>
<rscale>  0 0.12574593E+03</rscale>
<asrwt>0</asrwt>
<pdfrwt beam="2">  1        5 0.24057462E-02 0.12574627E+03</pdfrwt>
<pdfrwt beam="1">  1       -5 0.15599009E+00 0.12574627E+03</pdfrwt>
<totfact> 0.15191637E+02</totfact>
</mgrwt>
</event>
<event>
 8    1  0.1865596E-007  0.1398598E+03  0.7546771E-02  0.1213525E+00
          5   -1    0    0  501    0  0.00000000000E+00  0.00000000000E+00  0.61384296684E+03  0.61386095978E+03  0.47000000000E+01 0. -1.
         -5   -1    0    0    0  501 -0.00000000000E+00 -0.00000000000E+00 -0.32130338187E+02  0.32472274820E+02  0.47000000000E+01 0. -1.
         25    2    1    2    0    0 -0.44357809648E+02 -0.44288134983E+02  0.25237727018E+03  0.28853951746E+03  0.12502684692E+03 0.  0.
         25    2    1    2    0    0  0.44357809648E+02  0.44288134983E+02  0.32933535847E+03  0.35779371714E+03  0.12500204602E+03 0.  0.
          5    1    3    3  502    0  0.13586425886E+02 -0.86076705193E+01  0.20454213572E+03  0.20522733308E+03  0.47000000000E+01 0.  1.
         -5    1    3    3    0  502 -0.57944235534E+02 -0.35680464464E+02  0.47835134466E+02  0.83312184375E+02  0.47000000000E+01 0.  1.
          5    1    4    4  503    0  0.19439483524E+01  0.56484486649E+01  0.28507953659E+03  0.28518084804E+03  0.47000000000E+01 0. -1.
         -5    1    4    4    0  503  0.42413861296E+02  0.38639686318E+02  0.44255821883E+02  0.72612869103E+02  0.47000000000E+01 0. -1.
<mgrwt>
<rscale>  0 0.13985427E+03</rscale>
<asrwt>0</asrwt>
<pdfrwt beam="1">  1        5 0.94465058E-01 0.13985981E+03</pdfrwt>
<pdfrwt beam="2">  1       -5 0.49708163E-02 0.13985981E+03</pdfrwt>
<totfact> 0.17466241E+02</totfact>
</mgrwt>
</event>
<event>
 8    1  0.1865596E-007  0.2516897E+03  0.7546771E-02  0.1112244E+00
          5   -1    0    0  501    0  0.00000000000E+00  0.00000000000E+00  0.77610030045E+02  0.77752213882E+02  0.47000000000E+01 0.  1.
         -5   -1    0    0    0  501 -0.00000000000E+00 -0.00000000000E+00 -0.96394896735E+03  0.96396042535E+03  0.47000000000E+01 0.  1.
         25    2    1    2    0    0 -0.21701553223E+03  0.24996092234E+02 -0.64770516846E+03  0.69488827171E+03  0.12500871588E+03 0.  0.
         25    2    1    2    0    0  0.21701553223E+03 -0.24996092234E+02 -0.23863376884E+03  0.34682436753E+03  0.12498208041E+03 0.  0.
          5    1    3    3  502    0 -0.15915677142E+03  0.42654072115E+02 -0.30349874342E+03  0.34537490501E+03  0.47000000000E+01 0. -1.
         -5    1    3    3    0  502 -0.57858760814E+02 -0.17657979882E+02 -0.34420642504E+03  0.34951336669E+03  0.47000000000E+01 0. -1.
          5    1    4    4  503    0  0.18909438034E+03 -0.40521155801E+02 -0.24674092061E+03  0.31353121160E+03  0.47000000000E+01 0.  1.
         -5    1    4    4    0  503  0.27921151895E+02  0.15525063567E+02  0.81071517709E+01  0.33293155929E+02  0.47000000000E+01 0.  1.
<mgrwt>
<rscale>  0 0.25168643E+03</rscale>
<asrwt>0</asrwt>
<pdfrwt beam="1">  1        5 0.11951824E-01 0.25168974E+03</pdfrwt>
<pdfrwt beam="2">  1       -5 0.14831165E+00 0.25168974E+03</pdfrwt>
<totfact> 0.14172615E+01</totfact>
</mgrwt>
</event>
<event>
 8    1  0.1865596E-007  0.1308510E+03  0.7546771E-02  0.1226200E+00
          5   -1    0    0  501    0  0.00000000000E+00  0.00000000000E+00  0.10834933888E+03  0.10845122976E+03  0.47000000000E+01 0.  1.
         -5   -1    0    0    0  501 -0.00000000000E+00 -0.00000000000E+00 -0.16302275186E+03  0.16309048907E+03  0.47000000000E+01 0.  1.
         25    2    1    2    0    0  0.38156798922E+02  0.64656165294E+01 -0.51600754740E+02  0.14065464087E+03  0.12499337826E+03 0.  0.
         25    2    1    2    0    0 -0.38156798922E+02 -0.64656165294E+01 -0.30726582436E+01  0.13088707795E+03  0.12499696175E+03 0.  0.
          5    1    3    3  502    0  0.62193944315E+02  0.38832897923E+02  0.19029743131E+01  0.73496884164E+02  0.47000000000E+01 0.  1.
         -5    1    3    3    0  502 -0.24037145393E+02 -0.32367281394E+02 -0.53503729053E+02  0.67157756708E+02  0.47000000000E+01 0.  1.
          5    1    4    4  503    0  0.20503932053E+01 -0.32229656011E+02 -0.52616403695E+02  0.61915513215E+02  0.47000000000E+01 0.  1.
         -5    1    4    4    0  503 -0.40207192127E+02  0.25764039481E+02  0.49543745452E+02  0.68971564739E+02  0.47000000000E+01 0.  1.
<mgrwt>
<rscale>  0 0.13085015E+03</rscale>
<asrwt>0</asrwt>
<pdfrwt beam="1">  1        5 0.16682177E-01 0.13085101E+03</pdfrwt>
<pdfrwt beam="2">  1       -5 0.25093472E-01 0.13085101E+03</pdfrwt>
<totfact> 0.34912095E+02</totfact>
</mgrwt>
</event>
<event>
 8    1  0.1865596E-007  0.1934456E+03  0.7546771E-02  0.1155391E+00
         -5   -1    0    0    0  501 -0.00000000000E+00  0.00000000000E+00  0.32567954725E+03  0.32571345919E+03  0.47000000000E+01 0.  1.
          5   -1    0    0  501    0  0.00000000000E+00 -0.00000000000E+00 -0.11617554506E+03  0.11627057784E+03  0.47000000000E+01 0.  1.
         25    2    1    2    0    0  0.40704596968E+02 -0.14191397294E+03  0.12868567507E+03  0.23233853495E+03  0.12499900770E+03 0.  0.
         25    2    1    2    0    0 -0.40704596968E+02  0.14191397294E+03  0.80818327121E+02  0.20964550207E+03  0.12499277823E+03 0.  0.
          5    1    3    3  502    0  0.93811415151E+01  0.23123933471E+02  0.17297064672E+02  0.30724592130E+02  0.47000000000E+01 0.  1.
         -5    1    3    3    0  502  0.31323455453E+02 -0.16503790641E+03  0.11138861040E+03  0.20161394282E+03  0.47000000000E+01 0.  1.
          5    1    4    4  503    0  0.31439010810E+02  0.45181349874E+02 -0.12962630323E+02  0.56744035476E+02  0.47000000000E+01 0. -1.
         -5    1    4    4    0  503 -0.72143607778E+02  0.96732623068E+02  0.93780957444E+02  0.15290146660E+03  0.47000000000E+01 0. -1.
<mgrwt>
<rscale>  0 0.19344457E+03</rscale>
<asrwt>0</asrwt>
<pdfrwt beam="2">  1        5 0.17883080E-01 0.19344558E+03</pdfrwt>
<pdfrwt beam="1">  1       -5 0.50114464E-01 0.19344558E+03</pdfrwt>
<totfact> 0.86114488E+01</totfact>
</mgrwt>
</event>
<event>
 8    1  0.1865596E-007  0.1262914E+03  0.7546771E-02  0.1233065E+00
         -5   -1    0    0    0  501 -0.00000000000E+00  0.00000000000E+00  0.24070324031E+03  0.24074912232E+03  0.47000000000E+01 0. -1.
          5   -1    0    0  501    0  0.00000000000E+00 -0.00000000000E+00 -0.71386057978E+02  0.71540612757E+02  0.47000000000E+01 0. -1.
         25    2    1    2    0    0 -0.28853507443E+01 -0.17734650283E+02  0.12698270352E+03  0.17909249666E+03  0.12500668900E+03 0.  0.
         25    2    1    2    0    0  0.28853507443E+01  0.17734650283E+02  0.42334478812E+02  0.13319723842E+03  0.12500581249E+03 0.  0.
          5    1    4    4  502    0  0.12818119133E+02 -0.12868357619E+02  0.80731009422E+02  0.82882354505E+02  0.47000000000E+01 0.  1.
         -5    1    4    4    0  502 -0.99327683883E+01  0.30603007902E+02 -0.38396530610E+02  0.50314883915E+02  0.47000000000E+01 0.  1.
          5    1    3    3  503    0  0.36093131449E+02 -0.20036511472E+02  0.13297097383E+03  0.13931096803E+03  0.47000000000E+01 0. -1.
         -5    1    3    3    0  503 -0.38978482193E+02  0.23018611889E+01 -0.59882703097E+01  0.39781528632E+02  0.47000000000E+01 0. -1.
<mgrwt>
<rscale>  0 0.12629117E+03</rscale>
<asrwt>0</asrwt>
<pdfrwt beam="2">  1        5 0.10997889E-01 0.12629139E+03</pdfrwt>
<pdfrwt beam="1">  1       -5 0.37046686E-01 0.12629139E+03</pdfrwt>
<totfact> 0.33800699E+02</totfact>
</mgrwt>
</event>
<event>
 8    1  0.1865596E-007  0.1870454E+03  0.7546771E-02  0.1161155E+00
         -5   -1    0    0    0  501 -0.00000000000E+00  0.00000000000E+00  0.17781992249E+02  0.18392641146E+02  0.47000000000E+01 0. -1.
          5   -1    0    0  501    0  0.00000000000E+00 -0.00000000000E+00 -0.19791459584E+04  0.19791515390E+04  0.47000000000E+01 0. -1.
         25    2    1    2    0    0  0.13730705721E+03 -0.22480634571E+02 -0.82920155992E+03  0.85003600564E+03  0.12500950772E+03 0.  0.
         25    2    1    2    0    0 -0.13730705721E+03  0.22480634571E+02 -0.11321624062E+04  0.11475081745E+04  0.12499875908E+03 0.  0.
          5    1    3    3  502    0  0.62416964307E+02 -0.26203261114E+02 -0.12848254379E+03  0.14530086850E+03  0.47000000000E+01 0. -1.
         -5    1    3    3    0  502  0.74890092906E+02  0.37226265424E+01 -0.70071901613E+03  0.70473513715E+03  0.47000000000E+01 0. -1.
          5    1    4    4  503    0 -0.86635233708E+02 -0.18128277495E+02 -0.30045587162E+03  0.31325727279E+03  0.47000000000E+01 0.  1.
         -5    1    4    4    0  503 -0.50671823505E+02  0.40608912066E+02 -0.83170653457E+03  0.83425090176E+03  0.47000000000E+01 0.  1.
<mgrwt>
<rscale>  0 0.18704361E+03</rscale>
<asrwt>0</asrwt>
<pdfrwt beam="2">  1        5 0.30453123E+00 0.18704541E+03</pdfrwt>
<pdfrwt beam="1">  1       -5 0.27830950E-02 0.18704541E+03</pdfrwt>
<totfact> 0.13703303E+01</totfact>
</mgrwt>
</event>
<event>
 8    1  0.1865596E-007  0.1271399E+03  0.7546771E-02  0.1231766E+00
         -5   -1    0    0    0  501 -0.00000000000E+00  0.00000000000E+00  0.60075558407E+03  0.60077396897E+03  0.47000000000E+01 0. -1.
          5   -1    0    0  501    0  0.00000000000E+00 -0.00000000000E+00 -0.27187035131E+02  0.27590304080E+02  0.47000000000E+01 0. -1.
         25    2    1    2    0    0 -0.17643430258E+02  0.15050414121E+02  0.32931243785E+03  0.35299980048E+03  0.12499748725E+03 0.  0.
         25    2    1    2    0    0  0.17643430258E+02 -0.15050414121E+02  0.24425611109E+03  0.27536447257E+03  0.12500695722E+03 0.  0.
          5    1    4    4  502    0  0.51812678439E+02 -0.38894652735E+02  0.21404359681E+03  0.22368303243E+03  0.47000000000E+01 0. -1.
         -5    1    4    4    0  502 -0.34169248182E+02  0.23844238614E+02  0.30212514274E+02  0.51681440142E+02  0.47000000000E+01 0. -1.
          5    1    3    3  503    0 -0.10434212889E+02 -0.91941290328E+01  0.32682351802E+03  0.32715303260E+03  0.47000000000E+01 0.  1.
         -5    1    3    3    0  503 -0.72092173686E+01  0.24244543154E+02  0.24889198252E+01  0.25846767877E+02  0.47000000000E+01 0.  1.
<mgrwt>
<rscale>  0 0.12713754E+03</rscale>
<asrwt>0</asrwt>
<pdfrwt beam="2">  1        5 0.42150559E-02 0.12713986E+03</pdfrwt>
<pdfrwt beam="1">  1       -5 0.92456366E-01 0.12713986E+03</pdfrwt>
<totfact> 0.23373523E+02</totfact>
</mgrwt>
</event>
<event>
 8    1  0.1865596E-007  0.1380333E+03  0.7546771E-02  0.1216003E+00
         -5   -1    0    0    0  501 -0.00000000000E+00  0.00000000000E+00  0.85641459289E+01  0.97690631840E+01  0.47000000000E+01 0. -1.
          5   -1    0    0  501    0  0.00000000000E+00 -0.00000000000E+00 -0.28270079749E+04  0.28270118818E+04  0.47000000000E+01 0. -1.
         25    2    1    2    0    0 -0.20799771270E+02  0.54721087604E+02 -0.67893502117E+03  0.69282462937E+03  0.12500470458E+03 0.  0.
         25    2    1    2    0    0  0.20799771270E+02 -0.54721087604E+02 -0.21395088078E+04  0.21439563156E+04  0.12499486772E+03 0.  0.
          5    1    3    3  502    0  0.11350742130E+02  0.82054103533E+02 -0.29173966307E+03  0.30330815397E+03  0.47000000000E+01 0. -1.
         -5    1    3    3    0  502 -0.32150513400E+02 -0.27333015929E+02 -0.38719535810E+03  0.38951647540E+03  0.47000000000E+01 0. -1.
          5    1    4    4  503    0 -0.21560072228E+02 -0.51377726489E+02 -0.18888887323E+04  0.18897161799E+04  0.47000000000E+01 0. -1.
         -5    1    4    4    0  503  0.42359843498E+02 -0.33433611150E+01 -0.25062007542E+03  0.25424013572E+03  0.47000000000E+01 0. -1.
<mgrwt>
<rscale>  0 0.13803112E+03</rscale>
<asrwt>0</asrwt>
<pdfrwt beam="2">  1        5 0.43501660E+00 0.13803334E+03</pdfrwt>
<pdfrwt beam="1">  1       -5 0.14105496E-02 0.13803334E+03</pdfrwt>
<totfact> 0.49339183E+00</totfact>
</mgrwt>
</event>
<event>
 8    1  0.1865596E-007  0.1282271E+03  0.7546771E-02  0.1230118E+00
          5   -1    0    0  501    0  0.00000000000E+00  0.00000000000E+00  0.12653538744E+03  0.12662264518E+03  0.47000000000E+01 0. -1.
         -5   -1    0    0    0  501 -0.00000000000E+00 -0.00000000000E+00 -0.13618208605E+03  0.13626316656E+03  0.47000000000E+01 0. -1.
         25    2    1    2    0    0  0.59029356121E+01  0.27906020513E+02 -0.33382241522E+02  0.13250122655E+03  0.12501444060E+03 0.  0.
         25    2    1    2    0    0 -0.59029356121E+01 -0.27906020513E+02  0.23735542904E+02  0.13038458520E+03  0.12499269351E+03 0.  0.
          5    1    4    4  502    0 -0.65071591034E+02 -0.90390794402E+01  0.14195561340E+02  0.67376708724E+02  0.47000000000E+01 0. -1.
         -5    1    4    4    0  502  0.59168655422E+02 -0.18866941073E+02  0.95399815640E+01  0.63007876477E+02  0.47000000000E+01 0. -1.
          5    1    3    3  503    0 -0.33440688878E+02  0.48644096946E+02 -0.56769595961E+02  0.82032949880E+02  0.47000000000E+01 0. -1.
         -5    1    3    3    0  503  0.39343624490E+02 -0.20738076433E+02  0.23387354440E+02  0.50468276668E+02  0.47000000000E+01 0. -1.
<mgrwt>
<rscale>  0 0.12822185E+03</rscale>
<asrwt>0</asrwt>
<pdfrwt beam="1">  1        5 0.19479932E-01 0.12822715E+03</pdfrwt>
<pdfrwt beam="2">  1       -5 0.20964039E-01 0.12822715E+03</pdfrwt>
<totfact> 0.36606723E+02</totfact>
</mgrwt>
</event>
<event>
 8    1  0.1865596E-007  0.1337746E+03  0.7546771E-02  0.1221973E+00
         -5   -1    0    0    0  501 -0.00000000000E+00  0.00000000000E+00  0.36564667492E+02  0.36865497539E+02  0.47000000000E+01 0.  1.
          5   -1    0    0  501    0  0.00000000000E+00 -0.00000000000E+00 -0.49149220558E+03  0.49151467745E+03  0.47000000000E+01 0.  1.
         25    2    1    2    0    0 -0.34394484404E+02 -0.32833869443E+02 -0.25276144735E+03  0.28596156993E+03  0.12499850668E+03 0.  0.
         25    2    1    2    0    0  0.34394484404E+02  0.32833869443E+02 -0.20216609074E+03  0.24241860506E+03  0.12503842726E+03 0.  0.
          5    1    4    4  502    0  0.61285159835E+02  0.37391332346E+02 -0.20233151047E+03  0.21474196767E+03  0.47000000000E+01 0. -1.
         -5    1    4    4    0  502 -0.26890675432E+02 -0.45574629032E+01  0.16541972950E+00  0.27676637385E+02  0.47000000000E+01 0. -1.
          5    1    3    3  503    0  0.18671175210E+02 -0.51474431758E+02 -0.20432444494E+03  0.21158638592E+03  0.47000000000E+01 0.  1.
         -5    1    3    3    0  503 -0.53065659614E+02  0.18640562315E+02 -0.48437002411E+02  0.74375184008E+02  0.47000000000E+01 0.  1.
<mgrwt>
<rscale>  0 0.13376530E+03</rscale>
<asrwt>0</asrwt>
<pdfrwt beam="2">  1        5 0.75639050E-01 0.13377463E+03</pdfrwt>
<pdfrwt beam="1">  1       -5 0.56502032E-02 0.13377463E+03</pdfrwt>
<totfact> 0.23386979E+02</totfact>
</mgrwt>
</event>
<event>
 8    1  0.1865596E-007  0.1290672E+03  0.7546771E-02  0.1228849E+00
          5   -1    0    0  501    0  0.00000000000E+00  0.00000000000E+00  0.32088711138E+02  0.32431086669E+02  0.47000000000E+01 0.  1.
         -5   -1    0    0    0  501 -0.00000000000E+00 -0.00000000000E+00 -0.65759253920E+03  0.65760933510E+03  0.47000000000E+01 0.  1.
         25    2    1    2    0    0 -0.26470005096E+02  0.18240728608E+02 -0.47281048371E+03  0.49011029665E+03  0.12499985609E+03 0.  0.
         25    2    1    2    0    0  0.26470005096E+02 -0.18240728608E+02 -0.15269334435E+03  0.19993012512E+03  0.12499364853E+03 0.  0.
          5    1    3    3  502    0 -0.39723530965E+02  0.67153756883E+02 -0.28910107264E+03  0.29948139538E+03  0.47000000000E+01 0. -1.
         -5    1    3    3    0  502  0.13253525870E+02 -0.48913028275E+02 -0.18370941107E+03  0.19062890126E+03  0.47000000000E+01 0. -1.
          5    1    4    4  503    0  0.73491655915E+02 -0.30820905098E+02 -0.10151232307E+03  0.12914253139E+03  0.47000000000E+01 0.  1.
         -5    1    4    4    0  503 -0.47021650819E+02  0.12580176490E+02 -0.51181021285E+02  0.70787593730E+02  0.47000000000E+01 0.  1.
<mgrwt>
<rscale>  0 0.12906573E+03</rscale>
<asrwt>0</asrwt>
<pdfrwt beam="1">  1        5 0.49643539E-02 0.12906723E+03</pdfrwt>
<pdfrwt beam="2">  1       -5 0.10119570E+00 0.12906723E+03</pdfrwt>
<totfact> 0.14430051E+02</totfact>
</mgrwt>
</event>
<event>
 8    1  0.1865596E-007  0.1254219E+03  0.7546771E-02  0.1234412E+00
         -5   -1    0    0    0  501 -0.00000000000E+00  0.00000000000E+00  0.68053565406E+03  0.68055188373E+03  0.47000000000E+01 0.  1.
          5   -1    0    0  501    0  0.00000000000E+00 -0.00000000000E+00 -0.23464347983E+02  0.23930433056E+02  0.47000000000E+01 0.  1.
         25    2    1    2    0    0  0.18998904946E+01 -0.10101832150E+02  0.38451952583E+03  0.40445709876E+03  0.12499848957E+03 0.  0.
         25    2    1    2    0    0 -0.18998904946E+01  0.10101832150E+02  0.27255178024E+03  0.30002521802E+03  0.12500000776E+03 0.  0.
          5    1    3    3  502    0 -0.42606257158E+02 -0.11096530350E+02  0.33414831562E+03  0.33706915160E+03  0.47000000000E+01 0. -1.
         -5    1    3    3    0  502  0.44506147653E+02  0.99469819959E+00  0.50371210219E+02  0.67387947159E+02  0.47000000000E+01 0. -1.
          5    1    4    4  503    0 -0.47711549698E+01  0.47988022581E+02  0.35917404585E+02  0.60313880517E+02  0.47000000000E+01 0. -1.
         -5    1    4    4    0  503  0.28712644752E+01 -0.37886190431E+02  0.23663437566E+03  0.23971133751E+03  0.47000000000E+01 0. -1.
<mgrwt>
<rscale>  0 0.12542154E+03</rscale>
<asrwt>0</asrwt>
<pdfrwt beam="2">  1        5 0.36470007E-02 0.12542192E+03</pdfrwt>
<pdfrwt beam="1">  1       -5 0.10473490E+00 0.12542192E+03</pdfrwt>
<totfact> 0.21796499E+02</totfact>
</mgrwt>
</event>
<event>
 8    1  0.1865596E-007  0.1304570E+03  0.7546771E-02  0.1226783E+00
         -5   -1    0    0    0  501 -0.00000000000E+00  0.00000000000E+00  0.52108586971E+02  0.52320118846E+02  0.47000000000E+01 0. -1.
          5   -1    0    0  501    0  0.00000000000E+00 -0.00000000000E+00 -0.33191754711E+03  0.33195082178E+03  0.47000000000E+01 0. -1.
         25    2    1    2    0    0 -0.27588441298E+02  0.25103285150E+02 -0.11360799743E+03  0.17299080190E+03  0.12501097329E+03 0.  0.
         25    2    1    2    0    0  0.27588441298E+02 -0.25103285150E+02 -0.16620096271E+03  0.21128013873E+03  0.12500095998E+03 0.  0.
          5    1    4    4  502    0  0.90491142569E+01 -0.23100638219E+02 -0.18361118779E+03  0.18533937584E+03  0.47000000000E+01 0.  1.
         -5    1    4    4    0  502  0.18539327041E+02 -0.20026469314E+01  0.17410225081E+02  0.25940762889E+02  0.47000000000E+01 0.  1.
          5    1    3    3  503    0 -0.58124848015E+02  0.39623073904E+02 -0.11911090067E+03  0.13841236433E+03  0.47000000000E+01 0.  1.
         -5    1    3    3    0  503  0.30536406717E+02 -0.14519788754E+02  0.55029032329E+01  0.34578437568E+02  0.47000000000E+01 0.  1.
<mgrwt>
<rscale>  0 0.13045465E+03</rscale>
<asrwt>0</asrwt>
<pdfrwt beam="2">  1        5 0.51083068E-01 0.13045704E+03</pdfrwt>
<pdfrwt beam="1">  1       -5 0.80355371E-02 0.13045704E+03</pdfrwt>
<totfact> 0.30314118E+02</totfact>
</mgrwt>
</event>
<event>
 8    1  0.1865596E-007  0.1356044E+03  0.7546771E-02  0.1219370E+00
          5   -1    0    0  501    0  0.00000000000E+00  0.00000000000E+00  0.53393238309E+02  0.53599700532E+02  0.47000000000E+01 0. -1.
         -5   -1    0    0    0  501 -0.00000000000E+00 -0.00000000000E+00 -0.34417638220E+03  0.34420847181E+03  0.47000000000E+01 0. -1.
         25    2    1    2    0    0  0.11612232287E+02  0.51262160218E+02 -0.15418113287E+03  0.20532785654E+03  0.12500021571E+03 0.  0.
         25    2    1    2    0    0 -0.11612232287E+02 -0.51262160218E+02 -0.13660201102E+03  0.19248031580E+03  0.12500363814E+03 0.  0.
          5    1    3    3  502    0  0.82967321844E+00  0.91714559246E+02 -0.90223724924E+02  0.12874260862E+03  0.47000000000E+01 0. -1.
         -5    1    3    3    0  502  0.10782559068E+02 -0.40452399028E+02 -0.63957407946E+02  0.76585247916E+02  0.47000000000E+01 0. -1.
          5    1    4    4  503    0 -0.58099088451E+02 -0.16811887134E+02 -0.22950021871E+02  0.64860906035E+02  0.47000000000E+01 0. -1.
         -5    1    4    4    0  503  0.46486856164E+02 -0.34450273084E+02 -0.11365198915E+03  0.12761940977E+03  0.47000000000E+01 0. -1.
<mgrwt>
<rscale>  0 0.13560365E+03</rscale>
<asrwt>0</asrwt>
<pdfrwt beam="1">  1        5 0.82326947E-02 0.13560443E+03</pdfrwt>
<pdfrwt beam="2">  1       -5 0.52968562E-01 0.13560443E+03</pdfrwt>
<totfact> 0.27283866E+02</totfact>
</mgrwt>
</event>
<event>
 8    1  0.1865596E-007  0.1301657E+03  0.7546771E-02  0.1227210E+00
         -5   -1    0    0    0  501 -0.00000000000E+00  0.00000000000E+00  0.10812602260E+04  0.10812704409E+04  0.47000000000E+01 0.  1.
          5   -1    0    0  501    0  0.00000000000E+00 -0.00000000000E+00 -0.27659272268E+02  0.28055754177E+02  0.47000000000E+01 0.  1.
         25    2    1    2    0    0  0.34849331172E+02  0.10218142400E+02  0.89376457533E+03  0.90319335304E+03  0.12499692217E+03 0.  0.
         25    2    1    2    0    0 -0.34849331172E+02 -0.10218142400E+02  0.15983637840E+03  0.20613284202E+03  0.12499677748E+03 0.  0.
          5    1    4    4  502    0  0.14066924786E+01  0.16589723013E+02 -0.16593513710E+02  0.23971491205E+02  0.47000000000E+01 0. -1.
         -5    1    4    4    0  502 -0.36256023651E+02 -0.26807865413E+02  0.17642989211E+03  0.18216135081E+03  0.47000000000E+01 0. -1.
          5    1    3    3  503    0 -0.30444622713E+02 -0.36517998288E+02  0.41193941683E+03  0.41470062984E+03  0.47000000000E+01 0.  1.
         -5    1    3    3    0  503  0.65293953885E+02  0.46736140688E+02  0.48182515850E+03  0.48849272320E+03  0.47000000000E+01 0.  1.
<mgrwt>
<rscale>  0 0.13016569E+03</rscale>
<asrwt>0</asrwt>
<pdfrwt beam="2">  1        5 0.42865572E-02 0.13016573E+03</pdfrwt>
<pdfrwt beam="1">  1       -5 0.16637900E+00 0.13016573E+03</pdfrwt>
<totfact> 0.50338709E+01</totfact>
</mgrwt>
</event>
<event>
 8    1  0.1865596E-007  0.1412583E+03  0.7546771E-02  0.1211648E+00
         -5   -1    0    0    0  501 -0.00000000000E+00  0.00000000000E+00  0.90650921893E+02  0.90772681133E+02  0.47000000000E+01 0. -1.
          5   -1    0    0  501    0  0.00000000000E+00 -0.00000000000E+00 -0.22114485090E+03  0.22119478991E+03  0.47000000000E+01 0. -1.
         25    2    1    2    0    0 -0.53201944769E+02  0.38727696860E+02 -0.53148818874E+02  0.15092037911E+03  0.12498752918E+03 0.  0.
         25    2    1    2    0    0  0.53201944769E+02 -0.38727696860E+02 -0.77345110137E+02  0.16104709193E+03  0.12499447318E+03 0.  0.
          5    1    3    3  502    0  0.37340066547E+02 -0.86286643203E+01 -0.19392191453E+02  0.43207424212E+02  0.47000000000E+01 0.  1.
         -5    1    3    3    0  502 -0.90542011317E+02  0.47356361180E+02 -0.33756627421E+02  0.10771295490E+03  0.47000000000E+01 0.  1.
          5    1    4    4  503    0 -0.35567724164E+02  0.28571967949E+01  0.16365666555E+00  0.35990878834E+02  0.47000000000E+01 0.  1.
         -5    1    4    4    0  503  0.88769668934E+02 -0.41584893655E+02 -0.77508766803E+02  0.12505621310E+03  0.47000000000E+01 0.  1.
<mgrwt>
<rscale>  0 0.14125674E+03</rscale>
<asrwt>0</asrwt>
<pdfrwt beam="2">  1        5 0.34035492E-01 0.14125827E+03</pdfrwt>
<pdfrwt beam="1">  1       -5 0.13959503E-01 0.14125827E+03</pdfrwt>
<totfact> 0.27287610E+02</totfact>
</mgrwt>
</event>
<event>
 8    1  0.1865596E-007  0.1535328E+03  0.7546771E-02  0.1196200E+00
          5   -1    0    0  501    0  0.00000000000E+00  0.00000000000E+00  0.23109697595E+02  0.23582792942E+02  0.47000000000E+01 0. -1.
         -5   -1    0    0    0  501 -0.00000000000E+00 -0.00000000000E+00 -0.10099205262E+04  0.10099314627E+04  0.47000000000E+01 0. -1.
         25    2    1    2    0    0 -0.68732897341E+02  0.56775788835E+02 -0.47921737002E+03  0.50320920043E+03  0.12499004081E+03 0.  0.
         25    2    1    2    0    0  0.68732897341E+02 -0.56775788835E+02 -0.50759345861E+03  0.53030505517E+03  0.12499852377E+03 0.  0.
          5    1    3    3  502    0 -0.79422827865E+00  0.65819163852E+02 -0.11517111499E+03  0.13273759398E+03  0.47000000000E+01 0. -1.
         -5    1    3    3    0  502 -0.67938669062E+02 -0.90433750177E+01 -0.36404625503E+03  0.37047160645E+03  0.47000000000E+01 0. -1.
          5    1    4    4  503    0  0.66254192704E+02 -0.48970756003E+02 -0.51288499406E+03  0.51948133762E+03  0.47000000000E+01 0.  1.
         -5    1    4    4    0  503  0.24787046370E+01 -0.78050328314E+01  0.52915354593E+01  0.10823717554E+02  0.47000000000E+01 0.  1.
<mgrwt>
<rscale>  0 0.15353111E+03</rscale>
<asrwt>0</asrwt>
<pdfrwt beam="1">  1        5 0.35925721E-02 0.15353284E+03</pdfrwt>
<pdfrwt beam="2">  1       -5 0.15540959E+00 0.15353284E+03</pdfrwt>
<totfact> 0.85530789E+01</totfact>
</mgrwt>
</event>
<event>
 8    1  0.1865596E-007  0.1366704E+03  0.7546771E-02  0.1217881E+00
          5   -1    0    0  501    0  0.00000000000E+00  0.00000000000E+00  0.20085884534E+03  0.20091382668E+03  0.47000000000E+01 0.  1.
         -5   -1    0    0    0  501 -0.00000000000E+00 -0.00000000000E+00 -0.14432442719E+03  0.14440093588E+03  0.47000000000E+01 0.  1.
         25    2    1    2    0    0  0.55072787659E+02  0.44083540613E+01 -0.74774426428E+02  0.15578691997E+03  0.12500361619E+03 0.  0.
         25    2    1    2    0    0 -0.55072787659E+02 -0.44083540613E+01  0.13130884457E+03  0.18952784259E+03  0.12500537960E+03 0.  0.
          5    1    3    3  502    0 -0.38243495691E+02  0.14797133665E+02 -0.12907429754E+02  0.43245946286E+02  0.47000000000E+01 0.  1.
         -5    1    3    3    0  502  0.93316283350E+02 -0.10388779604E+02 -0.61866996675E+02  0.11254097368E+03  0.47000000000E+01 0.  1.
          5    1    4    4  503    0 -0.96350331322E+01  0.77699397572E+01  0.14070575625E+03  0.14132729980E+03  0.47000000000E+01 0. -1.
         -5    1    4    4    0  503 -0.45437754527E+02 -0.12178293818E+02 -0.93969116716E+01  0.48200542795E+02  0.47000000000E+01 0. -1.
<mgrwt>
<rscale>  0 0.13666997E+03</rscale>
<asrwt>0</asrwt>
<pdfrwt beam="1">  1        5 0.30911475E-01 0.13667037E+03</pdfrwt>
<pdfrwt beam="2">  1       -5 0.22213873E-01 0.13667037E+03</pdfrwt>
<totfact> 0.13885817E+02</totfact>
</mgrwt>
</event>
<event>
 8    1  0.1865596E-007  0.1572733E+03  0.7546771E-02  0.1191810E+00
          5   -1    0    0  501    0  0.00000000000E+00  0.00000000000E+00  0.13007658963E+03  0.13016147345E+03  0.47000000000E+01 0. -1.
         -5   -1    0    0    0  501 -0.00000000000E+00 -0.00000000000E+00 -0.36797655448E+03  0.36800656875E+03  0.47000000000E+01 0. -1.
         25    2    1    2    0    0 -0.19373949182E+02  0.93455512082E+02 -0.29215748183E+03  0.33179865796E+03  0.12500029036E+03 0.  0.
         25    2    1    2    0    0  0.19373949182E+02 -0.93455512082E+02  0.54257516986E+02  0.16636938424E+03  0.12500244484E+03 0.  0.
          5    1    4    4  502    0 -0.69757357769E+01 -0.43813738032E+02 -0.37756970166E+02  0.58446414143E+02  0.47000000000E+01 0.  1.
         -5    1    4    4    0  502  0.26349684959E+02 -0.49641774049E+02  0.92014487152E+02  0.10792297009E+03  0.47000000000E+01 0.  1.
          5    1    3    3  503    0 -0.62019166417E+02  0.94786127478E+02 -0.19459772472E+03  0.22521356849E+03  0.47000000000E+01 0. -1.
         -5    1    3    3    0  503  0.42645217234E+02 -0.13306153966E+01 -0.97559757111E+02  0.10658508947E+03  0.47000000000E+01 0. -1.
<mgrwt>
<rscale>  0 0.15727288E+03</rscale>
<asrwt>0</asrwt>
<pdfrwt beam="1">  1        5 0.20020622E-01 0.15727331E+03</pdfrwt>
<pdfrwt beam="2">  1       -5 0.56620615E-01 0.15727331E+03</pdfrwt>
<totfact> 0.50578294E+01</totfact>
</mgrwt>
</event>
<event>
 8    1  0.1865596E-007  0.1346702E+03  0.7546771E-02  0.1220688E+00
         -5   -1    0    0    0  501 -0.00000000000E+00  0.00000000000E+00  0.13445340960E+04  0.13445423107E+04  0.47000000000E+01 0.  1.
          5   -1    0    0  501    0  0.00000000000E+00 -0.00000000000E+00 -0.13211174047E+02  0.14022307930E+02  0.47000000000E+01 0.  1.
         25    2    1    2    0    0  0.17057704919E+02  0.47118040412E+02  0.73377091138E+03  0.74602668609E+03  0.12499996377E+03 0.  0.
         25    2    1    2    0    0 -0.17057704919E+02 -0.47118040412E+02  0.59755201058E+03  0.61253793257E+03  0.12499295361E+03 0.  0.
          5    1    3    3  502    0  0.63516240206E+01  0.81310972310E+02  0.64544309560E+03  0.65059257374E+03  0.47000000000E+01 0. -1.
         -5    1    3    3    0  502  0.10706080898E+02 -0.34192931898E+02  0.88327815779E+02  0.95434112351E+02  0.47000000000E+01 0. -1.
          5    1    4    4  503    0  0.87655758206E+01  0.21431482918E+02  0.21870151592E+02  0.32195299505E+02  0.47000000000E+01 0.  1.
         -5    1    4    4    0  503 -0.25823280740E+02 -0.68549523331E+02  0.57568185899E+03  0.58034263306E+03  0.47000000000E+01 0.  1.
<mgrwt>
<rscale>  0 0.13466859E+03</rscale>
<asrwt>0</asrwt>
<pdfrwt beam="2">  1        5 0.20955152E-02 0.13467021E+03</pdfrwt>
<pdfrwt beam="1">  1       -5 0.20691442E+00 0.13467021E+03</pdfrwt>
<totfact> 0.84133645E+01</totfact>
</mgrwt>
</event>
<event>
 8    1  0.1865596E-007  0.1415482E+03  0.7546771E-02  0.1211276E+00
         -5   -1    0    0    0  501 -0.00000000000E+00  0.00000000000E+00  0.23513320060E+02  0.23978453250E+02  0.47000000000E+01 0.  1.
          5   -1    0    0  501    0  0.00000000000E+00 -0.00000000000E+00 -0.86509550294E+03  0.86510827022E+03  0.47000000000E+01 0.  1.
         25    2    1    2    0    0  0.65808676588E+02 -0.81835442965E+01 -0.49185475555E+03  0.51181734030E+03  0.12505253679E+03 0.  0.
         25    2    1    2    0    0 -0.65808676588E+02  0.81835442965E+01 -0.34972742733E+03  0.37726938317E+03  0.12500064697E+03 0.  0.
          5    1    4    4  502    0 -0.73560219124E+02  0.26416457138E+02 -0.34814970139E+03  0.35684624087E+03  0.47000000000E+01 0. -1.
         -5    1    4    4    0  502  0.77515425354E+01 -0.18232912841E+02 -0.15777259360E+01  0.20423142302E+02  0.47000000000E+01 0. -1.
          5    1    3    3  503    0  0.49832160356E+02  0.54074704841E+02 -0.20582187236E+03  0.21861393152E+03  0.47000000000E+01 0.  1.
         -5    1    3    3    0  503  0.15976516232E+02 -0.62258249137E+02 -0.28603288319E+03  0.29320340878E+03  0.47000000000E+01 0.  1.
<mgrwt>
<rscale>  0 0.14153673E+03</rscale>
<asrwt>0</asrwt>
<pdfrwt beam="2">  1        5 0.13312835E+00 0.14154819E+03</pdfrwt>
<pdfrwt beam="1">  1       -5 0.36541961E-02 0.14154819E+03</pdfrwt>
<totfact> 0.12316351E+02</totfact>
</mgrwt>
</event>
<event>
 8    1  0.1865596E-007  0.1333714E+03  0.7546771E-02  0.1222549E+00
         -5   -1    0    0    0  501 -0.00000000000E+00  0.00000000000E+00  0.23317549357E+03  0.23322285652E+03  0.47000000000E+01 0.  1.
          5   -1    0    0  501    0  0.00000000000E+00 -0.00000000000E+00 -0.79861604953E+02  0.79999787160E+02  0.47000000000E+01 0.  1.
         25    2    1    2    0    0  0.29899483511E+02  0.35469545753E+02  0.11043511330E+03  0.17315840554E+03  0.12504339795E+03 0.  0.
         25    2    1    2    0    0 -0.29899483511E+02 -0.35469545753E+02  0.42878775325E+02  0.14006423813E+03  0.12500933421E+03 0.  0.
          5    1    4    4  502    0 -0.22332405573E+02  0.19345417839E+02 -0.33959510235E+02  0.45258367906E+02  0.47000000000E+01 0.  1.
         -5    1    4    4    0  502 -0.75670779374E+01 -0.54814963592E+02  0.76838285560E+02  0.94805870229E+02  0.47000000000E+01 0.  1.
          5    1    3    3  503    0  0.54974560775E+02  0.49467732186E+02  0.18010384639E+02  0.76260886533E+02  0.47000000000E+01 0. -1.
         -5    1    3    3    0  503 -0.25075077264E+02 -0.13998186432E+02  0.92424728657E+02  0.96897519012E+02  0.47000000000E+01 0. -1.
<mgrwt>
<rscale>  0 0.13336337E+03</rscale>
<asrwt>0</asrwt>
<pdfrwt beam="2">  1        5 0.12300674E-01 0.13337136E+03</pdfrwt>
<pdfrwt beam="1">  1       -5 0.35887425E-01 0.13337136E+03</pdfrwt>
<totfact> 0.30164519E+02</totfact>
</mgrwt>
</event>
<event>
 8    1  0.1865596E-007  0.1439831E+03  0.7546771E-02  0.1208080E+00
         -5   -1    0    0    0  501 -0.00000000000E+00  0.00000000000E+00  0.11891153429E+03  0.11900438221E+03  0.47000000000E+01 0.  1.
          5   -1    0    0  501    0  0.00000000000E+00 -0.00000000000E+00 -0.17890524211E+03  0.17896696805E+03  0.47000000000E+01 0.  1.
         25    2    1    2    0    0  0.36445473793E+02  0.61454506226E+02 -0.55981146052E+01  0.14409189064E+03  0.12500482057E+03 0.  0.
         25    2    1    2    0    0 -0.36445473793E+02 -0.61454506226E+02 -0.54395593218E+02  0.15387945963E+03  0.12496030825E+03 0.  0.
          5    1    4    4  502    0 -0.69653803727E+02  0.10620199096E+01 -0.43070441185E+02  0.82036169851E+02  0.47000000000E+01 0. -1.
         -5    1    4    4    0  502  0.33208329934E+02 -0.62516526135E+02 -0.11325152033E+02  0.71843289774E+02  0.47000000000E+01 0. -1.
          5    1    3    3  503    0 -0.43740889185E+02  0.28792818386E+02  0.15570963426E+02  0.54834630293E+02  0.47000000000E+01 0.  1.
         -5    1    3    3    0  503  0.80186362978E+02  0.32661687839E+02 -0.21169078032E+02  0.89257260348E+02  0.47000000000E+01 0.  1.
<mgrwt>
<rscale>  0 0.14397344E+03</rscale>
<asrwt>0</asrwt>
<pdfrwt beam="2">  1        5 0.27535774E-01 0.14398310E+03</pdfrwt>
<pdfrwt beam="1">  1       -5 0.18305972E-01 0.14398310E+03</pdfrwt>
<totfact> 0.25431498E+02</totfact>
</mgrwt>
</event>
<event>
 8    1  0.1865596E-007  0.1479414E+03  0.7546771E-02  0.1203029E+00
          5   -1    0    0  501    0  0.00000000000E+00  0.00000000000E+00  0.12170932128E+03  0.12180003648E+03  0.47000000000E+01 0. -1.
         -5   -1    0    0    0  501 -0.00000000000E+00 -0.00000000000E+00 -0.18380964596E+03  0.18386972548E+03  0.47000000000E+01 0. -1.
         25    2    1    2    0    0  0.72079501602E+02  0.32608668831E+02 -0.54099140687E+02  0.15752262052E+03  0.12501151594E+03 0.  0.
         25    2    1    2    0    0 -0.72079501602E+02 -0.32608668831E+02 -0.80011839917E+01  0.14814714144E+03  0.12499910695E+03 0.  0.
          5    1    3    3  502    0 -0.15113706370E+02 -0.30441654962E+02 -0.33331204352E+02  0.47834900027E+02  0.47000000000E+01 0. -1.
         -5    1    3    3    0  502  0.87193207972E+02  0.63050323793E+02 -0.20767936335E+02  0.10968772049E+03  0.47000000000E+01 0. -1.
          5    1    4    4  503    0 -0.38912576209E+02  0.47171341675E+02 -0.10238318492E+01  0.61338913378E+02  0.47000000000E+01 0.  1.
         -5    1    4    4    0  503 -0.33166925393E+02 -0.79780010507E+02 -0.69773521424E+01  0.86808228063E+02  0.47000000000E+01 0.  1.
<mgrwt>
<rscale>  0 0.14793878E+03</rscale>
<asrwt>0</asrwt>
<pdfrwt beam="1">  1        5 0.18736110E-01 0.14794140E+03</pdfrwt>
<pdfrwt beam="2">  1       -5 0.28290007E-01 0.14794140E+03</pdfrwt>
<totfact> 0.23323959E+02</totfact>
</mgrwt>
</event>
<event>
 8    1  0.1865596E-007  0.1258634E+03  0.7546771E-02  0.1233727E+00
          5   -1    0    0  501    0  0.00000000000E+00  0.00000000000E+00  0.21910667807E+02  0.22409091096E+02  0.47000000000E+01 0.  1.
         -5   -1    0    0    0  501 -0.00000000000E+00 -0.00000000000E+00 -0.71767937060E+03  0.71769476032E+03  0.47000000000E+01 0.  1.
         25    2    1    2    0    0  0.12576089064E+02  0.76217052206E+01 -0.32273225735E+03  0.34640685321E+03  0.12500139845E+03 0.  0.
         25    2    1    2    0    0 -0.12576089064E+02 -0.76217052206E+01 -0.37303644544E+03  0.39369699820E+03  0.12499955342E+03 0.  0.
          5    1    3    3  502    0 -0.34734270398E+02 -0.15589326037E+02 -0.29373622787E+02  0.48315591087E+02  0.47000000000E+01 0. -1.
         -5    1    3    3    0  502  0.47310359463E+02  0.23211031258E+02 -0.29335863456E+03  0.29809126213E+03  0.47000000000E+01 0. -1.
          5    1    4    4  503    0 -0.67709343251E+02  0.75580322578E+01 -0.19183472909E+03  0.20362792613E+03  0.47000000000E+01 0. -1.
         -5    1    4    4    0  503  0.55133254187E+02 -0.15179737478E+02 -0.18120171636E+03  0.19006907207E+03  0.47000000000E+01 0. -1.
<mgrwt>
<rscale>  0 0.12586295E+03</rscale>
<asrwt>0</asrwt>
<pdfrwt beam="1">  1        5 0.34103966E-02 0.12586341E+03</pdfrwt>
<pdfrwt beam="2">  1       -5 0.11045172E+00 0.12586341E+03</pdfrwt>
<totfact> 0.21342134E+02</totfact>
</mgrwt>
</event>
<event>
 8    1  0.1865596E-007  0.1255653E+03  0.7546771E-02  0.1234190E+00
         -5   -1    0    0    0  501 -0.00000000000E+00  0.00000000000E+00  0.97130639694E+02  0.97244286040E+02  0.47000000000E+01 0. -1.
          5   -1    0    0  501    0  0.00000000000E+00 -0.00000000000E+00 -0.16212242284E+03  0.16219053606E+03  0.47000000000E+01 0. -1.
         25    2    1    2    0    0  0.11886332917E+02  0.38977106117E+00 -0.30336051270E+02  0.12917483946E+03  0.12499770522E+03 0.  0.
         25    2    1    2    0    0 -0.11886332917E+02 -0.38977106117E+00 -0.34655731875E+02  0.13025998264E+03  0.12500082597E+03 0.  0.
          5    1    4    4  502    0 -0.50510057466E+02  0.21058335424E+02 -0.58160765905E+02  0.79996775476E+02  0.47000000000E+01 0. -1.
         -5    1    4    4    0  502  0.38623724549E+02 -0.21448106485E+02  0.23505034030E+02  0.50263207166E+02  0.47000000000E+01 0. -1.
          5    1    3    3  503    0  0.52682530022E+02 -0.35397195716E+02 -0.38064482940E+02  0.74157975266E+02  0.47000000000E+01 0.  1.
         -5    1    3    3    0  503 -0.40796197106E+02  0.35786966777E+02  0.77284316697E+01  0.55016864191E+02  0.47000000000E+01 0.  1.
<mgrwt>
<rscale>  0 0.12556452E+03</rscale>
<asrwt>0</asrwt>
<pdfrwt beam="2">  1        5 0.24955893E-01 0.12556530E+03</pdfrwt>
<pdfrwt beam="1">  1       -5 0.14957157E-01 0.12556530E+03</pdfrwt>
<totfact> 0.42370752E+02</totfact>
</mgrwt>
</event>
<event>
 8    1  0.1865596E-007  0.1533697E+03  0.7546771E-02  0.1196395E+00
         -5   -1    0    0    0  501 -0.00000000000E+00  0.00000000000E+00  0.22102772134E+03  0.22107768680E+03  0.47000000000E+01 0.  1.
          5   -1    0    0  501    0  0.00000000000E+00 -0.00000000000E+00 -0.11379818626E+03  0.11389520269E+03  0.47000000000E+01 0.  1.
         25    2    1    2    0    0 -0.72333404973E+02 -0.51645451572E+02  0.96567639330E+02  0.18123299914E+03  0.12498286630E+03 0.  0.
         25    2    1    2    0    0  0.72333404973E+02  0.51645451572E+02  0.10661895745E+02  0.15373989035E+03  0.12499161460E+03 0.  0.
          5    1    4    4  502    0 -0.30312785916E+02 -0.85458725995E+01 -0.88883746651E+01  0.33060401278E+02  0.47000000000E+01 0. -1.
         -5    1    4    4    0  502  0.10264619089E+03  0.60191324171E+02  0.19550270410E+02  0.12067948907E+03  0.47000000000E+01 0. -1.
          5    1    3    3  503    0 -0.46098807170E+02 -0.80576506414E+02  0.10579653355E+03  0.14082851245E+03  0.47000000000E+01 0. -1.
         -5    1    3    3    0  503 -0.26234597803E+02  0.28931054842E+02 -0.92288942175E+01  0.40404486690E+02  0.47000000000E+01 0. -1.
<mgrwt>
<rscale>  0 0.15336796E+03</rscale>
<asrwt>0</asrwt>
<pdfrwt beam="2">  1        5 0.17518720E-01 0.15336974E+03</pdfrwt>
<pdfrwt beam="1">  1       -5 0.34015571E-01 0.15336974E+03</pdfrwt>
<totfact> 0.18571028E+02</totfact>
</mgrwt>
</event>
<event>
 8    1  0.1865596E-007  0.1294390E+03  0.7546771E-02  0.1228293E+00
         -5   -1    0    0    0  501 -0.00000000000E+00  0.00000000000E+00  0.17044238719E+03  0.17050717683E+03  0.47000000000E+01 0.  1.
          5   -1    0    0  501    0  0.00000000000E+00 -0.00000000000E+00 -0.10433593452E+03  0.10444174085E+03  0.47000000000E+01 0.  1.
         25    2    1    2    0    0 -0.23664494205E+02 -0.23831440393E+02  0.66486674316E+02  0.14551607090E+03  0.12500601262E+03 0.  0.
         25    2    1    2    0    0  0.23664494205E+02  0.23831440393E+02 -0.38022164829E+00  0.12943284679E+03  0.12499908568E+03 0.  0.
          5    1    3    3  502    0  0.33153582481E+02 -0.26230284711E+02 -0.15804006824E+02  0.45376695550E+02  0.47000000000E+01 0. -1.
         -5    1    3    3    0  502 -0.56818076686E+02  0.23988443179E+01  0.82290681139E+02  0.10013937535E+03  0.47000000000E+01 0. -1.
          5    1    4    4  503    0  0.45369589615E+02  0.61142054132E+02  0.23577504254E+02  0.79841963604E+02  0.47000000000E+01 0.  1.
         -5    1    4    4    0  503 -0.21705095410E+02 -0.37310613740E+02 -0.23957725902E+02  0.49590883182E+02  0.47000000000E+01 0.  1.
<mgrwt>
<rscale>  0 0.12943731E+03</rscale>
<asrwt>0</asrwt>
<pdfrwt beam="2">  1        5 0.16064805E-01 0.12943898E+03</pdfrwt>
<pdfrwt beam="1">  1       -5 0.26235028E-01 0.12943898E+03</pdfrwt>
<totfact> 0.34199924E+02</totfact>
</mgrwt>
</event>
<event>
 8    1  0.1865596E-007  0.1464238E+03  0.7546771E-02  0.1204938E+00
          5   -1    0    0  501    0  0.00000000000E+00  0.00000000000E+00  0.17808070145E+03  0.17814271309E+03  0.47000000000E+01 0.  1.
         -5   -1    0    0    0  501 -0.00000000000E+00 -0.00000000000E+00 -0.12873311978E+03  0.12881888886E+03  0.47000000000E+01 0.  1.
         25    2    1    2    0    0  0.58746659629E+02  0.48617637162E+02 -0.14667429812E+02  0.14715659469E+03  0.12500034081E+03 0.  0.
         25    2    1    2    0    0 -0.58746659629E+02 -0.48617637162E+02  0.64015011485E+02  0.15980500727E+03  0.12499949597E+03 0.  0.
          5    1    4    4  502    0  0.27033340175E+02  0.21474799534E+02  0.22159325835E+02  0.41292786507E+02  0.47000000000E+01 0. -1.
         -5    1    4    4    0  502 -0.85779999804E+02 -0.70092436697E+02  0.41855685650E+02  0.11851222076E+03  0.47000000000E+01 0. -1.
          5    1    3    3  503    0  0.86787193536E+02  0.59754667406E+02 -0.34233787279E+02  0.11089039377E+03  0.47000000000E+01 0. -1.
         -5    1    3    3    0  503 -0.28040533907E+02 -0.11137030243E+02  0.19566357467E+02  0.36266200917E+02  0.47000000000E+01 0. -1.
<mgrwt>
<rscale>  0 0.14642362E+03</rscale>
<asrwt>0</asrwt>
<pdfrwt beam="1">  1        5 0.27408399E-01 0.14642380E+03</pdfrwt>
<pdfrwt beam="2">  1       -5 0.19816463E-01 0.14642380E+03</pdfrwt>
<totfact> 0.22271578E+02</totfact>
</mgrwt>
</event>
<event>
 8    1  0.1865596E-007  0.2067181E+03  0.7546771E-02  0.1144192E+00
         -5   -1    0    0    0  501 -0.00000000000E+00  0.00000000000E+00  0.55757629117E+03  0.55759609976E+03  0.47000000000E+01 0. -1.
          5   -1    0    0  501    0  0.00000000000E+00 -0.00000000000E+00 -0.20737927551E+03  0.20743252857E+03  0.47000000000E+01 0. -1.
         25    2    1    2    0    0 -0.10690445567E+03  0.12521204712E+03  0.47883730999E+03  0.52155235326E+03  0.12500027348E+03 0.  0.
         25    2    1    2    0    0  0.10690445567E+03 -0.12521204712E+03 -0.12864029433E+03  0.24347627507E+03  0.12500300722E+03 0.  0.
          5    1    4    4  502    0  0.11150802743E+03 -0.12766630412E+03 -0.14662247989E+03  0.22417173550E+03  0.47000000000E+01 0. -1.
         -5    1    4    4    0  502 -0.46035717599E+01  0.24542570049E+01  0.17982185563E+02  0.19304539570E+02  0.47000000000E+01 0. -1.
          5    1    3    3  503    0 -0.34717299413E+02 -0.20135458519E+02  0.59895648185E+02  0.72251686761E+02  0.47000000000E+01 0.  1.
         -5    1    3    3    0  503 -0.72187156253E+02  0.14534750564E+03  0.41894166180E+03  0.44930066650E+03  0.47000000000E+01 0.  1.
<mgrwt>
<rscale>  0 0.20671768E+03</rscale>
<asrwt>0</asrwt>
<pdfrwt beam="2">  1        5 0.31910125E-01 0.20671810E+03</pdfrwt>
<pdfrwt beam="1">  1       -5 0.85786585E-01 0.20671810E+03</pdfrwt>
<totfact> 0.86171019E+00</totfact>
</mgrwt>
</event>
<event>
 8    1  0.1865596E-007  0.1281342E+03  0.7546771E-02  0.1230257E+00
          5   -1    0    0  501    0  0.00000000000E+00  0.00000000000E+00  0.31579864034E+03  0.31583361322E+03  0.47000000000E+01 0. -1.
         -5   -1    0    0    0  501 -0.00000000000E+00 -0.00000000000E+00 -0.18567522994E+03  0.18573470600E+03  0.47000000000E+01 0. -1.
         25    2    1    2    0    0 -0.27955535430E+02 -0.32213111778E+01 -0.14775588187E+03  0.19557650179E+03  0.12500591433E+03 0.  0.
         25    2    1    2    0    0  0.27955535430E+02  0.32213111778E+01  0.27787929227E+03  0.30599181744E+03  0.12498880934E+03 0.  0.
          5    1    4    4  502    0 -0.15063622534E+02 -0.52973513156E+02  0.14838843292E+03  0.15834873805E+03  0.47000000000E+01 0.  1.
         -5    1    4    4    0  502  0.43019157964E+02  0.56194824334E+02  0.12949085935E+03  0.14764307938E+03  0.47000000000E+01 0.  1.
          5    1    3    3  503    0 -0.13424747734E+02 -0.54543618260E+02 -0.12552195858E+03  0.13759753715E+03  0.47000000000E+01 0. -1.
         -5    1    3    3    0  503 -0.14530787696E+02  0.51322307082E+02 -0.22233923292E+02  0.57978964636E+02  0.47000000000E+01 0. -1.
<mgrwt>
<rscale>  0 0.12813001E+03</rscale>
<asrwt>0</asrwt>
<pdfrwt beam="1">  1        5 0.48591672E-01 0.12813418E+03</pdfrwt>
<pdfrwt beam="2">  1       -5 0.28572685E-01 0.12813418E+03</pdfrwt>
<totfact> 0.33422442E+01</totfact>
</mgrwt>
</event>
<event>
 8    1  0.1865596E-007  0.1971010E+03  0.7546771E-02  0.1152208E+00
         -5   -1    0    0    0  501 -0.00000000000E+00  0.00000000000E+00  0.20800782620E+03  0.20806091839E+03  0.47000000000E+01 0. -1.
          5   -1    0    0  501    0  0.00000000000E+00 -0.00000000000E+00 -0.18960167872E+03  0.18965992348E+03  0.47000000000E+01 0. -1.
         25    2    1    2    0    0 -0.15230810139E+03  0.51807804368E+01  0.33972559959E+02  0.20000611568E+03  0.12499485287E+03 0.  0.
         25    2    1    2    0    0  0.15230810139E+03 -0.51807804368E+01 -0.15566412479E+02  0.19771472618E+03  0.12499680602E+03 0.  0.
          5    1    3    3  502    0  0.23054278234E+01 -0.20564671587E+02  0.37573660688E+02  0.43151948883E+02  0.47000000000E+01 0.  1.
         -5    1    3    3    0  502 -0.15461352921E+03  0.25745452024E+02 -0.36011007291E+01  0.15685416680E+03  0.47000000000E+01 0.  1.
          5    1    4    4  503    0  0.16261811811E+03  0.23809067146E+02 -0.38713792603E+01  0.16446459070E+03  0.47000000000E+01 0. -1.
         -5    1    4    4    0  503 -0.10310016720E+02 -0.28989847583E+02 -0.11695033218E+02  0.33250135483E+02  0.47000000000E+01 0. -1.
<mgrwt>
<rscale>  0 0.19710068E+03</rscale>
<asrwt>0</asrwt>
<pdfrwt beam="2">  1        5 0.29178053E-01 0.19710099E+03</pdfrwt>
<pdfrwt beam="1">  1       -5 0.32009768E-01 0.19710099E+03</pdfrwt>
<totfact> 0.85624554E+01</totfact>
</mgrwt>
</event>
<event>
 8    1  0.1865596E-007  0.1387016E+03  0.7546771E-02  0.1215088E+00
          5   -1    0    0  501    0  0.00000000000E+00  0.00000000000E+00  0.59975159710E+02  0.60159037411E+02  0.47000000000E+01 0. -1.
         -5   -1    0    0    0  501 -0.00000000000E+00 -0.00000000000E+00 -0.33536760763E+03  0.33540054002E+03  0.47000000000E+01 0. -1.
         25    2    1    2    0    0  0.58081554591E+01 -0.59827136199E+02 -0.17992968789E+03  0.22718454316E+03  0.12500041268E+03 0.  0.
         25    2    1    2    0    0 -0.58081554591E+01  0.59827136199E+02 -0.95462760033E+02  0.16837503428E+03  0.12499597081E+03 0.  0.
          5    1    4    4  502    0  0.48198960212E+02  0.67150239219E+02 -0.68147292575E+02  0.10723076927E+03  0.47000000000E+01 0. -1.
         -5    1    4    4    0  502 -0.54007115671E+02 -0.73231030199E+01 -0.27315467458E+02  0.61144265008E+02  0.47000000000E+01 0. -1.
          5    1    3    3  503    0 -0.26491341400E+02  0.18776097302E+02 -0.57309272457E+01  0.33305653066E+02  0.47000000000E+01 0. -1.
         -5    1    3    3    0  503  0.32299496859E+02 -0.78603233501E+02 -0.17419876064E+03  0.19387889009E+03  0.47000000000E+01 0. -1.
<mgrwt>
<rscale>  0 0.13870056E+03</rscale>
<asrwt>0</asrwt>
<pdfrwt beam="1">  1        5 0.92436255E-02 0.13870156E+03</pdfrwt>
<pdfrwt beam="2">  1       -5 0.51611693E-01 0.13870156E+03</pdfrwt>
<totfact> 0.23794688E+02</totfact>
</mgrwt>
</event>
<event>
 8    1  0.1865596E-007  0.1393191E+03  0.7546771E-02  0.1214250E+00
          5   -1    0    0  501    0  0.00000000000E+00  0.00000000000E+00  0.57093723781E+03  0.57095658286E+03  0.47000000000E+01 0. -1.
         -5   -1    0    0    0  501 -0.00000000000E+00 -0.00000000000E+00 -0.34256516456E+02  0.34577433677E+02  0.47000000000E+01 0. -1.
         25    2    1    2    0    0  0.41591883630E+02 -0.45307972202E+02  0.23404774191E+03  0.27237261359E+03  0.12500319202E+03 0.  0.
         25    2    1    2    0    0 -0.41591883630E+02  0.45307972202E+02  0.30263297944E+03  0.33316140295E+03  0.12500841187E+03 0.  0.
          5    1    4    4  502    0  0.33868203086E+02 -0.55143881254E+01  0.16155795440E+03  0.16522870903E+03  0.47000000000E+01 0. -1.
         -5    1    4    4    0  502 -0.75460086716E+02  0.50822360328E+02  0.14107502505E+03  0.16793269392E+03  0.47000000000E+01 0. -1.
          5    1    3    3  503    0  0.46675705177E+02  0.24645579339E+02  0.16708858736E+03  0.17529036500E+03  0.47000000000E+01 0. -1.
         -5    1    3    3    0  503 -0.50838215466E+01 -0.69953551541E+02  0.66959154547E+02  0.97082248596E+02  0.47000000000E+01 0. -1.
<mgrwt>
<rscale>  0 0.13931789E+03</rscale>
<asrwt>0</asrwt>
<pdfrwt beam="1">  1        5 0.87862674E-01 0.13931906E+03</pdfrwt>
<pdfrwt beam="2">  1       -5 0.52964072E-02 0.13931906E+03</pdfrwt>
<totfact> 0.18649129E+02</totfact>
</mgrwt>
</event>
<event>
 8    1  0.1865596E-007  0.1255830E+03  0.7546771E-02  0.1234162E+00
         -5   -1    0    0    0  501 -0.00000000000E+00  0.00000000000E+00  0.23879908329E+02  0.24338036523E+02  0.47000000000E+01 0.  1.
          5   -1    0    0  501    0  0.00000000000E+00 -0.00000000000E+00 -0.66919257349E+03  0.66920907825E+03  0.47000000000E+01 0.  1.
         25    2    1    2    0    0  0.67393297368E+01 -0.99609945653E+01 -0.26987104209E+03  0.29765888382E+03  0.12500316707E+03 0.  0.
         25    2    1    2    0    0 -0.67393297368E+01  0.99609945653E+01 -0.37544162307E+03  0.39588823096E+03  0.12500575627E+03 0.  0.
          5    1    4    4  502    0 -0.55640521738E+01  0.36638234872E+00 -0.38279545620E+03  0.38286491638E+03  0.47000000000E+01 0. -1.
         -5    1    4    4    0  502 -0.11752775630E+01  0.95946122166E+01  0.73538331248E+01  0.13023314577E+02  0.47000000000E+01 0. -1.
          5    1    3    3  503    0  0.39762969969E+02 -0.52236441783E+02 -0.10226093898E+03  0.12161056398E+03  0.47000000000E+01 0. -1.
         -5    1    3    3    0  503 -0.33023640233E+02  0.42275447218E+02 -0.16761010311E+03  0.17604831983E+03  0.47000000000E+01 0. -1.
<mgrwt>
<rscale>  0 0.12558231E+03</rscale>
<asrwt>0</asrwt>
<pdfrwt beam="2">  1        5 0.10298920E+00 0.12558296E+03</pdfrwt>
<pdfrwt beam="1">  1       -5 0.37103428E-02 0.12558296E+03</pdfrwt>
<totfact> 0.22096489E+02</totfact>
</mgrwt>
</event>
<event>
 8    1  0.1865596E-007  0.1360950E+03  0.7546771E-02  0.1218689E+00
         -5   -1    0    0    0  501 -0.00000000000E+00  0.00000000000E+00  0.27268960066E+02  0.27671035093E+02  0.47000000000E+01 0.  1.
          5   -1    0    0  501    0  0.00000000000E+00 -0.00000000000E+00 -0.77683053695E+03  0.77684475485E+03  0.47000000000E+01 0.  1.
         25    2    1    2    0    0 -0.10728099799E+01 -0.53759327524E+02 -0.22827157670E+03  0.26575320245E+03  0.12500254264E+03 0.  0.
         25    2    1    2    0    0  0.10728099799E+01  0.53759327524E+02 -0.52129000019E+03  0.53876258749E+03  0.12502257866E+03 0.  0.
          5    1    4    4  502    0 -0.21699497887E+02 -0.35906709446E+02 -0.13118855767E+03  0.13781396031E+03  0.47000000000E+01 0.  1.
         -5    1    4    4    0  502  0.22772307867E+02  0.89666036970E+02 -0.39010144251E+03  0.40094862719E+03  0.47000000000E+01 0.  1.
          5    1    3    3  503    0 -0.26426652378E+02  0.31548734591E+01  0.20528084943E+01  0.27103970285E+02  0.47000000000E+01 0. -1.
         -5    1    3    3    0  503  0.25353842398E+02 -0.56914200983E+02 -0.23032438520E+03  0.23864923217E+03  0.47000000000E+01 0. -1.
<mgrwt>
<rscale>  0 0.13609044E+03</rscale>
<asrwt>0</asrwt>
<pdfrwt beam="2">  1        5 0.11954440E+00 0.13609505E+03</pdfrwt>
<pdfrwt beam="1">  1       -5 0.42272477E-02 0.13609505E+03</pdfrwt>
<totfact> 0.12654966E+02</totfact>
</mgrwt>
</event>
<event>
 8    1  0.1865596E-007  0.1411093E+03  0.7546771E-02  0.1211845E+00
          5   -1    0    0  501    0  0.00000000000E+00  0.00000000000E+00  0.33115598573E+02  0.33447464312E+02  0.47000000000E+01 0. -1.
         -5   -1    0    0    0  501 -0.00000000000E+00 -0.00000000000E+00 -0.67842177530E+03  0.67843805554E+03  0.47000000000E+01 0. -1.
         25    2    1    2    0    0 -0.31796004514E+02 -0.57231104802E+02 -0.44522417670E+03  0.46705075782E+03  0.12500183040E+03 0.  0.
         25    2    1    2    0    0  0.31796004514E+02  0.57231104802E+02 -0.20008200003E+03  0.24483476203E+03  0.12499947481E+03 0.  0.
          5    1    4    4  502    0  0.20244586987E+02  0.22427514335E+02 -0.20524095472E+03  0.20750608713E+03  0.47000000000E+01 0.  1.
         -5    1    4    4    0  502  0.11551417527E+02  0.34803590466E+02  0.51589546920E+01  0.37328674899E+02  0.47000000000E+01 0.  1.
          5    1    3    3  503    0 -0.45949921722E+01 -0.23478975931E+02 -0.41073160420E+03  0.41145463536E+03  0.47000000000E+01 0.  1.
         -5    1    3    3    0  503 -0.27201012342E+02 -0.33752128870E+02 -0.34492572495E+02  0.55596122464E+02  0.47000000000E+01 0.  1.
<mgrwt>
<rscale>  0 0.14110881E+03</rscale>
<asrwt>0</asrwt>
<pdfrwt beam="1">  1        5 0.51214884E-02 0.14110933E+03</pdfrwt>
<pdfrwt beam="2">  1       -5 0.10439935E+00 0.14110933E+03</pdfrwt>
<totfact> 0.13070290E+02</totfact>
</mgrwt>
</event>
<event>
 8    1  0.1865596E-007  0.1292682E+03  0.7546771E-02  0.1228548E+00
         -5   -1    0    0    0  501 -0.00000000000E+00  0.00000000000E+00  0.65743509124E+03  0.65745189116E+03  0.47000000000E+01 0. -1.
          5   -1    0    0  501    0  0.00000000000E+00 -0.00000000000E+00 -0.29203554602E+02  0.29579344167E+02  0.47000000000E+01 0. -1.
         25    2    1    2    0    0  0.32614221851E+02  0.45109618297E+01  0.44067954819E+03  0.45924618796E+03  0.12499824286E+03 0.  0.
         25    2    1    2    0    0 -0.32614221851E+02 -0.45109618297E+01  0.18755198845E+03  0.22778504737E+03  0.12500497267E+03 0.  0.
          5    1    4    4  502    0 -0.18193543851E+02 -0.58164677103E+02  0.14590606747E+03  0.15819230457E+03  0.47000000000E+01 0. -1.
         -5    1    4    4    0  502 -0.14420678000E+02  0.53653715273E+02  0.41645920974E+02  0.69592742800E+02  0.47000000000E+01 0. -1.
          5    1    3    3  503    0 -0.29507113082E+02 -0.24394928779E+02  0.53114581807E+02  0.65643210412E+02  0.47000000000E+01 0.  1.
         -5    1    3    3    0  503  0.62121334933E+02  0.28905890609E+02  0.38756496638E+03  0.39360297754E+03  0.47000000000E+01 0.  1.
<mgrwt>
<rscale>  0 0.12926662E+03</rscale>
<asrwt>0</asrwt>
<pdfrwt beam="2">  1        5 0.45230539E-02 0.12926825E+03</pdfrwt>
<pdfrwt beam="1">  1       -5 0.10117406E+00 0.12926825E+03</pdfrwt>
<totfact> 0.16850001E+02</totfact>
</mgrwt>
</event>
<event>
 8    1  0.1865596E-007  0.1480220E+03  0.7546771E-02  0.1202930E+00
         -5   -1    0    0    0  501 -0.00000000000E+00  0.00000000000E+00  0.85300654596E+02  0.85430039649E+02  0.47000000000E+01 0.  1.
          5   -1    0    0  501    0  0.00000000000E+00 -0.00000000000E+00 -0.28200589496E+03  0.28204505809E+03  0.47000000000E+01 0.  1.
         25    2    1    2    0    0 -0.24738580198E+02 -0.75321291171E+02 -0.43094789611E+02  0.15415215698E+03  0.12498172809E+03 0.  0.
         25    2    1    2    0    0  0.24738580198E+02  0.75321291171E+02 -0.15361045076E+03  0.21332294076E+03  0.12500084887E+03 0.  0.
          5    1    3    3  502    0  0.66019777818E+01 -0.45991773814E+02  0.39360225648E+02  0.61074927199E+02  0.47000000000E+01 0. -1.
         -5    1    3    3    0  502 -0.31340557980E+02 -0.29329517357E+02 -0.82455015260E+02  0.93077229784E+02  0.47000000000E+01 0. -1.
          5    1    4    4  503    0  0.19609429646E+02  0.60833283879E+02 -0.17511624949E+03  0.18647522354E+03  0.47000000000E+01 0.  1.
         -5    1    4    4    0  503  0.51291505523E+01  0.14488007292E+02  0.21505798733E+02  0.26847717218E+02  0.47000000000E+01 0.  1.
<mgrwt>
<rscale>  0 0.14801794E+03</rscale>
<asrwt>0</asrwt>
<pdfrwt beam="2">  1        5 0.43398487E-01 0.14802198E+03</pdfrwt>
<pdfrwt beam="1">  1       -5 0.13136143E-01 0.14802198E+03</pdfrwt>
<totfact> 0.18851408E+02</totfact>
</mgrwt>
</event>
<event>
 8    1  0.1865596E-007  0.1254232E+03  0.7546771E-02  0.1234411E+00
          5   -1    0    0  501    0  0.00000000000E+00  0.00000000000E+00  0.19396406319E+04  0.19396463263E+04  0.47000000000E+01 0. -1.
         -5   -1    0    0    0  501 -0.00000000000E+00 -0.00000000000E+00 -0.76401219326E+01  0.89700313904E+01  0.47000000000E+01 0. -1.
         25    2    1    2    0    0 -0.47390397838E+00  0.10231470637E+02  0.81456284532E+03  0.82416185785E+03  0.12500092555E+03 0.  0.
         25    2    1    2    0    0  0.47390397838E+00 -0.10231470637E+02  0.11174376647E+04  0.11244544998E+04  0.12500432046E+03 0.  0.
          5    1    4    4  502    0  0.26502317732E+02  0.20878675276E+02  0.90395009277E+02  0.96600412155E+02  0.47000000000E+01 0.  1.
         -5    1    4    4    0  502 -0.26028413753E+02 -0.31110145913E+02  0.10270426554E+04  0.10278540877E+04  0.47000000000E+01 0.  1.
          5    1    3    3  503    0 -0.29237717515E+02 -0.48824830346E+01  0.75922377315E+03  0.75981676112E+03  0.47000000000E+01 0.  1.
         -5    1    3    3    0  503  0.28763813537E+02  0.15113953671E+02  0.55339072174E+02  0.64345096735E+02  0.47000000000E+01 0.  1.
<mgrwt>
<rscale>  0 0.12542239E+03</rscale>
<asrwt>0</asrwt>
<pdfrwt beam="1">  1        5 0.29850914E+00 0.12542323E+03</pdfrwt>
<pdfrwt beam="2">  1       -5 0.12781415E-02 0.12542323E+03</pdfrwt>
<totfact> 0.46860719E+01</totfact>
</mgrwt>
</event>
<event>
 8    1  0.1865596E-007  0.1281016E+03  0.7546771E-02  0.1230305E+00
          5   -1    0    0  501    0  0.00000000000E+00  0.00000000000E+00  0.23052724459E+03  0.23057515152E+03  0.47000000000E+01 0. -1.
         -5   -1    0    0    0  501 -0.00000000000E+00 -0.00000000000E+00 -0.72086120164E+02  0.72239177184E+02  0.47000000000E+01 0. -1.
         25    2    1    2    0    0 -0.26836552121E+02 -0.80180608976E+01  0.61048841279E+02  0.14190482424E+03  0.12500211314E+03 0.  0.
         25    2    1    2    0    0  0.26836552121E+02  0.80180608976E+01  0.97392283148E+02  0.16090950447E+03  0.12498848739E+03 0.  0.
          5    1    3    3  502    0 -0.63870434493E+02  0.32473981233E+02  0.24783187843E+02  0.75962413463E+02  0.47000000000E+01 0. -1.
         -5    1    3    3    0  502  0.37033882373E+02 -0.40492042131E+02  0.36265653436E+02  0.65942410774E+02  0.47000000000E+01 0. -1.
          5    1    4    4  503    0 -0.15313091217E+02 -0.10066801675E+02 -0.24288172442E+02  0.30786954691E+02  0.47000000000E+01 0. -1.
         -5    1    4    4    0  503  0.42149643338E+02  0.18084862572E+02  0.12168045559E+03  0.13012254978E+03  0.47000000000E+01 0. -1.
<mgrwt>
<rscale>  0 0.12809827E+03</rscale>
<asrwt>0</asrwt>
<pdfrwt beam="1">  1        5 0.35481189E-01 0.12810159E+03</pdfrwt>
<pdfrwt beam="2">  1       -5 0.11105631E-01 0.12810159E+03</pdfrwt>
<totfact> 0.36432492E+02</totfact>
</mgrwt>
</event>
<event>
 8    1  0.1865596E-007  0.1364439E+03  0.7546771E-02  0.1218197E+00
         -5   -1    0    0    0  501 -0.00000000000E+00  0.00000000000E+00  0.47107234774E+03  0.47109579366E+03  0.47000000000E+01 0.  1.
          5   -1    0    0  501    0  0.00000000000E+00 -0.00000000000E+00 -0.42513728478E+02  0.42772737919E+02  0.47000000000E+01 0.  1.
         25    2    1    2    0    0  0.46891739474E+01 -0.54501731567E+02  0.28407670994E+03  0.31514523067E+03  0.12499804875E+03 0.  0.
         25    2    1    2    0    0 -0.46891739474E+01  0.54501731567E+02  0.14448190933E+03  0.19872330091E+03  0.12499400428E+03 0.  0.
          5    1    4    4  502    0 -0.58669941927E+02 -0.96060944025E+00  0.60070586655E+02  0.84104995317E+02  0.47000000000E+01 0.  1.
         -5    1    4    4    0  502  0.53980767979E+02  0.55462341007E+02  0.84411322672E+02  0.11461830559E+03  0.47000000000E+01 0.  1.
          5    1    3    3  503    0  0.64162343436E+02 -0.29079871557E+02  0.12901923472E+03  0.14707310486E+03  0.47000000000E+01 0.  1.
         -5    1    3    3    0  503 -0.59473169488E+02 -0.25421860009E+02  0.15505747522E+03  0.16807212582E+03  0.47000000000E+01 0.  1.
<mgrwt>
<rscale>  0 0.13644298E+03</rscale>
<asrwt>0</asrwt>
<pdfrwt beam="2">  1        5 0.65623013E-02 0.13644391E+03</pdfrwt>
<pdfrwt beam="1">  1       -5 0.72494392E-01 0.13644391E+03</pdfrwt>
<totfact> 0.20162748E+02</totfact>
</mgrwt>
</event>
<event>
 8    1  0.1865596E-007  0.1271563E+03  0.7546771E-02  0.1231738E+00
         -5   -1    0    0    0  501 -0.00000000000E+00  0.00000000000E+00  0.43137282770E+02  0.43392570387E+02  0.47000000000E+01 0.  1.
          5   -1    0    0  501    0  0.00000000000E+00 -0.00000000000E+00 -0.37848028662E+03  0.37850946799E+03  0.47000000000E+01 0.  1.
         25    2    1    2    0    0 -0.22039229912E+02  0.75659068500E+01 -0.14333885656E+03  0.19161091439E+03  0.12500297641E+03 0.  0.
         25    2    1    2    0    0  0.22039229912E+02 -0.75659068500E+01 -0.19200414729E+03  0.23029112399E+03  0.12500175443E+03 0.  0.
          5    1    4    4  502    0  0.32799054137E+02 -0.27235762973E+02 -0.20111518825E+03  0.20563796751E+03  0.47000000000E+01 0.  1.
         -5    1    4    4    0  502 -0.10759824225E+02  0.19669856123E+02  0.91110409568E+01  0.24653156483E+02  0.47000000000E+01 0.  1.
          5    1    3    3  503    0  0.67606349591E+01 -0.38195273131E+02 -0.79111302577E+00  0.39080697722E+02  0.47000000000E+01 0. -1.
         -5    1    3    3    0  503 -0.28799864872E+02  0.45761179981E+02 -0.14254774353E+03  0.15253021667E+03  0.47000000000E+01 0. -1.
<mgrwt>
<rscale>  0 0.12715596E+03</rscale>
<asrwt>0</asrwt>
<pdfrwt beam="2">  1        5 0.58249616E-01 0.12715626E+03</pdfrwt>
<pdfrwt beam="1">  1       -5 0.66583875E-02 0.12715626E+03</pdfrwt>
<totfact> 0.31190220E+02</totfact>
</mgrwt>
</event>
<event>
 8    1  0.1865596E-007  0.1276224E+03  0.7546771E-02  0.1231034E+00
         -5   -1    0    0    0  501 -0.00000000000E+00  0.00000000000E+00  0.17331536271E+03  0.17337907876E+03  0.47000000000E+01 0.  1.
          5   -1    0    0  501    0  0.00000000000E+00 -0.00000000000E+00 -0.10725427688E+03  0.10735720707E+03  0.47000000000E+01 0.  1.
         25    2    1    2    0    0  0.17055477178E+02 -0.19163101477E+02  0.82663137622E+02  0.15203859815E+03  0.12499770896E+03 0.  0.
         25    2    1    2    0    0 -0.17055477178E+02  0.19163101477E+02 -0.16602051795E+02  0.12869768768E+03  0.12501741051E+03 0.  0.
          5    1    4    4  502    0 -0.54892558786E+01 -0.10612501284E+02  0.51635156686E+02  0.53207485560E+02  0.47000000000E+01 0. -1.
         -5    1    4    4    0  502 -0.11566221300E+02  0.29775602762E+02 -0.68237208482E+02  0.75490202121E+02  0.47000000000E+01 0. -1.
          5    1    3    3  503    0  0.55892611672E+02 -0.61494587217E+01 -0.34847653232E+01  0.56533472133E+02  0.47000000000E+01 0.  1.
         -5    1    3    3    0  503 -0.38837134493E+02 -0.13013642755E+02  0.86147902945E+02  0.95505126016E+02  0.47000000000E+01 0.  1.
<mgrwt>
<rscale>  0 0.12761753E+03</rscale>
<asrwt>0</asrwt>
<pdfrwt beam="2">  1        5 0.16513477E-01 0.12762236E+03</pdfrwt>
<pdfrwt beam="1">  1       -5 0.26676721E-01 0.12762236E+03</pdfrwt>
<totfact> 0.31332346E+02</totfact>
</mgrwt>
</event>
<event>
 8    1  0.1865596E-007  0.1309656E+03  0.7546771E-02  0.1226030E+00
         -5   -1    0    0    0  501 -0.00000000000E+00  0.00000000000E+00  0.32771338400E+02  0.33106655230E+02  0.47000000000E+01 0.  1.
          5   -1    0    0  501    0  0.00000000000E+00 -0.00000000000E+00 -0.58015567185E+03  0.58017470953E+03  0.47000000000E+01 0.  1.
         25    2    1    2    0    0  0.81341337818E+01  0.38216376025E+02 -0.17528350395E+03  0.21880575715E+03  0.12499998831E+03 0.  0.
         25    2    1    2    0    0 -0.81341337818E+01 -0.38216376025E+02 -0.37210082950E+03  0.39447560761E+03  0.12500128861E+03 0.  0.
          5    1    3    3  502    0  0.14777851912E+02  0.50346346948E+02 -0.10927401206E+02  0.53801836914E+02  0.47000000000E+01 0.  1.
         -5    1    3    3    0  502 -0.66437181306E+01 -0.12129970923E+02 -0.16435610275E+03  0.16500392024E+03  0.47000000000E+01 0.  1.
          5    1    4    4  503    0 -0.16484006723E+02 -0.59377417444E+02 -0.78270248862E+02  0.99728240920E+02  0.47000000000E+01 0. -1.
         -5    1    4    4    0  503  0.83498729412E+01  0.21161041419E+02 -0.29383058064E+03  0.29474736669E+03  0.47000000000E+01 0. -1.
<mgrwt>
<rscale>  0 0.13096525E+03</rscale>
<asrwt>0</asrwt>
<pdfrwt beam="2">  1        5 0.89281969E-01 0.13096556E+03</pdfrwt>
<pdfrwt beam="1">  1       -5 0.50690028E-02 0.13096556E+03</pdfrwt>
<totfact> 0.18921677E+02</totfact>
</mgrwt>
</event>
<event>
 8    1  0.1865596E-007  0.1357763E+03  0.7546771E-02  0.1219131E+00
          5   -1    0    0  501    0  0.00000000000E+00  0.00000000000E+00  0.34506804460E+02  0.34825415346E+02  0.47000000000E+01 0.  1.
         -5   -1    0    0    0  501 -0.00000000000E+00 -0.00000000000E+00 -0.53610893416E+03  0.53612953592E+03  0.47000000000E+01 0.  1.
         25    2    1    2    0    0 -0.19354230213E+02  0.49336529909E+02 -0.27745444116E+03  0.30889122331E+03  0.12499656598E+03 0.  0.
         25    2    1    2    0    0  0.19354230213E+02 -0.49336529909E+02 -0.22414768854E+03  0.26206372796E+03  0.12500612714E+03 0.  0.
          5    1    4    4  502    0  0.66006995605E+02 -0.19160810555E+02 -0.70325503993E+02  0.98447075334E+02  0.47000000000E+01 0.  1.
         -5    1    4    4    0  502 -0.46652765392E+02 -0.30175719354E+02 -0.15382218454E+03  0.16361665262E+03  0.47000000000E+01 0.  1.
          5    1    3    3  503    0 -0.18349096265E+02  0.75922748287E+00  0.70531778211E+01  0.20226296682E+02  0.47000000000E+01 0.  1.
         -5    1    3    3    0  503 -0.10051339485E+01  0.48577302427E+02 -0.28450761898E+03  0.28866492663E+03  0.47000000000E+01 0.  1.
<mgrwt>
<rscale>  0 0.13577413E+03</rscale>
<asrwt>0</asrwt>
<pdfrwt beam="1">  1        5 0.53348328E-02 0.13577633E+03</pdfrwt>
<pdfrwt beam="2">  1       -5 0.82504385E-01 0.13577633E+03</pdfrwt>
<totfact> 0.21172005E+02</totfact>
</mgrwt>
</event>
<event>
 8    1  0.1865596E-007  0.1330677E+03  0.7546771E-02  0.1222980E+00
         -5   -1    0    0    0  501 -0.00000000000E+00  0.00000000000E+00  0.38065836295E+02  0.38354893988E+02  0.47000000000E+01 0. -1.
          5   -1    0    0  501    0  0.00000000000E+00 -0.00000000000E+00 -0.47602636816E+03  0.47604957009E+03  0.47000000000E+01 0. -1.
         25    2    1    2    0    0  0.11510601906E+02  0.44141266218E+02 -0.17650779051E+03  0.22103687284E+03  0.12498541398E+03 0.  0.
         25    2    1    2    0    0 -0.11510601906E+02 -0.44141266218E+02 -0.26145274136E+03  0.29336759124E+03  0.12500424906E+03 0.  0.
          5    1    4    4  502    0  0.44723095407E+02 -0.46813831899E+02 -0.19820172966E+03  0.20856103605E+03  0.47000000000E+01 0. -1.
         -5    1    4    4    0  502 -0.56233697313E+02  0.26725656815E+01 -0.63251011700E+02  0.84806555182E+02  0.47000000000E+01 0. -1.
          5    1    3    3  503    0  0.44737106181E+02  0.44650353199E+02 -0.28894810211E+02  0.69656749618E+02  0.47000000000E+01 0. -1.
         -5    1    3    3    0  503 -0.33226504275E+02 -0.50908698062E+00 -0.14761298030E+03  0.15138012322E+03  0.47000000000E+01 0. -1.
<mgrwt>
<rscale>  0 0.13306326E+03</rscale>
<asrwt>0</asrwt>
<pdfrwt beam="2">  1        5 0.73258842E-01 0.13306768E+03</pdfrwt>
<pdfrwt beam="1">  1       -5 0.58803028E-02 0.13306768E+03</pdfrwt>
<totfact> 0.23485645E+02</totfact>
</mgrwt>
</event>
<event>
 8    1  0.1865596E-007  0.1946423E+03  0.7546771E-02  0.1154341E+00
         -5   -1    0    0    0  501 -0.00000000000E+00  0.00000000000E+00  0.64497692403E+02  0.64668712105E+02  0.47000000000E+01 0.  1.
          5   -1    0    0  501    0  0.00000000000E+00 -0.00000000000E+00 -0.66388278744E+03  0.66389942421E+03  0.47000000000E+01 0.  1.
         25    2    1    2    0    0  0.14913043292E+03 -0.45134627163E+01 -0.17528249583E+03  0.26193430892E+03  0.12500148589E+03 0.  0.
         25    2    1    2    0    0 -0.14913043292E+03  0.45134627163E+01 -0.42410259921E+03  0.46663382739E+03  0.12499542729E+03 0.  0.
          5    1    4    4  502    0 -0.24799673981E+02 -0.91545554869E+01 -0.25414238590E+03  0.25555678826E+03  0.47000000000E+01 0. -1.
         -5    1    4    4    0  502 -0.12433075894E+03  0.13668018203E+02 -0.16996021330E+03  0.21107703913E+03  0.47000000000E+01 0. -1.
          5    1    3    3  503    0  0.47397301160E+01 -0.18577431593E+02  0.13416074469E+02  0.23867699099E+02  0.47000000000E+01 0.  1.
         -5    1    3    3    0  503  0.14439070281E+03  0.14063968876E+02 -0.18869857030E+03  0.23806660982E+03  0.47000000000E+01 0.  1.
<mgrwt>
<rscale>  0 0.19464134E+03</rscale>
<asrwt>0</asrwt>
<pdfrwt beam="2">  1        5 0.10215024E+00 0.19464231E+03</pdfrwt>
<pdfrwt beam="1">  1       -5 0.99371575E-02 0.19464231E+03</pdfrwt>
<totfact> 0.48861404E+01</totfact>
</mgrwt>
</event>
<event>
 8    1  0.1865596E-007  0.1684488E+03  0.7546771E-02  0.1179478E+00
          5   -1    0    0  501    0  0.00000000000E+00  0.00000000000E+00  0.16607227476E+04  0.16607293983E+04  0.47000000000E+01 0.  1.
         -5   -1    0    0    0  501 -0.00000000000E+00 -0.00000000000E+00 -0.17840881740E+02  0.18449581601E+02  0.47000000000E+01 0.  1.
         25    2    1    2    0    0 -0.28795572099E+01  0.11285997089E+03  0.61790515621E+03  0.64045434650E+03  0.12501729082E+03 0.  0.
         25    2    1    2    0    0  0.28795572099E+01 -0.11285997089E+03  0.10249767096E+04  0.10387246334E+04  0.12500377529E+03 0.  0.
          5    1    4    4  502    0  0.17366097488E+02 -0.12228614609E+03  0.10019846559E+04  0.10095795281E+04  0.47000000000E+01 0.  1.
         -5    1    4    4    0  502 -0.14486540278E+02  0.94261751999E+01  0.22992053722E+02  0.29145105292E+02  0.47000000000E+01 0.  1.
          5    1    3    3  503    0  0.21406729942E+02 -0.56046816925E+01  0.29082348654E+03  0.29170198982E+03  0.47000000000E+01 0.  1.
         -5    1    3    3    0  503 -0.24286287152E+02  0.11846465258E+03  0.32708166967E+03  0.34875235668E+03  0.47000000000E+01 0.  1.
<mgrwt>
<rscale>  0 0.16844626E+03</rscale>
<asrwt>0</asrwt>
<pdfrwt beam="1">  1        5 0.25554327E+00 0.16844877E+03</pdfrwt>
<pdfrwt beam="2">  1       -5 0.27920843E-02 0.16844877E+03</pdfrwt>
<totfact> 0.27318913E+01</totfact>
</mgrwt>
</event>
<event>
 8    1  0.1865596E-007  0.1250510E+03  0.7546771E-02  0.1234990E+00
          5   -1    0    0  501    0  0.00000000000E+00  0.00000000000E+00  0.35424587079E+02  0.35735016017E+02  0.47000000000E+01 0. -1.
         -5   -1    0    0    0  501 -0.00000000000E+00 -0.00000000000E+00 -0.45273837538E+03  0.45276277072E+03  0.47000000000E+01 0. -1.
         25    2    1    2    0    0 -0.35303519661E+01 -0.19418219513E+00 -0.25090831078E+03  0.28034393743E+03  0.12500096696E+03 0.  0.
         25    2    1    2    0    0  0.35303519661E+01  0.19418219513E+00 -0.16640547752E+03  0.20815384930E+03  0.12499896375E+03 0.  0.
          5    1    4    4  502    0  0.10491676885E+02 -0.43590477383E+02 -0.10894994678E+02  0.46378830423E+02  0.47000000000E+01 0.  1.
         -5    1    4    4    0  502 -0.69613249189E+01  0.43784659579E+02 -0.15551048285E+03  0.16177501888E+03  0.47000000000E+01 0.  1.
          5    1    3    3  503    0  0.50644840001E+02  0.36392237571E+01 -0.19768923798E+03  0.20415990934E+03  0.47000000000E+01 0. -1.
         -5    1    3    3    0  503 -0.54175191967E+02 -0.38334059522E+01 -0.53219072798E+02  0.76184028086E+02  0.47000000000E+01 0. -1.
<mgrwt>
<rscale>  0 0.12505046E+03</rscale>
<asrwt>0</asrwt>
<pdfrwt beam="1">  1        5 0.54756925E-02 0.12505096E+03</pdfrwt>
<pdfrwt beam="2">  1       -5 0.69677809E-01 0.12505096E+03</pdfrwt>
<totfact> 0.28978041E+02</totfact>
</mgrwt>
</event>
<event>
 8    1  0.1865596E-007  0.1350664E+03  0.7546771E-02  0.1220128E+00
         -5   -1    0    0    0  501 -0.00000000000E+00  0.00000000000E+00  0.34548329983E+03  0.34551526806E+03  0.47000000000E+01 0. -1.
          5   -1    0    0  501    0  0.00000000000E+00 -0.00000000000E+00 -0.55065254190E+02  0.55265470404E+02  0.47000000000E+01 0. -1.
         25    2    1    2    0    0  0.48568844550E+02  0.16063827504E+02  0.18697370389E+03  0.23065235409E+03  0.12499745313E+03 0.  0.
         25    2    1    2    0    0 -0.48568844550E+02 -0.16063827504E+02  0.10344434175E+03  0.17012838437E+03  0.12500382439E+03 0.  0.
          5    1    4    4  502    0 -0.65678354619E+02  0.28697339847E+02  0.21312616918E+02  0.74923302248E+02  0.47000000000E+01 0. -1.
         -5    1    4    4    0  502  0.17109510069E+02 -0.44761167351E+02  0.82131724834E+02  0.95205082120E+02  0.47000000000E+01 0. -1.
          5    1    3    3  503    0  0.79785437651E+02  0.50642071129E+00  0.17678591753E+03  0.19401371900E+03  0.47000000000E+01 0. -1.
         -5    1    3    3    0  503 -0.31216593101E+02  0.15557406792E+02  0.10187786362E+02  0.36638635099E+02  0.47000000000E+01 0. -1.
<mgrwt>
<rscale>  0 0.13506494E+03</rscale>
<asrwt>0</asrwt>
<pdfrwt beam="2">  1        5 0.84894381E-02 0.13506641E+03</pdfrwt>
<pdfrwt beam="1">  1       -5 0.53169136E-01 0.13506641E+03</pdfrwt>
<totfact> 0.25637182E+02</totfact>
</mgrwt>
</event>
<event>
 8    1  0.1865596E-007  0.1518652E+03  0.7546771E-02  0.1198200E+00
         -5   -1    0    0    0  501 -0.00000000000E+00  0.00000000000E+00  0.54247473464E+03  0.54249509465E+03  0.47000000000E+01 0.  1.
          5   -1    0    0  501    0  0.00000000000E+00 -0.00000000000E+00 -0.46845564472E+02  0.47080748833E+02  0.47000000000E+01 0.  1.
         25    2    1    2    0    0  0.62636893687E+02  0.59283661965E+02  0.33874695143E+03  0.37123110112E+03  0.12500040123E+03 0.  0.
         25    2    1    2    0    0 -0.62636893687E+02 -0.59283661965E+02  0.15688221873E+03  0.21834474236E+03  0.12499785172E+03 0.  0.
          5    1    4    4  502    0 -0.68906179650E+02 -0.34350371905E+02  0.20961700473E+02  0.79934301340E+02  0.47000000000E+01 0. -1.
         -5    1    4    4    0  502  0.62692859632E+01 -0.24933290061E+02  0.13592051826E+03  0.13841044102E+03  0.47000000000E+01 0. -1.
          5    1    3    3  503    0  0.34053375827E+02  0.33849049804E+02  0.32755713524E+03  0.33109085977E+03  0.47000000000E+01 0.  1.
         -5    1    3    3    0  503  0.28583517860E+02  0.25434612162E+02  0.11189816191E+02  0.40140241348E+02  0.47000000000E+01 0.  1.
<mgrwt>
<rscale>  0 0.15186466E+03</rscale>
<asrwt>0</asrwt>
<pdfrwt beam="2">  1        5 0.72266672E-02 0.15186518E+03</pdfrwt>
<pdfrwt beam="1">  1       -5 0.83477308E-01 0.15186518E+03</pdfrwt>
<totfact> 0.12808284E+02</totfact>
</mgrwt>
</event>
<event>
 8    1  0.1865596E-007  0.1482815E+03  0.7546771E-02  0.1202604E+00
         -5   -1    0    0    0  501 -0.00000000000E+00  0.00000000000E+00  0.46056066297E+02  0.46295261558E+02  0.47000000000E+01 0. -1.
          5   -1    0    0  501    0  0.00000000000E+00 -0.00000000000E+00 -0.49111993568E+03  0.49114242458E+03  0.47000000000E+01 0. -1.
         25    2    1    2    0    0 -0.78907330215E+02 -0.11521857014E+02 -0.17522185654E+03  0.22954323887E+03  0.12501311751E+03 0.  0.
         25    2    1    2    0    0  0.78907330215E+02  0.11521857014E+02 -0.26984201284E+03  0.30789444727E+03  0.12500063526E+03 0.  0.
          5    1    4    4  502    0  0.22505495294E+00 -0.21580935737E+02 -0.18882567076E+03  0.19011315414E+03  0.47000000000E+01 0. -1.
         -5    1    4    4    0  502  0.78682275262E+02  0.33102792750E+02 -0.81016342073E+02  0.11778129313E+03  0.47000000000E+01 0. -1.
          5    1    3    3  503    0 -0.18518967520E+02  0.52884918554E+02 -0.93722806472E+02  0.10929694059E+03  0.47000000000E+01 0.  1.
         -5    1    3    3    0  503 -0.60388362695E+02 -0.64406775568E+02 -0.81499050072E+02  0.12024629828E+03  0.47000000000E+01 0.  1.
<mgrwt>
<rscale>  0 0.14827886E+03</rscale>
<asrwt>0</asrwt>
<pdfrwt beam="2">  1        5 0.75577039E-01 0.14828149E+03</pdfrwt>
<pdfrwt beam="1">  1       -5 0.71056785E-02 0.14828149E+03</pdfrwt>
<totfact> 0.16466216E+02</totfact>
</mgrwt>
</event>
<event>
 8    1  0.1865596E-007  0.1353986E+03  0.7546771E-02  0.1219683E+00
          5   -1    0    0  501    0  0.00000000000E+00  0.00000000000E+00  0.38431443551E+02  0.38717771803E+02  0.47000000000E+01 0. -1.
         -5   -1    0    0    0  501 -0.00000000000E+00 -0.00000000000E+00 -0.48223977051E+03  0.48226267351E+03  0.47000000000E+01 0. -1.
         25    2    1    2    0    0 -0.45735503879E+02 -0.24432865232E+02 -0.25438364643E+03  0.28814036644E+03  0.12500051993E+03 0.  0.
         25    2    1    2    0    0  0.45735503879E+02  0.24432865232E+02 -0.18942468052E+03  0.23284007887E+03  0.12507634276E+03 0.  0.
          5    1    3    3  502    0  0.18750977945E+02 -0.36389968128E+02 -0.19575381285E+03  0.20004368073E+03  0.47000000000E+01 0. -1.
         -5    1    3    3    0  502 -0.64486481824E+02  0.11957102896E+02 -0.58629833582E+02  0.88096685712E+02  0.47000000000E+01 0. -1.
          5    1    4    4  503    0  0.19951820379E+02  0.79143006542E+01  0.14662010273E+02  0.26415446930E+02  0.47000000000E+01 0.  1.
         -5    1    4    4    0  503  0.25783683500E+02  0.16518564578E+02 -0.20408669080E+03  0.20642463194E+03  0.47000000000E+01 0.  1.
<mgrwt>
<rscale>  0 0.13538113E+03</rscale>
<asrwt>0</asrwt>
<pdfrwt beam="1">  1        5 0.59363171E-02 0.13539864E+03</pdfrwt>
<pdfrwt beam="2">  1       -5 0.74214517E-01 0.13539864E+03</pdfrwt>
<totfact> 0.22575092E+02</totfact>
</mgrwt>
</event>
<event>
 8    1  0.1865596E-007  0.1255484E+03  0.7546771E-02  0.1234215E+00
          5   -1    0    0  501    0  0.00000000000E+00  0.00000000000E+00  0.33767381761E+03  0.33770652510E+03  0.47000000000E+01 0.  1.
         -5   -1    0    0    0  501 -0.00000000000E+00 -0.00000000000E+00 -0.53145738645E+02  0.53353158633E+02  0.47000000000E+01 0.  1.
         25    2    1    2    0    0 -0.72595086393E+01 -0.91748769499E+01  0.73419536169E+02  0.14544014478E+03  0.12500211434E+03 0.  0.
         25    2    1    2    0    0  0.72595086393E+01  0.91748769499E+01  0.21110854279E+03  0.24561953896E+03  0.12500104897E+03 0.  0.
          5    1    3    3  502    0  0.40598221374E+02 -0.33332187716E+02 -0.20155116309E+01  0.52776913550E+02  0.47000000000E+01 0. -1.
         -5    1    3    3    0  502 -0.47857730014E+02  0.24157310766E+02  0.75435047800E+02  0.92663231230E+02  0.47000000000E+01 0. -1.
          5    1    4    4  503    0 -0.49914833993E+02 -0.69348679569E+01  0.15762225621E+03  0.16554893144E+03  0.47000000000E+01 0. -1.
         -5    1    4    4    0  503  0.57174342633E+02  0.16109744907E+02  0.53486286580E+02  0.80070607519E+02  0.47000000000E+01 0. -1.
<mgrwt>
<rscale>  0 0.12554816E+03</rscale>
<asrwt>0</asrwt>
<pdfrwt beam="1">  1        5 0.51968289E-01 0.12554843E+03</pdfrwt>
<pdfrwt beam="2">  1       -5 0.81947389E-02 0.12554843E+03</pdfrwt>
<totfact> 0.27868456E+02</totfact>
</mgrwt>
</event>
<event>
 8    1  0.1865596E-007  0.1371675E+03  0.7546771E-02  0.1217200E+00
         -5   -1    0    0    0  501 -0.00000000000E+00  0.00000000000E+00  0.63480299814E+02  0.63654053009E+02  0.47000000000E+01 0.  1.
          5   -1    0    0  501    0  0.00000000000E+00 -0.00000000000E+00 -0.33429066333E+03  0.33432370181E+03  0.47000000000E+01 0.  1.
         25    2    1    2    0    0 -0.56392219401E+02  0.86441636594E+00 -0.67846042963E+02  0.15300949453E+03  0.12501196041E+03 0.  0.
         25    2    1    2    0    0  0.56392219401E+02 -0.86441636594E+00 -0.20296432055E+03  0.24496826029E+03  0.12503640872E+03 0.  0.
          5    1    4    4  502    0 -0.39867737070E+02  0.14092607898E+01 -0.70476541535E+02  0.81120006051E+02  0.47000000000E+01 0.  1.
         -5    1    4    4    0  502  0.96259956470E+02 -0.22736771557E+01 -0.13248777902E+03  0.16384825424E+03  0.47000000000E+01 0.  1.
          5    1    3    3  503    0 -0.90346543528E+02 -0.62437361959E+01 -0.74516420622E+02  0.11737235242E+03  0.47000000000E+01 0. -1.
         -5    1    3    3    0  503  0.33954324127E+02  0.71081525618E+01  0.66703776592E+01  0.35637142112E+02  0.47000000000E+01 0. -1.
<mgrwt>
<rscale>  0 0.13716196E+03</rscale>
<asrwt>0</asrwt>
<pdfrwt beam="2">  1        5 0.51445239E-01 0.13716754E+03</pdfrwt>
<pdfrwt beam="1">  1       -5 0.97821072E-02 0.13716754E+03</pdfrwt>
<totfact> 0.21632346E+02</totfact>
</mgrwt>
</event>
<event>
 8    1  0.1865596E-007  0.1337721E+03  0.7546771E-02  0.1221965E+00
          5   -1    0    0  501    0  0.00000000000E+00  0.00000000000E+00  0.54597086615E+02  0.54799013375E+02  0.47000000000E+01 0.  1.
         -5   -1    0    0    0  501 -0.00000000000E+00 -0.00000000000E+00 -0.32695818283E+03  0.32699196216E+03  0.47000000000E+01 0.  1.
         25    2    1    2    0    0  0.47392675152E+02  0.49635158557E+01 -0.13437759270E+03  0.18961093865E+03  0.12499707392E+03 0.  0.
         25    2    1    2    0    0 -0.47392675152E+02 -0.49635158557E+01 -0.13798350352E+03  0.19218003689E+03  0.12499206850E+03 0.  0.
          5    1    3    3  502    0  0.88157119287E+02  0.14137307701E+02 -0.10699638887E+03  0.13943406464E+03  0.47000000000E+01 0. -1.
         -5    1    3    3    0  502 -0.40764444134E+02 -0.91737918449E+01 -0.27381203822E+02  0.50176874008E+02  0.47000000000E+01 0. -1.
          5    1    4    4  503    0 -0.43587103662E+01 -0.27232490194E+02 -0.14066912746E+03  0.14342419704E+03  0.47000000000E+01 0.  1.
         -5    1    4    4    0  503 -0.43033964786E+02  0.22268974339E+02  0.26856239373E+01  0.48755839847E+02  0.47000000000E+01 0.  1.
<mgrwt>
<rscale>  0 0.13377092E+03</rscale>
<asrwt>0</asrwt>
<pdfrwt beam="1">  1        5 0.84176832E-02 0.13377208E+03</pdfrwt>
<pdfrwt beam="2">  1       -5 0.50319389E-01 0.13377208E+03</pdfrwt>
<totfact> 0.29158274E+02</totfact>
</mgrwt>
</event>
<event>
 8    1  0.1865596E-007  0.1993508E+03  0.7546771E-02  0.1150289E+00
          5   -1    0    0  501    0  0.00000000000E+00  0.00000000000E+00  0.39300066672E+03  0.39302876999E+03  0.47000000000E+01 0. -1.
         -5   -1    0    0    0  501 -0.00000000000E+00 -0.00000000000E+00 -0.10677784160E+03  0.10688123061E+03  0.47000000000E+01 0. -1.
         25    2    1    2    0    0 -0.14959349877E+03 -0.41677211346E+02  0.85173663045E+02  0.21678395634E+03  0.12500210410E+03 0.  0.
         25    2    1    2    0    0  0.14959349877E+03  0.41677211346E+02  0.20104916207E+03  0.28312604427E+03  0.12499754620E+03 0.  0.
          5    1    4    4  502    0  0.82062175383E+02 -0.36795026140E+02  0.12727308842E+03  0.15591216634E+03  0.47000000000E+01 0.  1.
         -5    1    4    4    0  502  0.67531323384E+02  0.78472237486E+02  0.73776073646E+02  0.12721387792E+03  0.47000000000E+01 0.  1.
          5    1    3    3  503    0 -0.47832494123E+02  0.44577011095E+01 -0.29531922864E+02  0.56586597894E+02  0.47000000000E+01 0.  1.
         -5    1    3    3    0  503 -0.10176100464E+03 -0.46134912455E+02  0.11470558591E+03  0.16019735844E+03  0.47000000000E+01 0.  1.
<mgrwt>
<rscale>  0 0.19935006E+03</rscale>
<asrwt>0</asrwt>
<pdfrwt beam="1">  1        5 0.60471756E-01 0.19935077E+03</pdfrwt>
<pdfrwt beam="2">  1       -5 0.16437475E-01 0.19935077E+03</pdfrwt>
<totfact> 0.67469596E+01</totfact>
</mgrwt>
</event>
<event>
 8    1  0.1865596E-007  0.1371439E+03  0.7546771E-02  0.1217226E+00
         -5   -1    0    0    0  501 -0.00000000000E+00  0.00000000000E+00  0.61822384890E+02  0.62000784459E+02  0.47000000000E+01 0.  1.
          5   -1    0    0  501    0  0.00000000000E+00 -0.00000000000E+00 -0.30565591889E+03  0.30569205216E+03  0.47000000000E+01 0.  1.
         25    2    1    2    0    0 -0.55157190998E+01  0.56155086325E+02 -0.10680067635E+03  0.17382057339E+03  0.12499356138E+03 0.  0.
         25    2    1    2    0    0  0.55157190998E+01 -0.56155086325E+02 -0.13703285765E+03  0.19387226323E+03  0.12499853398E+03 0.  0.
          5    1    3    3  502    0  0.46301275424E+02  0.59724957414E+02 -0.92900877646E+02  0.11984799419E+03  0.47000000000E+01 0.  1.
         -5    1    3    3    0  502 -0.51816994524E+02 -0.35698710895E+01 -0.13899798709E+02  0.53972579198E+02  0.47000000000E+01 0.  1.
          5    1    4    4  503    0  0.14002996432E+02 -0.10781336333E+02 -0.14555288043E+03  0.14669714423E+03  0.47000000000E+01 0. -1.
         -5    1    4    4    0  503 -0.84872773319E+01 -0.45373749991E+02  0.85200227848E+01  0.47175119004E+02  0.47000000000E+01 0. -1.
<mgrwt>
<rscale>  0 0.13714277E+03</rscale>
<asrwt>0</asrwt>
<pdfrwt beam="2">  1        5 0.47040489E-01 0.13714390E+03</pdfrwt>
<pdfrwt beam="1">  1       -5 0.95276389E-02 0.13714390E+03</pdfrwt>
<totfact> 0.27362987E+02</totfact>
</mgrwt>
</event>
<event>
 8    1  0.1865596E-007  0.1418700E+03  0.7546771E-02  0.1210836E+00
          5   -1    0    0  501    0  0.00000000000E+00  0.00000000000E+00  0.47083452484E+03  0.47085798260E+03  0.47000000000E+01 0. -1.
         -5   -1    0    0    0  501 -0.00000000000E+00 -0.00000000000E+00 -0.57076630588E+02  0.57269815429E+02  0.47000000000E+01 0. -1.
         25    2    1    2    0    0 -0.42613469254E+02  0.51827356180E+02  0.74148575356E+02  0.16007844921E+03  0.12500046426E+03 0.  0.
         25    2    1    2    0    0  0.42613469254E+02 -0.51827356180E+02  0.33960931889E+03  0.36804934882E+03  0.12499540422E+03 0.  0.
          5    1    4    4  502    0  0.55678936521E+02 -0.62813023565E+02  0.34010056704E+03  0.35033713135E+03  0.47000000000E+01 0. -1.
         -5    1    4    4    0  502 -0.13065467267E+02  0.10985667385E+02 -0.49124814988E+00  0.17712217465E+02  0.47000000000E+01 0. -1.
          5    1    3    3  503    0  0.22820269455E+02  0.33360622524E+01  0.74884706033E+02  0.78496517165E+02  0.47000000000E+01 0.  1.
         -5    1    3    3    0  503 -0.65433738709E+02  0.48491293927E+02 -0.73613067711E+00  0.81581932047E+02  0.47000000000E+01 0.  1.
<mgrwt>
<rscale>  0 0.14186889E+03</rscale>
<asrwt>0</asrwt>
<pdfrwt beam="1">  1        5 0.72452744E-01 0.14187001E+03</pdfrwt>
<pdfrwt beam="2">  1       -5 0.87976851E-02 0.14187001E+03</pdfrwt>
<totfact> 0.12391471E+02</totfact>
</mgrwt>
</event>
<event>
 8    1  0.1865596E-007  0.1307566E+03  0.7546771E-02  0.1226339E+00
         -5   -1    0    0    0  501 -0.00000000000E+00  0.00000000000E+00  0.45911693606E+02  0.46151637130E+02  0.47000000000E+01 0. -1.
          5   -1    0    0  501    0  0.00000000000E+00 -0.00000000000E+00 -0.37117856429E+03  0.37120831966E+03  0.47000000000E+01 0. -1.
         25    2    1    2    0    0 -0.37334853538E+02 -0.87918355366E+01 -0.16432700789E+03  0.21000156836E+03  0.12500442205E+03 0.  0.
         25    2    1    2    0    0  0.37334853538E+02  0.87918355366E+01 -0.16093986280E+03  0.20735838843E+03  0.12499869661E+03 0.  0.
          5    1    3    3  502    0 -0.33069807980E+02 -0.64876462338E+02 -0.10733666242E+03  0.12979143526E+03  0.47000000000E+01 0.  1.
         -5    1    3    3    0  502 -0.42650455576E+01  0.56084626801E+02 -0.56990345463E+02  0.80210133107E+02  0.47000000000E+01 0.  1.
          5    1    4    4  503    0 -0.25807594576E+02  0.33335541465E+02 -0.12180762753E+03  0.12898247318E+03  0.47000000000E+01 0.  1.
         -5    1    4    4    0  503  0.63142448113E+02 -0.24543705928E+02 -0.39132235260E+02  0.78375915248E+02  0.47000000000E+01 0.  1.
<mgrwt>
<rscale>  0 0.13075525E+03</rscale>
<asrwt>0</asrwt>
<pdfrwt beam="2">  1        5 0.57125139E-01 0.13075662E+03</pdfrwt>
<pdfrwt beam="1">  1       -5 0.70840838E-02 0.13075662E+03</pdfrwt>
<totfact> 0.29593765E+02</totfact>
</mgrwt>
</event>
<event>
 8    1  0.1865596E-007  0.2256215E+03  0.7546771E-02  0.1129760E+00
         -5   -1    0    0    0  501 -0.00000000000E+00  0.00000000000E+00  0.12303446153E+03  0.12312420040E+03  0.47000000000E+01 0. -1.
          5   -1    0    0  501    0  0.00000000000E+00 -0.00000000000E+00 -0.41526486138E+03  0.41529145802E+03  0.47000000000E+01 0. -1.
         25    2    1    2    0    0  0.87878478390E+02 -0.16600485782E+03 -0.12852191397E+03  0.25965925155E+03  0.12499921905E+03 0.  0.
         25    2    1    2    0    0 -0.87878478390E+02  0.16600485782E+03 -0.16370848588E+03  0.27875640686E+03  0.12499770490E+03 0.  0.
          5    1    4    4  502    0 -0.96084818933E+01  0.13214955980E+02 -0.90474618899E+02  0.92058159067E+02  0.47000000000E+01 0.  1.
         -5    1    4    4    0  502 -0.78269996497E+02  0.15278990184E+03 -0.73233866984E+02  0.18669824779E+03  0.47000000000E+01 0.  1.
          5    1    3    3  503    0 -0.11557232597E+02 -0.56961417359E+02  0.76408542171E+01  0.58810248648E+02  0.47000000000E+01 0. -1.
         -5    1    3    3    0  503  0.99435710987E+02 -0.10904344046E+03 -0.13616276819E+03  0.20084900290E+03  0.47000000000E+01 0. -1.
<mgrwt>
<rscale>  0 0.22562125E+03</rscale>
<asrwt>0</asrwt>
<pdfrwt beam="2">  1        5 0.63895850E-01 0.22562146E+03</pdfrwt>
<pdfrwt beam="1">  1       -5 0.18937328E-01 0.22562146E+03</pdfrwt>
<totfact> 0.47401253E+01</totfact>
</mgrwt>
</event>
<event>
 8    1  0.1865596E-007  0.1471458E+03  0.7546771E-02  0.1204025E+00
          5   -1    0    0  501    0  0.00000000000E+00  0.00000000000E+00  0.92467050042E+03  0.92468244514E+03  0.47000000000E+01 0.  1.
         -5   -1    0    0    0  501 -0.00000000000E+00 -0.00000000000E+00 -0.23172656694E+02  0.23644492345E+02  0.47000000000E+01 0.  1.
         25    2    1    2    0    0 -0.52507217962E+02 -0.57178266930E+02  0.44377858973E+03  0.46753750394E+03  0.12500207494E+03 0.  0.
         25    2    1    2    0    0  0.52507217962E+02  0.57178266930E+02  0.45771925400E+03  0.48078943355E+03  0.12500080713E+03 0.  0.
          5    1    4    4  502    0  0.62836286015E+02  0.26413504897E+02  0.97362112471E+02  0.11894344465E+03  0.47000000000E+01 0. -1.
         -5    1    4    4    0  502 -0.10329068054E+02  0.30764762033E+02  0.36035714153E+03  0.36184598890E+03  0.47000000000E+01 0. -1.
          5    1    3    3  503    0 -0.90293585400E+02 -0.28011447866E+02  0.23557337935E+03  0.25387886843E+03  0.47000000000E+01 0. -1.
         -5    1    3    3    0  503  0.37786367438E+02 -0.29166819064E+02  0.20820521037E+03  0.21365863550E+03  0.47000000000E+01 0. -1.
<mgrwt>
<rscale>  0 0.14714551E+03</rscale>
<asrwt>0</asrwt>
<pdfrwt beam="1">  1        5 0.14229420E+00 0.14714578E+03</pdfrwt>
<pdfrwt beam="2">  1       -5 0.36022383E-02 0.14714578E+03</pdfrwt>
<totfact> 0.10692582E+02</totfact>
</mgrwt>
</event>
<event>
 8    1  0.1865596E-007  0.1553550E+03  0.7546771E-02  0.1194046E+00
          5   -1    0    0  501    0  0.00000000000E+00  0.00000000000E+00  0.12709549657E+03  0.12718237004E+03  0.47000000000E+01 0.  1.
         -5   -1    0    0    0  501 -0.00000000000E+00 -0.00000000000E+00 -0.19330744696E+03  0.19336457547E+03  0.47000000000E+01 0.  1.
         25    2    1    2    0    0 -0.61810508662E+02  0.68476552475E+02 -0.54973146407E+02  0.16478595579E+03  0.12499114841E+03 0.  0.
         25    2    1    2    0    0  0.61810508662E+02 -0.68476552475E+02 -0.11238803978E+02  0.15576098972E+03  0.12500239191E+03 0.  0.
          5    1    4    4  502    0  0.12594402708E+02 -0.12446497173E+02  0.53714571301E+02  0.56752792368E+02  0.47000000000E+01 0.  1.
         -5    1    4    4    0  502  0.49216105954E+02 -0.56030055302E+02 -0.64953375280E+02  0.99008197351E+02  0.47000000000E+01 0.  1.
          5    1    3    3  503    0  0.13457241805E+02 -0.27634184161E+02 -0.22489922703E+02  0.38374889113E+02  0.47000000000E+01 0. -1.
         -5    1    3    3    0  503 -0.75267750466E+02  0.96110736637E+02 -0.32483223704E+02  0.12641106668E+03  0.47000000000E+01 0. -1.
<mgrwt>
<rscale>  0 0.15535274E+03</rscale>
<asrwt>0</asrwt>
<pdfrwt beam="1">  1        5 0.19564231E-01 0.15535500E+03</pdfrwt>
<pdfrwt beam="2">  1       -5 0.29750684E-01 0.15535500E+03</pdfrwt>
<totfact> 0.19818852E+02</totfact>
</mgrwt>
</event>
<event>
 8    1  0.1865596E-007  0.1692115E+03  0.7546771E-02  0.1178675E+00
         -5   -1    0    0    0  501 -0.00000000000E+00  0.00000000000E+00  0.21421993252E+03  0.21427148547E+03  0.47000000000E+01 0. -1.
          5   -1    0    0  501    0  0.00000000000E+00 -0.00000000000E+00 -0.29946667274E+03  0.29950355271E+03  0.47000000000E+01 0. -1.
         25    2    1    2    0    0 -0.99183810992E+02  0.56286804031E+02  0.14855655272E+03  0.22516371551E+03  0.12499606695E+03 0.  0.
         25    2    1    2    0    0  0.99183810992E+02 -0.56286804031E+02 -0.23380329295E+03  0.28861132267E+03  0.12500753220E+03 0.  0.
          5    1    3    3  502    0 -0.44633368483E+02  0.73012391939E+02  0.25459468387E+02  0.89404818043E+02  0.47000000000E+01 0. -1.
         -5    1    3    3    0  502 -0.54550442508E+02 -0.16725587908E+02  0.12309708434E+03  0.13575889747E+03  0.47000000000E+01 0. -1.
          5    1    4    4  503    0  0.31445420871E+02 -0.57149186781E+02 -0.20440874177E+03  0.21461562793E+03  0.47000000000E+01 0.  1.
         -5    1    4    4    0  503  0.67738390120E+02  0.86238275010E+00 -0.29394551188E+02  0.73995694737E+02  0.47000000000E+01 0.  1.
<mgrwt>
<rscale>  0 0.16920934E+03</rscale>
<asrwt>0</asrwt>
<pdfrwt beam="2">  1        5 0.46078598E-01 0.16921145E+03</pdfrwt>
<pdfrwt beam="1">  1       -5 0.32963715E-01 0.16921145E+03</pdfrwt>
<totfact> 0.30613309E+01</totfact>
</mgrwt>
</event>
<event>
 8    1  0.1865596E-007  0.1425415E+03  0.7546771E-02  0.1209950E+00
         -5   -1    0    0    0  501 -0.00000000000E+00  0.00000000000E+00  0.74563403098E+03  0.74564884373E+03  0.47000000000E+01 0. -1.
          5   -1    0    0  501    0  0.00000000000E+00 -0.00000000000E+00 -0.48292209635E+02  0.48520382433E+02  0.47000000000E+01 0. -1.
         25    2    1    2    0    0  0.56131576666E+02 -0.39261692702E+02  0.61124636367E+03  0.62764654818E+03  0.12500335167E+03 0.  0.
         25    2    1    2    0    0 -0.56131576666E+02  0.39261692702E+02  0.86095457674E+02  0.16652267798E+03  0.12500056015E+03 0.  0.
          5    1    4    4  502    0 -0.20515507802E+02  0.77562241791E+02  0.80438381320E+02  0.11370668670E+03  0.47000000000E+01 0.  1.
         -5    1    4    4    0  502 -0.35616068864E+02 -0.38300549088E+02  0.56570763539E+01  0.52815991278E+02  0.47000000000E+01 0.  1.
          5    1    3    3  503    0  0.53956219850E+02 -0.79963435805E+02  0.49597566875E+03  0.50529138002E+03  0.47000000000E+01 0.  1.
         -5    1    3    3    0  503  0.21753568160E+01  0.40701743102E+02  0.11527069492E+03  0.12235516816E+03  0.47000000000E+01 0.  1.
<mgrwt>
<rscale>  0 0.14254086E+03</rscale>
<asrwt>0</asrwt>
<pdfrwt beam="2">  1        5 0.74482611E-02 0.14254148E+03</pdfrwt>
<pdfrwt beam="1">  1       -5 0.11473163E+00 0.14254148E+03</pdfrwt>
<totfact> 0.55165258E+01</totfact>
</mgrwt>
</event>
<event>
 8    1  0.1865596E-007  0.1273427E+03  0.7546771E-02  0.1231474E+00
          5   -1    0    0  501    0  0.00000000000E+00  0.00000000000E+00  0.46704105230E+02  0.46939998353E+02  0.47000000000E+01 0. -1.
         -5   -1    0    0    0  501 -0.00000000000E+00 -0.00000000000E+00 -0.34863506081E+03  0.34866674006E+03  0.47000000000E+01 0. -1.
         25    2    1    2    0    0  0.13894005646E+02  0.19937883999E+02 -0.13353104783E+03  0.18447952724E+03  0.12494635900E+03 0.  0.
         25    2    1    2    0    0 -0.13894005646E+02 -0.19937883999E+02 -0.16839990775E+03  0.21112721117E+03  0.12500243100E+03 0.  0.
          5    1    3    3  502    0 -0.10828477423E+02  0.53985119317E+02 -0.13086908743E+03  0.14205793563E+03  0.47000000000E+01 0.  1.
         -5    1    3    3    0  502  0.24722483069E+02 -0.34047235318E+02 -0.26619603998E+01  0.42421591614E+02  0.47000000000E+01 0.  1.
          5    1    4    4  503    0 -0.28331062276E+02 -0.22521445310E+01  0.10541071684E+02  0.30674507933E+02  0.47000000000E+01 0. -1.
         -5    1    4    4    0  503  0.14437056631E+02 -0.17685739468E+02 -0.17894097944E+03  0.18045270324E+03  0.47000000000E+01 0. -1.
<mgrwt>
<rscale>  0 0.12732897E+03</rscale>
<asrwt>0</asrwt>
<pdfrwt beam="1">  1        5 0.72058297E-02 0.12734273E+03</pdfrwt>
<pdfrwt beam="2">  1       -5 0.53656744E-01 0.12734273E+03</pdfrwt>
<totfact> 0.32587060E+02</totfact>
</mgrwt>
</event>
<event>
 8    1  0.1865596E-007  0.1326466E+03  0.7546771E-02  0.1223581E+00
         -5   -1    0    0    0  501 -0.00000000000E+00  0.00000000000E+00  0.17664686129E+03  0.17670937611E+03  0.47000000000E+01 0. -1.
          5   -1    0    0  501    0  0.00000000000E+00 -0.00000000000E+00 -0.11737673983E+03  0.11747080085E+03  0.47000000000E+01 0. -1.
         25    2    1    2    0    0 -0.13993667429E+02 -0.42125474194E+02  0.87046706053E+02  0.15865653523E+03  0.12499755531E+03 0.  0.
         25    2    1    2    0    0  0.13993667429E+02  0.42125474194E+02 -0.27776584588E+02  0.13552364172E+03  0.12499896204E+03 0.  0.
          5    1    4    4  502    0 -0.50346734463E+02  0.38048658296E+02  0.41712738527E+01  0.63419110643E+02  0.47000000000E+01 0.  1.
         -5    1    4    4    0  502  0.64340401892E+02  0.40768158974E+01 -0.31947858441E+02  0.72104531081E+02  0.47000000000E+01 0.  1.
          5    1    3    3  503    0 -0.18222610910E+02 -0.32717465039E+02 -0.25493629295E+02  0.45546802321E+02  0.47000000000E+01 0.  1.
         -5    1    3    3    0  503  0.42289434806E+01 -0.94080091543E+01  0.11254033535E+03  0.11310973291E+03  0.47000000000E+01 0.  1.
<mgrwt>
<rscale>  0 0.13264626E+03</rscale>
<asrwt>0</asrwt>
<pdfrwt beam="2">  1        5 0.18070004E-01 0.13264659E+03</pdfrwt>
<pdfrwt beam="1">  1       -5 0.27188485E-01 0.13264659E+03</pdfrwt>
<totfact> 0.25964206E+02</totfact>
</mgrwt>
</event>
<event>
 8    1  0.1865596E-007  0.1269057E+03  0.7546771E-02  0.1232130E+00
          5   -1    0    0  501    0  0.00000000000E+00  0.00000000000E+00  0.53329992121E+03  0.53332063148E+03  0.47000000000E+01 0.  1.
         -5   -1    0    0    0  501 -0.00000000000E+00 -0.00000000000E+00 -0.34080122591E+02  0.34402685300E+02  0.47000000000E+01 0.  1.
         25    2    1    2    0    0  0.25286623962E+01 -0.21717443684E+02  0.15180178275E+03  0.19786063959E+03  0.12500803957E+03 0.  0.
         25    2    1    2    0    0 -0.25286623962E+01  0.21717443684E+02  0.34741801587E+03  0.36986267720E+03  0.12498432196E+03 0.  0.
          5    1    4    4  502    0 -0.16790811017E+02 -0.15091933866E+02  0.32167594731E+03  0.32250147733E+03  0.47000000000E+01 0. -1.
         -5    1    4    4    0  502  0.14262148621E+02  0.36809377550E+02  0.25742068564E+02  0.47361199868E+02  0.47000000000E+01 0. -1.
          5    1    3    3  503    0 -0.60714814535E+02 -0.90438910792E+01  0.84197558047E+02  0.10430435969E+03  0.47000000000E+01 0.  1.
         -5    1    3    3    0  503  0.63243476931E+02 -0.12673552605E+02  0.67604224702E+02  0.93556279894E+02  0.47000000000E+01 0.  1.
<mgrwt>
<rscale>  0 0.12689984E+03</rscale>
<asrwt>0</asrwt>
<pdfrwt beam="1">  1        5 0.82072556E-01 0.12690568E+03</pdfrwt>
<pdfrwt beam="2">  1       -5 0.52695008E-02 0.12690568E+03</pdfrwt>
<totfact> 0.21369320E+02</totfact>
</mgrwt>
</event>
<event>
 8    1  0.1865596E-007  0.1259092E+03  0.7546771E-02  0.1233656E+00
          5   -1    0    0  501    0  0.00000000000E+00  0.00000000000E+00  0.99346089737E+02  0.99457204596E+02  0.47000000000E+01 0. -1.
         -5   -1    0    0    0  501 -0.00000000000E+00 -0.00000000000E+00 -0.15946927267E+03  0.15953851862E+03  0.47000000000E+01 0. -1.
         25    2    1    2    0    0 -0.14974848130E+01  0.15019293882E+02 -0.33795353607E+02  0.13036334850E+03  0.12499862022E+03 0.  0.
         25    2    1    2    0    0  0.14974848130E+01 -0.15019293882E+02 -0.26327829322E+02  0.12863237472E+03  0.12500124631E+03 0.  0.
          5    1    4    4  502    0  0.17635614302E+02 -0.48785335445E+02  0.30549261039E+02  0.60385190207E+02  0.47000000000E+01 0. -1.
         -5    1    4    4    0  502 -0.16138129489E+02  0.33766041563E+02 -0.56877090361E+02  0.68247184515E+02  0.47000000000E+01 0. -1.
          5    1    3    3  503    0 -0.62660061763E+02  0.11190168049E+02 -0.23670731884E+02  0.68072731317E+02  0.47000000000E+01 0.  1.
         -5    1    3    3    0  503  0.61162576950E+02  0.38291258337E+01 -0.10124621723E+02  0.62290617181E+02  0.47000000000E+01 0.  1.
<mgrwt>
<rscale>  0 0.12590857E+03</rscale>
<asrwt>0</asrwt>
<pdfrwt beam="1">  1        5 0.15297888E-01 0.12590923E+03</pdfrwt>
<pdfrwt beam="2">  1       -5 0.24547608E-01 0.12590923E+03</pdfrwt>
<totfact> 0.42024343E+02</totfact>
</mgrwt>
</event>
<event>
 8    1  0.1865596E-007  0.1454110E+03  0.7546771E-02  0.1206233E+00
         -5   -1    0    0    0  501 -0.00000000000E+00  0.00000000000E+00  0.19539073024E+04  0.19539129552E+04  0.47000000000E+01 0. -1.
          5   -1    0    0  501    0  0.00000000000E+00 -0.00000000000E+00 -0.15986944267E+02  0.16663504643E+02  0.47000000000E+01 0. -1.
         25    2    1    2    0    0 -0.73370601758E+02 -0.11473746677E+02  0.15412642090E+04  0.15481069714E+04  0.12499976351E+03 0.  0.
         25    2    1    2    0    0  0.73370601758E+02  0.11473746677E+02  0.39665614916E+03  0.42246948844E+03  0.12501790244E+03 0.  0.
          5    1    3    3  502    0  0.25867577061E+02  0.91509554641E+01  0.72875947915E+03  0.72929098444E+03  0.47000000000E+01 0.  1.
         -5    1    3    3    0  502 -0.99238178819E+02 -0.20624702141E+02  0.81250472983E+03  0.81881598694E+03  0.47000000000E+01 0.  1.
          5    1    4    4  503    0  0.74687150877E+02 -0.17201523138E+01  0.40085835921E+03  0.40778749807E+03  0.47000000000E+01 0. -1.
         -5    1    4    4    0  503 -0.13165491192E+01  0.13193898991E+02 -0.42022100468E+01  0.14681990378E+02  0.47000000000E+01 0. -1.
<mgrwt>
<rscale>  0 0.14540713E+03</rscale>
<asrwt>0</asrwt>
<pdfrwt beam="2">  1        5 0.25120068E-02 0.14541103E+03</pdfrwt>
<pdfrwt beam="1">  1       -5 0.30065373E+00 0.14541103E+03</pdfrwt>
<totfact> 0.16224384E+01</totfact>
</mgrwt>
</event>
<event>
 8    1  0.1865596E-007  0.1868070E+03  0.7546771E-02  0.1161373E+00
          5   -1    0    0  501    0  0.00000000000E+00  0.00000000000E+00  0.65988261243E+02  0.66155427759E+02  0.47000000000E+01 0.  1.
         -5   -1    0    0    0  501 -0.00000000000E+00 -0.00000000000E+00 -0.57790645008E+03  0.57792556185E+03  0.47000000000E+01 0.  1.
         25    2    1    2    0    0 -0.59399792452E+02 -0.12546813984E+03 -0.35059568639E+03  0.39725834506E+03  0.12500507167E+03 0.  0.
         25    2    1    2    0    0  0.59399792452E+02  0.12546813984E+03 -0.16132250244E+03  0.24682264455E+03  0.12500351440E+03 0.  0.
          5    1    4    4  502    0  0.38563644491E+02  0.51948222219E+01 -0.10544506239E+03  0.11249396444E+03  0.47000000000E+01 0. -1.
         -5    1    4    4    0  502  0.20836147962E+02  0.12027331762E+03 -0.55877440056E+02  0.13432868011E+03  0.47000000000E+01 0. -1.
          5    1    3    3  503    0  0.10367132508E+01 -0.93139968239E+02 -0.29339615111E+03  0.30786282650E+03  0.47000000000E+01 0. -1.
         -5    1    3    3    0  503 -0.60436505703E+02 -0.32328171603E+02 -0.57199535284E+02  0.89395518554E+02  0.47000000000E+01 0. -1.
<mgrwt>
<rscale>  0 0.18680675E+03</rscale>
<asrwt>0</asrwt>
<pdfrwt beam="1">  1        5 0.10166370E-01 0.18680701E+03</pdfrwt>
<pdfrwt beam="2">  1       -5 0.88923010E-01 0.18680701E+03</pdfrwt>
<totfact> 0.64960212E+01</totfact>
</mgrwt>
</event>
<event>
 8    1  0.1865596E-007  0.1290378E+03  0.7546771E-02  0.1228893E+00
          5   -1    0    0  501    0  0.00000000000E+00  0.00000000000E+00  0.74063601533E+02  0.74212580281E+02  0.47000000000E+01 0. -1.
         -5   -1    0    0    0  501 -0.00000000000E+00 -0.00000000000E+00 -0.23513286233E+03  0.23517983108E+03  0.47000000000E+01 0. -1.
         25    2    1    2    0    0  0.31738813276E+02  0.41861516321E+01 -0.11356225980E+03  0.17188728085E+03  0.12499589726E+03 0.  0.
         25    2    1    2    0    0 -0.31738813276E+02 -0.41861516321E+01 -0.47507000994E+02  0.13750513051E+03  0.12500347851E+03 0.  0.
          5    1    3    3  502    0  0.22672138835E+02 -0.38733562414E+02  0.49809162840E+01  0.45400597613E+02  0.47000000000E+01 0. -1.
         -5    1    3    3    0  502  0.90666744413E+01  0.42919714046E+02 -0.11854317609E+03  0.12648668324E+03  0.47000000000E+01 0. -1.
          5    1    4    4  503    0  0.37235385194E+02  0.17726582493E+01 -0.56167977820E+02  0.67576238133E+02  0.47000000000E+01 0.  1.
         -5    1    4    4    0  503 -0.68974198470E+02 -0.59588098814E+01  0.86609768266E+01  0.69928892380E+02  0.47000000000E+01 0.  1.
<mgrwt>
<rscale>  0 0.12903593E+03</rscale>
<asrwt>0</asrwt>
<pdfrwt beam="1">  1        5 0.11409473E-01 0.12903777E+03</pdfrwt>
<pdfrwt beam="2">  1       -5 0.36189359E-01 0.12903777E+03</pdfrwt>
<totfact> 0.33479086E+02</totfact>
</mgrwt>
</event>
<event>
 8    1  0.1865596E-007  0.1904024E+03  0.7546771E-02  0.1158100E+00
         -5   -1    0    0    0  501 -0.00000000000E+00  0.00000000000E+00  0.15917060529E+03  0.15923998112E+03  0.47000000000E+01 0.  1.
          5   -1    0    0  501    0  0.00000000000E+00 -0.00000000000E+00 -0.25309268165E+03  0.25313631803E+03  0.47000000000E+01 0.  1.
         25    2    1    2    0    0  0.10833295000E+03  0.94291286918E+02  0.18442105609E+02  0.19129349643E+03  0.12500486260E+03 0.  0.
         25    2    1    2    0    0 -0.10833295000E+03 -0.94291286918E+02 -0.11236418198E+03  0.22108280273E+03  0.12500008570E+03 0.  0.
          5    1    4    4  502    0 -0.69666100308E+02  0.56943769522E+01 -0.85368914843E+02  0.11043429305E+03  0.47000000000E+01 0.  1.
         -5    1    4    4    0  502 -0.38666849692E+02 -0.99985663870E+02 -0.26995267132E+02  0.11064850967E+03  0.47000000000E+01 0.  1.
          5    1    3    3  503    0  0.32711597148E+02  0.25412192941E+02 -0.52266534085E+02  0.66855880245E+02  0.47000000000E+01 0. -1.
         -5    1    3    3    0  503  0.75621352852E+02  0.68879093977E+02  0.70708639694E+02  0.12443761618E+03  0.47000000000E+01 0. -1.
<mgrwt>
<rscale>  0 0.19040166E+03</rscale>
<asrwt>0</asrwt>
<pdfrwt beam="2">  1        5 0.38946029E-01 0.19040244E+03</pdfrwt>
<pdfrwt beam="1">  1       -5 0.24496479E-01 0.19040244E+03</pdfrwt>
<totfact> 0.80185515E+01</totfact>
</mgrwt>
</event>
<event>
 8    1  0.1865596E-007  0.1376213E+03  0.7546771E-02  0.1216576E+00
          5   -1    0    0  501    0  0.00000000000E+00  0.00000000000E+00  0.32391387445E+02  0.32730597009E+02  0.47000000000E+01 0. -1.
         -5   -1    0    0    0  501 -0.00000000000E+00 -0.00000000000E+00 -0.85432202265E+03  0.85433495093E+03  0.47000000000E+01 0. -1.
         25    2    1    2    0    0 -0.54063803079E+02  0.19767344044E+02 -0.66172859932E+03  0.67588783690E+03  0.12500394482E+03 0.  0.
         25    2    1    2    0    0  0.54063803079E+02 -0.19767344044E+02 -0.16020203589E+03  0.21117771105E+03  0.12497075916E+03 0.  0.
          5    1    3    3  502    0  0.21002027272E+01  0.51579466538E+02 -0.48353535338E+03  0.48630585046E+03  0.47000000000E+01 0. -1.
         -5    1    3    3    0  502 -0.56164005806E+02 -0.31812122493E+02 -0.17819324593E+03  0.18958198644E+03  0.47000000000E+01 0. -1.
          5    1    4    4  503    0 -0.39568711414E+02  0.20461373041E+01 -0.33749669143E+02  0.52258968303E+02  0.47000000000E+01 0.  1.
         -5    1    4    4    0  503  0.93632514493E+02 -0.21813481348E+02 -0.12645236675E+03  0.15891874274E+03  0.47000000000E+01 0.  1.
<mgrwt>
<rscale>  0 0.13761379E+03</rscale>
<asrwt>0</asrwt>
<pdfrwt beam="1">  1        5 0.50103785E-02 0.13762132E+03</pdfrwt>
<pdfrwt beam="2">  1       -5 0.13146123E+00 0.13762132E+03</pdfrwt>
<totfact> 0.75043407E+01</totfact>
</mgrwt>
</event>
<event>
 8    1  0.1865596E-007  0.1565368E+03  0.7546771E-02  0.1192679E+00
          5   -1    0    0  501    0  0.00000000000E+00  0.00000000000E+00  0.37043661091E+03  0.37046642587E+03  0.47000000000E+01 0. -1.
         -5   -1    0    0    0  501 -0.00000000000E+00 -0.00000000000E+00 -0.12531081196E+03  0.12539892182E+03  0.47000000000E+01 0. -1.
         25    2    1    2    0    0 -0.22884149621E+02  0.91404990773E+02 -0.47898985435E+02  0.16364959178E+03  0.12493325995E+03 0.  0.
         25    2    1    2    0    0  0.22884149621E+02 -0.91404990773E+02  0.29302478438E+03  0.33221575591E+03  0.12500091030E+03 0.  0.
          5    1    3    3  502    0 -0.61563205987E+02  0.83335895308E+01 -0.33605709262E+02  0.70787786665E+02  0.47000000000E+01 0. -1.
         -5    1    3    3    0  502  0.38679056366E+02  0.83071401242E+02 -0.14293276173E+02  0.92861805116E+02  0.47000000000E+01 0. -1.
          5    1    4    4  503    0 -0.60251005594E+01 -0.98043842551E+02  0.11341754773E+03  0.15011504599E+03  0.47000000000E+01 0.  1.
         -5    1    4    4    0  503  0.28909250180E+02  0.66388517779E+01  0.17960723665E+03  0.18210070993E+03  0.47000000000E+01 0.  1.
<mgrwt>
<rscale>  0 0.15652334E+03</rscale>
<asrwt>0</asrwt>
<pdfrwt beam="1">  1        5 0.56999319E-01 0.15653685E+03</pdfrwt>
<pdfrwt beam="2">  1       -5 0.19287658E-01 0.15653685E+03</pdfrwt>
<totfact> 0.53370909E+01</totfact>
</mgrwt>
</event>
<event>
 8    1  0.1865596E-007  0.1327100E+03  0.7546771E-02  0.1223490E+00
         -5   -1    0    0    0  501 -0.00000000000E+00  0.00000000000E+00  0.29620417343E+02  0.29990984038E+02  0.47000000000E+01 0.  1.
          5   -1    0    0  501    0  0.00000000000E+00 -0.00000000000E+00 -0.67281497084E+03  0.67283138674E+03  0.47000000000E+01 0.  1.
         25    2    1    2    0    0  0.38491181045E+02 -0.22476058414E+02 -0.19872315834E+03  0.23896197704E+03  0.12500075435E+03 0.  0.
         25    2    1    2    0    0 -0.38491181045E+02  0.22476058414E+02 -0.44447139516E+03  0.46386039374E+03  0.12499959820E+03 0.  0.
          5    1    3    3  502    0  0.11118679921E+02 -0.67950492006E+02 -0.64152630936E+02  0.94226028586E+02  0.47000000000E+01 0. -1.
         -5    1    3    3    0  502  0.27372501124E+02  0.45474433593E+02 -0.13457052740E+03  0.14473594845E+03  0.47000000000E+01 0. -1.
          5    1    4    4  503    0 -0.25313695509E+02  0.65700732796E+01 -0.44169765710E+03  0.44249616872E+03  0.47000000000E+01 0.  1.
         -5    1    4    4    0  503 -0.13177485536E+02  0.15905985134E+02 -0.27737380582E+01  0.21364225026E+02  0.47000000000E+01 0.  1.
<mgrwt>
<rscale>  0 0.13270969E+03</rscale>
<asrwt>0</asrwt>
<pdfrwt beam="2">  1        5 0.10353975E+00 0.13270996E+03</pdfrwt>
<pdfrwt beam="1">  1       -5 0.45867557E-02 0.13270996E+03</pdfrwt>
<totfact> 0.15700472E+02</totfact>
</mgrwt>
</event>
<event>
 8    1  0.1865596E-007  0.1806594E+03  0.7546771E-02  0.1167167E+00
         -5   -1    0    0    0  501 -0.00000000000E+00  0.00000000000E+00  0.13902042573E+03  0.13909985180E+03  0.47000000000E+01 0.  1.
          5   -1    0    0  501    0  0.00000000000E+00 -0.00000000000E+00 -0.24663460498E+03  0.24667938376E+03  0.47000000000E+01 0.  1.
         25    2    1    2    0    0 -0.11119022643E+03 -0.68176792977E+02 -0.11202828338E+02  0.18100382878E+03  0.12500216445E+03 0.  0.
         25    2    1    2    0    0  0.11119022643E+03  0.68176792977E+02 -0.96411350910E+02  0.20477540678E+03  0.12500590819E+03 0.  0.
          5    1    4    4  502    0  0.79618914322E+01  0.47337264556E+02  0.15858755231E+02  0.50772024268E+02  0.47000000000E+01 0.  1.
         -5    1    4    4    0  502  0.10322833500E+03  0.20839528422E+02 -0.11227010614E+03  0.15400338251E+03  0.47000000000E+01 0.  1.
          5    1    3    3  503    0  0.11055685967E+02 -0.68309474028E+01 -0.38980425197E+02  0.41357630289E+02  0.47000000000E+01 0. -1.
         -5    1    3    3    0  503 -0.12224591240E+03 -0.61345845575E+02  0.27777596859E+02  0.13964619849E+03  0.47000000000E+01 0. -1.
<mgrwt>
<rscale>  0 0.18065875E+03</rscale>
<asrwt>0</asrwt>
<pdfrwt beam="2">  1        5 0.37953340E-01 0.18065940E+03</pdfrwt>
<pdfrwt beam="1">  1       -5 0.21397312E-01 0.18065940E+03</pdfrwt>
<totfact> 0.10774615E+02</totfact>
</mgrwt>
</event>
<event>
 8    1  0.1865596E-007  0.4015145E+03  0.7546771E-02  0.1043257E+00
          5   -1    0    0  501    0  0.00000000000E+00  0.00000000000E+00  0.58826880130E+03  0.58828757644E+03  0.47000000000E+01 0.  1.
         -5   -1    0    0    0  501 -0.00000000000E+00 -0.00000000000E+00 -0.30648561789E+03  0.30652165335E+03  0.47000000000E+01 0.  1.
         25    2    1    2    0    0  0.20138327485E+03  0.32408735975E+03 -0.47488758043E+01  0.40154253861E+03  0.12500407333E+03 0.  0.
         25    2    1    2    0    0 -0.20138327485E+03 -0.32408735975E+03  0.28653205922E+03  0.49326669118E+03  0.12499426996E+03 0.  0.
          5    1    4    4  502    0 -0.16491043114E+03 -0.26983850258E+03  0.16875079055E+03  0.35847899114E+03  0.47000000000E+01 0.  1.
         -5    1    4    4    0  502 -0.36472843709E+02 -0.54248857167E+02  0.11778126867E+03  0.13478770004E+03  0.47000000000E+01 0.  1.
          5    1    3    3  503    0  0.21528591657E+03  0.32070543954E+03 -0.67379246774E+01  0.38635151670E+03  0.47000000000E+01 0.  1.
         -5    1    3    3    0  503 -0.13902641721E+02  0.33819202072E+01  0.19890488731E+01  0.15191021906E+02  0.47000000000E+01 0.  1.
<mgrwt>
<rscale>  0 0.40151369E+03</rscale>
<asrwt>0</asrwt>
<pdfrwt beam="1">  1        5 0.90507107E-01 0.40151446E+03</pdfrwt>
<pdfrwt beam="2">  1       -5 0.47155851E-01 0.40151446E+03</pdfrwt>
<totfact> 0.38312539E+00</totfact>
</mgrwt>
</event>
<event>
 8    1  0.1865596E-007  0.1294116E+03  0.7546771E-02  0.1228335E+00
          5   -1    0    0  501    0  0.00000000000E+00  0.00000000000E+00  0.87203446761E+02  0.87330012751E+02  0.47000000000E+01 0. -1.
         -5   -1    0    0    0  501 -0.00000000000E+00 -0.00000000000E+00 -0.19624046026E+03  0.19629673518E+03  0.47000000000E+01 0. -1.
         25    2    1    2    0    0  0.23972901241E+02  0.23363112703E+02 -0.33056488270E+02  0.13355872875E+03  0.12499867031E+03 0.  0.
         25    2    1    2    0    0 -0.23972901241E+02 -0.23363112703E+02 -0.75980525228E+02  0.15006801918E+03  0.12500734034E+03 0.  0.
          5    1    3    3  502    0 -0.62047577455E+01 -0.39842258995E+02 -0.46879019999E+02  0.62013201309E+02  0.47000000000E+01 0. -1.
         -5    1    3    3    0  502  0.30177658986E+02  0.63205371697E+02  0.13822531729E+02  0.71545527440E+02  0.47000000000E+01 0. -1.
          5    1    4    4  503    0 -0.24656152712E+02 -0.60556426893E+02 -0.23790966274E+00  0.65552675808E+02  0.47000000000E+01 0. -1.
         -5    1    4    4    0  503  0.68325147128E+00  0.37193314191E+02 -0.75742615565E+02  0.84515343375E+02  0.47000000000E+01 0. -1.
<mgrwt>
<rscale>  0 0.12940954E+03</rscale>
<asrwt>0</asrwt>
<pdfrwt beam="1">  1        5 0.13429980E-01 0.12941163E+03</pdfrwt>
<pdfrwt beam="2">  1       -5 0.30204905E-01 0.12941163E+03</pdfrwt>
<totfact> 0.35930169E+02</totfact>
</mgrwt>
</event>
<event>
 8    1  0.1865596E-007  0.1277028E+03  0.7546771E-02  0.1230911E+00
         -5   -1    0    0    0  501 -0.00000000000E+00  0.00000000000E+00  0.15554210662E+03  0.15561310013E+03  0.47000000000E+01 0. -1.
          5   -1    0    0  501    0  0.00000000000E+00 -0.00000000000E+00 -0.10755944855E+03  0.10766208698E+03  0.47000000000E+01 0. -1.
         25    2    1    2    0    0  0.87853235306E+01  0.24613933367E+02  0.45491947038E+02  0.13556367928E+03  0.12499986507E+03 0.  0.
         25    2    1    2    0    0 -0.87853235306E+01 -0.24613933367E+02  0.24907110275E+01  0.12771150783E+03  0.12498399084E+03 0.  0.
          5    1    3    3  502    0 -0.28618347510E+02  0.51049360557E+02  0.63171982473E+02  0.86242891864E+02  0.47000000000E+01 0.  1.
         -5    1    3    3    0  502  0.37403671041E+02 -0.26435427190E+02 -0.17680035435E+02  0.49320787413E+02  0.47000000000E+01 0.  1.
          5    1    4    4  503    0 -0.48582340098E+02 -0.57339239232E+02 -0.48447864106E+01  0.75455908188E+02  0.47000000000E+01 0.  1.
         -5    1    4    4    0  503  0.39797016567E+02  0.32725305865E+02  0.73354974382E+01  0.52255599645E+02  0.47000000000E+01 0.  1.
<mgrwt>
<rscale>  0 0.12769887E+03</rscale>
<asrwt>0</asrwt>
<pdfrwt beam="2">  1        5 0.16560964E-01 0.12770276E+03</pdfrwt>
<pdfrwt beam="1">  1       -5 0.23942911E-01 0.12770276E+03</pdfrwt>
<totfact> 0.38351377E+02</totfact>
</mgrwt>
</event>
<event>
 8    1  0.1865596E-007  0.1274081E+03  0.7546771E-02  0.1231358E+00
         -5   -1    0    0    0  501 -0.00000000000E+00  0.00000000000E+00  0.16013075263E+04  0.16013144237E+04  0.47000000000E+01 0. -1.
          5   -1    0    0  501    0  0.00000000000E+00 -0.00000000000E+00 -0.95918809489E+01  0.10681487731E+02  0.47000000000E+01 0. -1.
         25    2    1    2    0    0  0.33498982454E+01  0.24396874778E+02  0.77416100051E+03  0.78457509647E+03  0.12500559177E+03 0.  0.
         25    2    1    2    0    0 -0.33498982454E+01 -0.24396874778E+02  0.81755464480E+03  0.82742081500E+03  0.12499271392E+03 0.  0.
          5    1    3    3  502    0  0.26851152586E+02 -0.96526284708E+01  0.69068902586E+03  0.69129413282E+03  0.47000000000E+01 0. -1.
         -5    1    3    3    0  502 -0.23501254340E+02  0.34049503249E+02  0.83471974656E+02  0.93280963653E+02  0.47000000000E+01 0. -1.
          5    1    4    4  503    0 -0.29472984303E+02 -0.55564376363E+02  0.70202036805E+03  0.70484802892E+03  0.47000000000E+01 0. -1.
         -5    1    4    4    0  503  0.26123086057E+02  0.31167501584E+02  0.11553427676E+03  0.12257278607E+03  0.47000000000E+01 0. -1.
<mgrwt>
<rscale>  0 0.12740495E+03</rscale>
<asrwt>0</asrwt>
<pdfrwt beam="2">  1        5 0.15600220E-02 0.12740811E+03</pdfrwt>
<pdfrwt beam="1">  1       -5 0.24643911E+00 0.12740811E+03</pdfrwt>
<totfact> 0.73217342E+01</totfact>
</mgrwt>
</event>
<event>
 8    1  0.1865596E-007  0.1892072E+03  0.7546771E-02  0.1159180E+00
          5   -1    0    0  501    0  0.00000000000E+00  0.00000000000E+00  0.99609580238E+03  0.99610689061E+03  0.47000000000E+01 0.  1.
         -5   -1    0    0    0  501 -0.00000000000E+00 -0.00000000000E+00 -0.35828611129E+02  0.36135569394E+02  0.47000000000E+01 0.  1.
         25    2    1    2    0    0 -0.58814461106E+02 -0.12927947617E+03  0.45987569614E+03  0.49727421008E+03  0.12499464112E+03 0.  0.
         25    2    1    2    0    0  0.58814461106E+02  0.12927947617E+03  0.50039149510E+03  0.53496824993E+03  0.12500822478E+03 0.  0.
          5    1    4    4  502    0 -0.14675892996E+02  0.50704894209E+02  0.32397592176E+03  0.32828167176E+03  0.47000000000E+01 0.  1.
         -5    1    4    4    0  502  0.73490354102E+02  0.78574581961E+02  0.17641557334E+03  0.20668657817E+03  0.47000000000E+01 0.  1.
          5    1    3    3  503    0  0.36739504282E+02 -0.18565267659E+02  0.77912832978E+02  0.88243752645E+02  0.47000000000E+01 0.  1.
         -5    1    3    3    0  503 -0.95553965388E+02 -0.11071420851E+03  0.38196286317E+03  0.40903045743E+03  0.47000000000E+01 0.  1.
<mgrwt>
<rscale>  0 0.18920500E+03</rscale>
<asrwt>0</asrwt>
<pdfrwt beam="1">  1        5 0.15326997E+00 0.18920724E+03</pdfrwt>
<pdfrwt beam="2">  1       -5 0.55365591E-02 0.18920724E+03</pdfrwt>
<totfact> 0.45976002E+01</totfact>
</mgrwt>
</event>
<event>
 8    1  0.1865596E-007  0.1295459E+03  0.7546771E-02  0.1228163E+00
          5   -1    0    0  501    0  0.00000000000E+00  0.00000000000E+00  0.25894096537E+02  0.26317185173E+02  0.47000000000E+01 0.  1.
         -5   -1    0    0    0  501 -0.00000000000E+00 -0.00000000000E+00 -0.65672453821E+03  0.65674135631E+03  0.47000000000E+01 0.  1.
         25    2    1    2    0    0 -0.22423578794E+02 -0.25572399972E+02 -0.36665511918E+03  0.38886774336E+03  0.12500152352E+03 0.  0.
         25    2    1    2    0    0  0.22423578794E+02  0.25572399972E+02 -0.26417532250E+03  0.29419079812E+03  0.12491140924E+03 0.  0.
          5    1    4    4  502    0  0.63320991652E+02  0.41166420380E+02 -0.10760041274E+03  0.13154528107E+03  0.47000000000E+01 0.  1.
         -5    1    4    4    0  502 -0.40897412859E+02 -0.15594020408E+02 -0.15657490976E+03  0.16264551705E+03  0.47000000000E+01 0.  1.
          5    1    3    3  503    0 -0.28014981094E+02 -0.12684787250E+02 -0.11140413943E+02  0.33044542910E+02  0.47000000000E+01 0.  1.
         -5    1    3    3    0  503  0.55914023006E+01 -0.12887612722E+02 -0.35551470523E+03  0.35582320045E+03  0.47000000000E+01 0.  1.
<mgrwt>
<rscale>  0 0.12952418E+03</rscale>
<asrwt>0</asrwt>
<pdfrwt beam="1">  1        5 0.40175466E-02 0.12954592E+03</pdfrwt>
<pdfrwt beam="2">  1       -5 0.10106837E+00 0.12954592E+03</pdfrwt>
<totfact> 0.20541804E+02</totfact>
</mgrwt>
</event>
<event>
 8    1  0.1865596E-007  0.3115292E+03  0.7546771E-02  0.1079615E+00
          5   -1    0    0  501    0  0.00000000000E+00  0.00000000000E+00  0.99748059742E+03  0.99749167025E+03  0.47000000000E+01 0. -1.
         -5   -1    0    0    0  501 -0.00000000000E+00 -0.00000000000E+00 -0.98062817728E+02  0.98175385005E+02  0.47000000000E+01 0. -1.
         25    2    1    2    0    0  0.27625793991E+03  0.71452847033E+02  0.39916486316E+03  0.50634279213E+03  0.12500590568E+03 0.  0.
         25    2    1    2    0    0 -0.27625793991E+03 -0.71452847033E+02  0.50025291653E+03  0.58932426312E+03  0.12500459149E+03 0.  0.
          5    1    4    4  502    0 -0.26377225373E+03 -0.32793135497E+02  0.39236151003E+03  0.47394180669E+03  0.47000000000E+01 0.  1.
         -5    1    4    4    0  502 -0.12485686177E+02 -0.38659711536E+02  0.10789140651E+03  0.11538245644E+03  0.47000000000E+01 0.  1.
          5    1    3    3  503    0  0.10524326123E+03 -0.52410076060E+01  0.23323669449E+03  0.25597862772E+03  0.47000000000E+01 0. -1.
         -5    1    3    3    0  503  0.17101467868E+03  0.76693854639E+02  0.16592816867E+03  0.25036416441E+03  0.47000000000E+01 0. -1.
<mgrwt>
<rscale>  0 0.31152906E+03</rscale>
<asrwt>0</asrwt>
<pdfrwt beam="1">  1        5 0.15346806E+00 0.31152919E+03</pdfrwt>
<pdfrwt beam="2">  1       -5 0.15096099E-01 0.31152919E+03</pdfrwt>
<totfact> 0.87845422E+00</totfact>
</mgrwt>
</event>
<event>
 8    1  0.1865596E-007  0.2038196E+03  0.7546771E-02  0.1146557E+00
          5   -1    0    0  501    0  0.00000000000E+00  0.00000000000E+00  0.10548030439E+04  0.10548135150E+04  0.47000000000E+01 0. -1.
         -5   -1    0    0    0  501 -0.00000000000E+00 -0.00000000000E+00 -0.46742823657E+02  0.46978522364E+02  0.47000000000E+01 0. -1.
         25    2    1    2    0    0 -0.16082676877E+03  0.70841729360E+01  0.28384182102E+03  0.34944040423E+03  0.12500792651E+03 0.  0.
         25    2    1    2    0    0  0.16082676877E+03 -0.70841729360E+01  0.72421839920E+03  0.75235163311E+03  0.12500102016E+03 0.  0.
          5    1    4    4  502    0  0.78433550286E+02 -0.39873741088E+02  0.17426178072E+03  0.19527159358E+03  0.47000000000E+01 0.  1.
         -5    1    4    4    0  502  0.82393218483E+02  0.32789568152E+02  0.54995661848E+03  0.55708003953E+03  0.47000000000E+01 0.  1.
          5    1    3    3  503    0 -0.94949150284E+02  0.12068143353E+02  0.26314264159E+03  0.28004842625E+03  0.47000000000E+01 0. -1.
         -5    1    3    3    0  503 -0.65877618485E+02 -0.49839704174E+01  0.20699179428E+02  0.69391977976E+02  0.47000000000E+01 0. -1.
<mgrwt>
<rscale>  0 0.20381851E+03</rscale>
<asrwt>0</asrwt>
<pdfrwt beam="1">  1        5 0.16229630E+00 0.20381957E+03</pdfrwt>
<pdfrwt beam="2">  1       -5 0.72101409E-02 0.20381957E+03</pdfrwt>
<totfact> 0.25456081E+01</totfact>
</mgrwt>
</event>
<event>
 8    1  0.1865596E-007  0.1286527E+03  0.7546771E-02  0.1229472E+00
          5   -1    0    0  501    0  0.00000000000E+00  0.00000000000E+00  0.28682086049E+03  0.28685936626E+03  0.47000000000E+01 0.  1.
         -5   -1    0    0    0  501 -0.00000000000E+00 -0.00000000000E+00 -0.58449068157E+02  0.58637731610E+02  0.47000000000E+01 0.  1.
         25    2    1    2    0    0  0.17432493644E+02  0.24951698933E+02  0.92976451750E+02  0.15873291435E+03  0.12500015362E+03 0.  0.
         25    2    1    2    0    0 -0.17432493644E+02 -0.24951698933E+02  0.13539534058E+03  0.18676418352E+03  0.12498993111E+03 0.  0.
          5    1    4    4  502    0 -0.41951153072E+02 -0.65240450185E+02  0.10435166291E+03  0.13010601499E+03  0.47000000000E+01 0.  1.
         -5    1    4    4    0  502  0.24518659428E+02  0.40288751252E+02  0.31043677668E+02  0.56658168526E+02  0.47000000000E+01 0.  1.
          5    1    3    3  503    0 -0.24714059956E+02  0.55451421440E+02  0.86948424244E+02  0.10614972152E+03  0.47000000000E+01 0.  1.
         -5    1    3    3    0  503  0.42146553599E+02 -0.30499722506E+02  0.60280275059E+01  0.52583192836E+02  0.47000000000E+01 0.  1.
<mgrwt>
<rscale>  0 0.12865022E+03</rscale>
<asrwt>0</asrwt>
<pdfrwt beam="1">  1        5 0.44143760E-01 0.12865270E+03</pdfrwt>
<pdfrwt beam="2">  1       -5 0.90096390E-02 0.12865270E+03</pdfrwt>
<totfact> 0.33654114E+02</totfact>
</mgrwt>
</event>
<event>
 8    1  0.1865596E-007  0.1279063E+03  0.7546771E-02  0.1230597E+00
          5   -1    0    0  501    0  0.00000000000E+00  0.00000000000E+00  0.58704611762E+02  0.58892456580E+02  0.47000000000E+01 0. -1.
         -5   -1    0    0    0  501 -0.00000000000E+00 -0.00000000000E+00 -0.27947365886E+03  0.27951317678E+03  0.47000000000E+01 0. -1.
         25    2    1    2    0    0  0.18221314138E+02 -0.20062665639E+02 -0.98213220964E+02  0.16126328924E+03  0.12500193935E+03 0.  0.
         25    2    1    2    0    0 -0.18221314138E+02  0.20062665639E+02 -0.12255582613E+03  0.17714234413E+03  0.12499981089E+03 0.  0.
          5    1    4    4  502    0 -0.73130667504E+01 -0.40281186659E+02 -0.10558564777E+03  0.11334228672E+03  0.47000000000E+01 0.  1.
         -5    1    4    4    0  502 -0.10908247387E+02  0.60343852298E+02 -0.16970178359E+02  0.63800057404E+02  0.47000000000E+01 0.  1.
          5    1    3    3  503    0  0.29921168755E+02 -0.61410454302E+02 -0.19062031821E+02  0.71077220643E+02  0.47000000000E+01 0. -1.
         -5    1    3    3    0  503 -0.11699854617E+02  0.41347788663E+02 -0.79151189144E+02  0.90186068593E+02  0.47000000000E+01 0. -1.
<mgrwt>
<rscale>  0 0.12790574E+03</rscale>
<asrwt>0</asrwt>
<pdfrwt beam="1">  1        5 0.90489683E-02 0.12790626E+03</pdfrwt>
<pdfrwt beam="2">  1       -5 0.43013436E-01 0.12790626E+03</pdfrwt>
<totfact> 0.35168824E+02</totfact>
</mgrwt>
</event>
<event>
 8    1  0.1865596E-007  0.1274987E+03  0.7546771E-02  0.1231222E+00
         -5   -1    0    0    0  501 -0.00000000000E+00  0.00000000000E+00  0.13666999835E+03  0.13675078958E+03  0.47000000000E+01 0. -1.
          5   -1    0    0  501    0  0.00000000000E+00 -0.00000000000E+00 -0.14542122934E+03  0.14549716129E+03  0.47000000000E+01 0. -1.
         25    2    1    2    0    0  0.12769898222E+02  0.21616956377E+02  0.56013389077E+02  0.13924315227E+03  0.12498316924E+03 0.  0.
         25    2    1    2    0    0 -0.12769898222E+02 -0.21616956377E+02 -0.64764620062E+02  0.14300479859E+03  0.12500221320E+03 0.  0.
          5    1    3    3  502    0  0.13217027136E+02 -0.51669242033E+02  0.17553714033E+02  0.56343795177E+02  0.47000000000E+01 0.  1.
         -5    1    3    3    0  502 -0.44712891402E+00  0.73286198410E+02  0.38459675044E+02  0.82899357091E+02  0.47000000000E+01 0.  1.
          5    1    4    4  503    0  0.11600450884E+02 -0.45434370414E+02  0.20250973499E+02  0.51293707249E+02  0.47000000000E+01 0.  1.
         -5    1    4    4    0  503 -0.24370349106E+02  0.23817414037E+02 -0.85015593561E+02  0.91711091344E+02  0.47000000000E+01 0.  1.
<mgrwt>
<rscale>  0 0.12749402E+03</rscale>
<asrwt>0</asrwt>
<pdfrwt beam="2">  1        5 0.22384553E-01 0.12749869E+03</pdfrwt>
<pdfrwt beam="1">  1       -5 0.21038209E-01 0.12749869E+03</pdfrwt>
<totfact> 0.27971680E+02</totfact>
</mgrwt>
</event>
<event>
 8    1  0.1865596E-007  0.1348579E+03  0.7546771E-02  0.1220420E+00
         -5   -1    0    0    0  501 -0.00000000000E+00  0.00000000000E+00  0.22821683247E+02  0.23300627164E+02  0.47000000000E+01 0.  1.
          5   -1    0    0  501    0  0.00000000000E+00 -0.00000000000E+00 -0.85392790112E+03  0.85394083537E+03  0.47000000000E+01 0.  1.
         25    2    1    2    0    0 -0.49826932000E+02  0.88852490943E+01 -0.29384261667E+03  0.32331110431E+03  0.12499966396E+03 0.  0.
         25    2    1    2    0    0  0.49826932000E+02 -0.88852490943E+01 -0.53726360120E+03  0.55393035823E+03  0.12499997515E+03 0.  0.
          5    1    4    4  502    0 -0.89611199237E+01 -0.57183565508E+02 -0.20769454035E+03  0.21566032070E+03  0.47000000000E+01 0. -1.
         -5    1    4    4    0  502  0.58788051924E+02  0.48298316414E+02 -0.32956906085E+03  0.33827003753E+03  0.47000000000E+01 0. -1.
          5    1    3    3  503    0 -0.37048918667E+02 -0.24131912859E+02 -0.28229671729E+03  0.28577700780E+03  0.47000000000E+01 0.  1.
         -5    1    3    3    0  503 -0.12778013334E+02  0.33017161953E+02 -0.11545899383E+02  0.37534096509E+02  0.47000000000E+01 0.  1.
<mgrwt>
<rscale>  0 0.13485787E+03</rscale>
<asrwt>0</asrwt>
<pdfrwt beam="2">  1        5 0.13141134E+00 0.13485794E+03</pdfrwt>
<pdfrwt beam="1">  1       -5 0.35488656E-02 0.13485794E+03</pdfrwt>
<totfact> 0.13161058E+02</totfact>
</mgrwt>
</event>
<event>
 8    1  0.1865596E-007  0.1403507E+03  0.7546771E-02  0.1212861E+00
         -5   -1    0    0    0  501 -0.00000000000E+00  0.00000000000E+00  0.10782037007E+03  0.10792276035E+03  0.47000000000E+01 0. -1.
          5   -1    0    0  501    0  0.00000000000E+00 -0.00000000000E+00 -0.21125911765E+03  0.21131139295E+03  0.47000000000E+01 0. -1.
         25    2    1    2    0    0 -0.38460304413E+02  0.50918654649E+02  0.71885698080E+01  0.14052568733E+03  0.12499555535E+03 0.  0.
         25    2    1    2    0    0  0.38460304413E+02 -0.50918654649E+02 -0.11062731739E+03  0.17870846597E+03  0.12500563207E+03 0.  0.
          5    1    4    4  502    0  0.17250210712E+02  0.29579345315E+02  0.62656189779E+01  0.35126278198E+02  0.47000000000E+01 0. -1.
         -5    1    4    4    0  502  0.21210093701E+02 -0.80497999964E+02 -0.11689293636E+03  0.14358218777E+03  0.47000000000E+01 0. -1.
          5    1    3    3  503    0 -0.58998878070E+02  0.16036988076E+02 -0.43724296435E+02  0.75312394059E+02  0.47000000000E+01 0. -1.
         -5    1    3    3    0  503  0.20538573657E+02  0.34881666573E+02  0.50912866243E+02  0.65213293276E+02  0.47000000000E+01 0. -1.
<mgrwt>
<rscale>  0 0.14034843E+03</rscale>
<asrwt>0</asrwt>
<pdfrwt beam="2">  1        5 0.32513300E-01 0.14035068E+03</pdfrwt>
<pdfrwt beam="1">  1       -5 0.16599647E-01 0.14035068E+03</pdfrwt>
<totfact> 0.21784107E+02</totfact>
</mgrwt>
</event>
<event>
 8    1  0.1865596E-007  0.2087261E+03  0.7546771E-02  0.1142579E+00
         -5   -1    0    0    0  501 -0.00000000000E+00  0.00000000000E+00  0.31516608276E+03  0.31520112583E+03  0.47000000000E+01 0.  1.
          5   -1    0    0  501    0  0.00000000000E+00 -0.00000000000E+00 -0.13850883361E+03  0.13858855287E+03  0.47000000000E+01 0.  1.
         25    2    1    2    0    0 -0.16571008469E+03  0.21944277789E+02  0.99857692539E+02  0.23138312202E+03  0.12500082760E+03 0.  0.
         25    2    1    2    0    0  0.16571008469E+03 -0.21944277789E+02  0.76799556616E+02  0.22240655668E+03  0.12500048425E+03 0.  0.
          5    1    4    4  502    0  0.13636052960E+03 -0.26267073645E+02 -0.10635325986E+01  0.13895097801E+03  0.47000000000E+01 0. -1.
         -5    1    4    4    0  502  0.29349555093E+02  0.43227958563E+01  0.77863089215E+02  0.83455578665E+02  0.47000000000E+01 0. -1.
          5    1    3    3  503    0 -0.12688944063E+03  0.51776983409E+02  0.21405404142E+02  0.13878785063E+03  0.47000000000E+01 0. -1.
         -5    1    3    3    0  503 -0.38820644055E+02 -0.29832705621E+02  0.78452288397E+02  0.92595271392E+02  0.47000000000E+01 0. -1.
<mgrwt>
<rscale>  0 0.20872606E+03</rscale>
<asrwt>0</asrwt>
<pdfrwt beam="2">  1        5 0.21317879E-01 0.20872611E+03</pdfrwt>
<pdfrwt beam="1">  1       -5 0.48495917E-01 0.20872611E+03</pdfrwt>
<totfact> 0.67798471E+01</totfact>
</mgrwt>
</event>
<event>
 8    1  0.1865596E-007  0.1364985E+03  0.7546771E-02  0.1218120E+00
          5   -1    0    0  501    0  0.00000000000E+00  0.00000000000E+00  0.12105364242E+03  0.12114484860E+03  0.47000000000E+01 0.  1.
         -5   -1    0    0    0  501 -0.00000000000E+00 -0.00000000000E+00 -0.27285218042E+03  0.27289265722E+03  0.47000000000E+01 0.  1.
         25    2    1    2    0    0  0.54119377821E+02  0.88383792283E+01 -0.20604425656E+03  0.24715515409E+03  0.12499764209E+03 0.  0.
         25    2    1    2    0    0 -0.54119377821E+02 -0.88383792283E+01  0.54245718558E+02  0.14688235172E+03  0.12499921305E+03 0.  0.
          5    1    4    4  502    0 -0.58598358142E+01  0.47160117417E+02  0.54955510285E+02  0.72805305172E+02  0.47000000000E+01 0.  1.
         -5    1    4    4    0  502 -0.48259542007E+02 -0.55998496645E+02 -0.70979172749E+00  0.74077046550E+02  0.47000000000E+01 0.  1.
          5    1    3    3  503    0 -0.18681111849E+02 -0.13685448325E+02  0.37265788276E+01  0.23921806485E+02  0.47000000000E+01 0.  1.
         -5    1    3    3    0  503  0.72800489670E+02  0.22523827553E+02 -0.20977083539E+03  0.22323334761E+03  0.47000000000E+01 0.  1.
<mgrwt>
<rscale>  0 0.13649809E+03</rscale>
<asrwt>0</asrwt>
<pdfrwt beam="1">  1        5 0.18633767E-01 0.13649845E+03</pdfrwt>
<pdfrwt beam="2">  1       -5 0.41987388E-01 0.13649845E+03</pdfrwt>
<totfact> 0.10406354E+02</totfact>
</mgrwt>
</event>
<event>
 8    1  0.1865596E-007  0.1273116E+03  0.7546771E-02  0.1231503E+00
         -5   -1    0    0    0  501 -0.00000000000E+00  0.00000000000E+00  0.27651959888E+03  0.27655953891E+03  0.47000000000E+01 0.  1.
          5   -1    0    0  501    0  0.00000000000E+00 -0.00000000000E+00 -0.58480541774E+02  0.58669104018E+02  0.47000000000E+01 0.  1.
         25    2    1    2    0    0 -0.19544424480E+02 -0.14107345726E+02  0.10708674894E+03  0.16635395001E+03  0.12500025261E+03 0.  0.
         25    2    1    2    0    0  0.19544424480E+02  0.14107345726E+02  0.11095230816E+03  0.16887469292E+03  0.12500898164E+03 0.  0.
          5    1    4    4  502    0  0.17674438541E+02 -0.42862657899E+02  0.29883765420E+01  0.46697040744E+02  0.47000000000E+01 0. -1.
         -5    1    4    4    0  502  0.18699859392E+01  0.56970003625E+02  0.10796393162E+03  0.12217765218E+03  0.47000000000E+01 0. -1.
          5    1    3    3  503    0 -0.45590551503E+02  0.12609215319E+02 -0.53118475018E+01  0.47830914910E+02  0.47000000000E+01 0. -1.
         -5    1    3    3    0  503  0.26046127023E+02 -0.26716561045E+02  0.11239859644E+03  0.11852303510E+03  0.47000000000E+01 0. -1.
<mgrwt>
<rscale>  0 0.12730947E+03</rscale>
<asrwt>0</asrwt>
<pdfrwt beam="2">  1        5 0.90145834E-02 0.12731161E+03</pdfrwt>
<pdfrwt beam="1">  1       -5 0.42559054E-01 0.12731161E+03</pdfrwt>
<totfact> 0.36123456E+02</totfact>
</mgrwt>
</event>
<event>
 8    1  0.1865596E-007  0.1765556E+03  0.7546771E-02  0.1171179E+00
         -5   -1    0    0    0  501 -0.00000000000E+00  0.00000000000E+00  0.29221219147E+03  0.29224998690E+03  0.47000000000E+01 0.  1.
          5   -1    0    0  501    0  0.00000000000E+00 -0.00000000000E+00 -0.11771917336E+03  0.11781296099E+03  0.47000000000E+01 0.  1.
         25    2    1    2    0    0 -0.10779792908E+03  0.62660723792E+02  0.15028374235E+03  0.23185572374E+03  0.12500045439E+03 0.  0.
         25    2    1    2    0    0  0.10779792908E+03 -0.62660723792E+02  0.24209275767E+02  0.17820722415E+03  0.12499986354E+03 0.  0.
          5    1    4    4  502    0  0.48373334360E+02 -0.74984751189E+02  0.59963678990E+02  0.10761238398E+03  0.47000000000E+01 0.  1.
         -5    1    4    4    0  502  0.59424594718E+02  0.12324027397E+02 -0.35754403222E+02  0.70594840169E+02  0.47000000000E+01 0.  1.
          5    1    3    3  503    0 -0.61661645377E+02  0.94298429926E+02  0.13016878393E+03  0.17222181833E+03  0.47000000000E+01 0. -1.
         -5    1    3    3    0  503 -0.46136283701E+02 -0.31637706134E+02  0.20114958414E+02  0.59633905416E+02  0.47000000000E+01 0. -1.
<mgrwt>
<rscale>  0 0.17655548E+03</rscale>
<asrwt>0</asrwt>
<pdfrwt beam="2">  1        5 0.18120764E-01 0.17655558E+03</pdfrwt>
<pdfrwt beam="1">  1       -5 0.44965843E-01 0.17655558E+03</pdfrwt>
<totfact> 0.10292289E+02</totfact>
</mgrwt>
</event>
<event>
 8    1  0.1865596E-007  0.1462255E+03  0.7546771E-02  0.1205196E+00
          5   -1    0    0  501    0  0.00000000000E+00  0.00000000000E+00  0.64979067519E+02  0.65148823594E+02  0.47000000000E+01 0.  1.
         -5   -1    0    0    0  501 -0.00000000000E+00 -0.00000000000E+00 -0.38969449167E+03  0.38972283335E+03  0.47000000000E+01 0.  1.
         25    2    1    2    0    0  0.72681208470E+02 -0.21826042629E+02 -0.25252733729E+03  0.29179803535E+03  0.12496840861E+03 0.  0.
         25    2    1    2    0    0 -0.72681208470E+02  0.21826042629E+02 -0.72188086855E+02  0.16307362160E+03  0.12499180764E+03 0.  0.
          5    1    3    3  502    0  0.51131845948E+02  0.47221455362E+02 -0.15769949029E+03  0.17243999175E+03  0.47000000000E+01 0.  1.
         -5    1    3    3    0  502  0.21549362522E+02 -0.69047497991E+02 -0.94827847003E+02  0.11935804360E+03  0.47000000000E+01 0.  1.
          5    1    4    4  503    0 -0.20385777309E+02  0.61060769607E+02  0.13562499480E+01  0.64559483544E+02  0.47000000000E+01 0. -1.
         -5    1    4    4    0  503 -0.52295431160E+02 -0.39234726978E+02 -0.73544336803E+02  0.98514138057E+02  0.47000000000E+01 0. -1.
<mgrwt>
<rscale>  0 0.14622046E+03</rscale>
<asrwt>0</asrwt>
<pdfrwt beam="1">  1        5 0.10012018E-01 0.14622546E+03</pdfrwt>
<pdfrwt beam="2">  1       -5 0.59968236E-01 0.14622546E+03</pdfrwt>
<totfact> 0.15236882E+02</totfact>
</mgrwt>
</event>
<event>
 8    1  0.1865596E-007  0.1600624E+03  0.7546771E-02  0.1188627E+00
         -5   -1    0    0    0  501 -0.00000000000E+00  0.00000000000E+00  0.71647914589E+02  0.71801905719E+02  0.47000000000E+01 0. -1.
          5   -1    0    0  501    0  0.00000000000E+00 -0.00000000000E+00 -0.36192102883E+03  0.36195154525E+03  0.47000000000E+01 0. -1.
         25    2    1    2    0    0 -0.14231978191E+02 -0.98952381236E+02 -0.17035092315E+03  0.23375022769E+03  0.12500243587E+03 0.  0.
         25    2    1    2    0    0  0.14231978191E+02  0.98952381236E+02 -0.11992219110E+03  0.20000322328E+03  0.12500333775E+03 0.  0.
          5    1    4    4  502    0  0.33924085139E+02 -0.13780182665E+02 -0.60745036400E+02  0.71082954596E+02  0.47000000000E+01 0. -1.
         -5    1    4    4    0  502 -0.19692106947E+02  0.11273256390E+03 -0.59177154696E+02  0.12892026868E+03  0.47000000000E+01 0. -1.
          5    1    3    3  503    0 -0.36123440663E+02 -0.10005265100E+03 -0.18016622189E+03  0.20927826798E+03  0.47000000000E+01 0.  1.
         -5    1    3    3    0  503  0.21891462472E+02  0.11002697644E+01  0.98152987453E+01  0.24471959713E+02  0.47000000000E+01 0.  1.
<mgrwt>
<rscale>  0 0.16006218E+03</rscale>
<asrwt>0</asrwt>
<pdfrwt beam="2">  1        5 0.55694350E-01 0.16006235E+03</pdfrwt>
<pdfrwt beam="1">  1       -5 0.11036949E-01 0.16006235E+03</pdfrwt>
<totfact> 0.15530294E+02</totfact>
</mgrwt>
</event>
<event>
 8    1  0.1865596E-007  0.1322183E+03  0.7546771E-02  0.1224202E+00
          5   -1    0    0  501    0  0.00000000000E+00  0.00000000000E+00  0.58041384285E+02  0.58231368606E+02  0.47000000000E+01 0.  1.
         -5   -1    0    0    0  501 -0.00000000000E+00 -0.00000000000E+00 -0.30054503485E+03  0.30058178250E+03  0.47000000000E+01 0.  1.
         25    2    1    2    0    0  0.90810980489E+00 -0.43045620138E+02 -0.11879405526E+03  0.17774483273E+03  0.12500979130E+03 0.  0.
         25    2    1    2    0    0 -0.90810980489E+00  0.43045620138E+02 -0.12370959530E+03  0.18106831838E+03  0.12501168695E+03 0.  0.
          5    1    4    4  502    0  0.40209428453E+02 -0.28036580641E+02 -0.37345085971E+02  0.61802859454E+02  0.47000000000E+01 0.  1.
         -5    1    4    4    0  502 -0.41117538258E+02  0.71082200779E+02 -0.86364509333E+02  0.11926545892E+03  0.47000000000E+01 0.  1.
          5    1    3    3  503    0 -0.33635496736E+02 -0.75948715579E+02 -0.86047721368E+02  0.11969066125E+03  0.47000000000E+01 0. -1.
         -5    1    3    3    0  503  0.34543606541E+02  0.32903095441E+02 -0.32746333892E+02  0.58054171477E+02  0.47000000000E+01 0. -1.
<mgrwt>
<rscale>  0 0.13221783E+03</rscale>
<asrwt>0</asrwt>
<pdfrwt beam="1">  1        5 0.89468848E-02 0.13221827E+03</pdfrwt>
<pdfrwt beam="2">  1       -5 0.46255138E-01 0.13221827E+03</pdfrwt>
<totfact> 0.31214571E+02</totfact>
</mgrwt>
</event>
<event>
 8    1  0.1865596E-007  0.1430747E+03  0.7546771E-02  0.1209259E+00
         -5   -1    0    0    0  501 -0.00000000000E+00  0.00000000000E+00  0.16681055699E+04  0.16681121911E+04  0.47000000000E+01 0. -1.
          5   -1    0    0  501    0  0.00000000000E+00 -0.00000000000E+00 -0.11849584346E+02  0.12747652693E+02  0.47000000000E+01 0. -1.
         25    2    1    2    0    0  0.44334729638E+02  0.53662544193E+02  0.87352669357E+03  0.88516623746E+03  0.12500058660E+03 0.  0.
         25    2    1    2    0    0 -0.44334729638E+02 -0.53662544193E+02  0.78272929195E+03  0.79569360637E+03  0.12497173218E+03 0.  0.
          5    1    3    3  502    0 -0.98722898887E+01  0.78338546431E+02  0.59996677960E+03  0.60515834010E+03  0.47000000000E+01 0.  1.
         -5    1    3    3    0  502  0.54207019527E+02 -0.24676002238E+02  0.27355991397E+03  0.28000789736E+03  0.47000000000E+01 0.  1.
          5    1    4    4  503    0 -0.59023898316E+02 -0.76454138475E+02  0.38303657712E+03  0.39505463581E+03  0.47000000000E+01 0. -1.
         -5    1    4    4    0  503  0.14689168678E+02  0.22791594282E+02  0.39969271483E+03  0.40063897056E+03  0.47000000000E+01 0. -1.
<mgrwt>
<rscale>  0 0.14306845E+03</rscale>
<asrwt>0</asrwt>
<pdfrwt beam="2">  1        5 0.18926064E-02 0.14307475E+03</pdfrwt>
<pdfrwt beam="1">  1       -5 0.25670096E+00 0.14307475E+03</pdfrwt>
<totfact> 0.48025641E+01</totfact>
</mgrwt>
</event>
<event>
 8    1  0.1865596E-007  0.1392475E+03  0.7546771E-02  0.1214346E+00
         -5   -1    0    0    0  501 -0.00000000000E+00  0.00000000000E+00  0.38906532552E+02  0.39189389829E+02  0.47000000000E+01 0. -1.
          5   -1    0    0  501    0  0.00000000000E+00 -0.00000000000E+00 -0.49868935665E+03  0.49871150421E+03  0.47000000000E+01 0. -1.
         25    2    1    2    0    0  0.34003245813E+02  0.51064864947E+02 -0.21111549516E+03  0.25290037703E+03  0.12500002897E+03 0.  0.
         25    2    1    2    0    0 -0.34003245813E+02 -0.51064864947E+02 -0.24866732893E+03  0.28500051702E+03  0.12500405219E+03 0.  0.
          5    1    3    3  502    0 -0.46800682516E+02  0.19183356786E+02 -0.95999634991E+02  0.10861088794E+03  0.47000000000E+01 0.  1.
         -5    1    3    3    0  502  0.80803928329E+02  0.31881508161E+02 -0.11511586017E+03  0.14428948908E+03  0.47000000000E+01 0.  1.
          5    1    4    4  503    0 -0.13494120631E+02 -0.85320754266E+01 -0.23504199087E+03  0.23563046296E+03  0.47000000000E+01 0.  1.
         -5    1    4    4    0  503 -0.20509125182E+02 -0.42532789520E+02 -0.13625338060E+02  0.49370054054E+02  0.47000000000E+01 0.  1.
<mgrwt>
<rscale>  0 0.13924655E+03</rscale>
<asrwt>0</asrwt>
<pdfrwt beam="2">  1        5 0.76744897E-01 0.13924746E+03</pdfrwt>
<pdfrwt beam="1">  1       -5 0.60090827E-02 0.13924746E+03</pdfrwt>
<totfact> 0.20678361E+02</totfact>
</mgrwt>
</event>
<event>
 8    1  0.1865596E-007  0.1358462E+03  0.7546771E-02  0.1219031E+00
          5   -1    0    0  501    0  0.00000000000E+00  0.00000000000E+00  0.43224959895E+02  0.43479732726E+02  0.47000000000E+01 0. -1.
         -5   -1    0    0    0  501 -0.00000000000E+00 -0.00000000000E+00 -0.54497663035E+03  0.54499689690E+03  0.47000000000E+01 0. -1.
         25    2    1    2    0    0  0.14017336161E+02 -0.51310039740E+02 -0.38866765026E+03  0.41172409956E+03  0.12499994365E+03 0.  0.
         25    2    1    2    0    0 -0.14017336161E+02  0.51310039740E+02 -0.11308402020E+03  0.17675253006E+03  0.12499702144E+03 0.  0.
          5    1    4    4  502    0 -0.30546047311E+02  0.86936369711E+02 -0.58156734319E+02  0.10906552678E+03  0.47000000000E+01 0. -1.
         -5    1    4    4    0  502  0.16528711150E+02 -0.35626329971E+02 -0.54927285879E+02  0.67687003283E+02  0.47000000000E+01 0. -1.
          5    1    3    3  503    0  0.65766090047E+02 -0.94224764291E+01 -0.23344938459E+03  0.24276463257E+03  0.47000000000E+01 0.  1.
         -5    1    3    3    0  503 -0.51748753886E+02 -0.41887563311E+02 -0.15521826567E+03  0.16895946699E+03  0.47000000000E+01 0.  1.
<mgrwt>
<rscale>  0 0.13584553E+03</rscale>
<asrwt>0</asrwt>
<pdfrwt beam="1">  1        5 0.66711511E-02 0.13584621E+03</pdfrwt>
<pdfrwt beam="2">  1       -5 0.83863710E-01 0.13584621E+03</pdfrwt>
<totfact> 0.14003867E+02</totfact>
</mgrwt>
</event>
<event>
 8    1  0.1865596E-007  0.1309998E+03  0.7546771E-02  0.1225983E+00
         -5   -1    0    0    0  501 -0.00000000000E+00  0.00000000000E+00  0.28966496192E+03  0.28970308967E+03  0.47000000000E+01 0. -1.
          5   -1    0    0  501    0  0.00000000000E+00 -0.00000000000E+00 -0.60495830815E+02  0.60678130706E+02  0.47000000000E+01 0. -1.
         25    2    1    2    0    0  0.36521228937E+02  0.14102037698E+02  0.14110929650E+03  0.19254293065E+03  0.12501311513E+03 0.  0.
         25    2    1    2    0    0 -0.36521228937E+02 -0.14102037698E+02  0.88059834606E+02  0.15783828972E+03  0.12500289437E+03 0.  0.
          5    1    4    4  502    0  0.39186721486E+02  0.21498921133E+02  0.45118045547E+02  0.63683049430E+02  0.47000000000E+01 0. -1.
         -5    1    4    4    0  502 -0.75707950424E+02 -0.35600958831E+02  0.42941789060E+02  0.94155240293E+02  0.47000000000E+01 0. -1.
          5    1    3    3  503    0 -0.14394934831E+02 -0.48067527637E+02  0.50561917653E+02  0.71388366550E+02  0.47000000000E+01 0.  1.
         -5    1    3    3    0  503  0.50916163769E+02  0.62169565335E+02  0.90547378843E+02  0.12115456410E+03  0.47000000000E+01 0.  1.
<mgrwt>
<rscale>  0 0.13099736E+03</rscale>
<asrwt>0</asrwt>
<pdfrwt beam="2">  1        5 0.93240069E-02 0.13099980E+03</pdfrwt>
<pdfrwt beam="1">  1       -5 0.44580796E-01 0.13099980E+03</pdfrwt>
<totfact> 0.31277674E+02</totfact>
</mgrwt>
</event>
<event>
 8    1  0.1865596E-007  0.1543967E+03  0.7546771E-02  0.1195174E+00
         -5   -1    0    0    0  501 -0.00000000000E+00  0.00000000000E+00  0.77253934472E+03  0.77255364160E+03  0.47000000000E+01 0.  1.
          5   -1    0    0  501    0  0.00000000000E+00 -0.00000000000E+00 -0.31060068781E+02  0.31413657423E+02  0.47000000000E+01 0.  1.
         25    2    1    2    0    0 -0.90613431754E+02  0.13147837804E+01  0.32550522433E+03  0.36026653624E+03  0.12500321354E+03 0.  0.
         25    2    1    2    0    0  0.90613431754E+02 -0.13147837804E+01  0.41597405161E+03  0.44370076278E+03  0.12499373028E+03 0.  0.
          5    1    3    3  502    0 -0.27027180405E+01 -0.51421977916E+02  0.11408708891E+03  0.12525764789E+03  0.47000000000E+01 0. -1.
         -5    1    3    3    0  502 -0.87910713713E+02  0.52736761697E+02  0.21141813542E+03  0.23500888835E+03  0.47000000000E+01 0. -1.
          5    1    4    4  503    0  0.41074360907E+02 -0.58962381008E+02  0.14030491828E+03  0.15770613682E+03  0.47000000000E+01 0. -1.
         -5    1    4    4    0  503  0.49539070847E+02  0.57647597228E+02  0.27566913333E+03  0.28599462596E+03  0.47000000000E+01 0. -1.
<mgrwt>
<rscale>  0 0.15439473E+03</rscale>
<asrwt>0</asrwt>
<pdfrwt beam="2">  1        5 0.48067719E-02 0.15439665E+03</pdfrwt>
<pdfrwt beam="1">  1       -5 0.11888048E+00 0.15439665E+03</pdfrwt>
<totfact> 0.10799343E+02</totfact>
</mgrwt>
</event>
<event>
 8    1  0.1865596E-007  0.1472786E+03  0.7546771E-02  0.1203862E+00
          5   -1    0    0  501    0  0.00000000000E+00  0.00000000000E+00  0.35547855754E+02  0.35857217526E+02  0.47000000000E+01 0. -1.
         -5   -1    0    0    0  501 -0.00000000000E+00 -0.00000000000E+00 -0.60726998733E+03  0.60728817501E+03  0.47000000000E+01 0. -1.
         25    2    1    2    0    0  0.57123250912E+02  0.52900885216E+02 -0.28989609070E+03  0.32516263454E+03  0.12501770293E+03 0.  0.
         25    2    1    2    0    0 -0.57123250912E+02 -0.52900885216E+02 -0.28182604087E+03  0.31798275799E+03  0.12500219045E+03 0.  0.
          5    1    3    3  502    0  0.42792139851E+02  0.14684585220E+01 -0.26049059481E+03  0.26402795986E+03  0.47000000000E+01 0. -1.
         -5    1    3    3    0  502  0.14331111061E+02  0.51432426694E+02 -0.29405495893E+02  0.61134674683E+02  0.47000000000E+01 0. -1.
          5    1    4    4  503    0 -0.30809392426E+02 -0.83805242723E+02 -0.25200605097E+03  0.26739797511E+03  0.47000000000E+01 0.  1.
         -5    1    4    4    0  503 -0.26313858486E+02  0.30904357506E+02 -0.29819989901E+02  0.50584782880E+02  0.47000000000E+01 0.  1.
<mgrwt>
<rscale>  0 0.14727534E+03</rscale>
<asrwt>0</asrwt>
<pdfrwt beam="1">  1        5 0.54940974E-02 0.14727863E+03</pdfrwt>
<pdfrwt beam="2">  1       -5 0.93451340E-01 0.14727863E+03</pdfrwt>
<totfact> 0.15425651E+02</totfact>
</mgrwt>
</event>
<event>
 8    1  0.1865596E-007  0.1341069E+03  0.7546771E-02  0.1221493E+00
          5   -1    0    0  501    0  0.00000000000E+00  0.00000000000E+00  0.27464076968E+02  0.27863336550E+02  0.47000000000E+01 0.  1.
         -5   -1    0    0    0  501 -0.00000000000E+00 -0.00000000000E+00 -0.90731907901E+03  0.90733125216E+03  0.47000000000E+01 0.  1.
         25    2    1    2    0    0 -0.48274519422E+02 -0.49069554810E+01 -0.68909571087E+03  0.70202390074E+03  0.12502060243E+03 0.  0.
         25    2    1    2    0    0  0.48274519422E+02  0.49069554810E+01 -0.19075929118E+03  0.23317068797E+03  0.12499982048E+03 0.  0.
          5    1    4    4  502    0 -0.45579448307E+01 -0.46028058770E+02 -0.12905947236E+03  0.13717796638E+03  0.47000000000E+01 0.  1.
         -5    1    4    4    0  502  0.52832464253E+02  0.50935014251E+02 -0.61699818820E+02  0.95992721590E+02  0.47000000000E+01 0.  1.
          5    1    3    3  503    0 -0.13876144647E+02 -0.91375397719E+01 -0.64727794369E+03  0.64750819949E+03  0.47000000000E+01 0.  1.
         -5    1    3    3    0  503 -0.34398374775E+02  0.42305842908E+01 -0.41817767184E+02  0.54515701251E+02  0.47000000000E+01 0.  1.
<mgrwt>
<rscale>  0 0.13410205E+03</rscale>
<asrwt>0</asrwt>
<pdfrwt beam="1">  1        5 0.42568920E-02 0.13410689E+03</pdfrwt>
<pdfrwt beam="2">  1       -5 0.13961918E+00 0.13410689E+03</pdfrwt>
<totfact> 0.83173580E+01</totfact>
</mgrwt>
</event>
<event>
 8    1  0.1865596E-007  0.1452949E+03  0.7546771E-02  0.1206379E+00
         -5   -1    0    0    0  501 -0.00000000000E+00  0.00000000000E+00  0.16589800697E+04  0.16589867274E+04  0.47000000000E+01 0.  1.
          5   -1    0    0  501    0  0.00000000000E+00 -0.00000000000E+00 -0.12303209509E+02  0.13170382083E+02  0.47000000000E+01 0.  1.
         25    2    1    2    0    0 -0.74018252228E+02  0.27968257450E+01  0.79104056320E+03  0.80427344631E+03  0.12499631959E+03 0.  0.
         25    2    1    2    0    0  0.74018252228E+02 -0.27968257450E+01  0.85563629701E+03  0.86788366319E+03  0.12498822411E+03 0.  0.
          5    1    3    3  502    0 -0.19275716110E+02 -0.43751426150E+02  0.11818675315E+03  0.12757718895E+03  0.47000000000E+01 0.  1.
         -5    1    3    3    0  502 -0.54742536118E+02  0.46548251895E+02  0.67285381005E+03  0.67669625735E+03  0.47000000000E+01 0.  1.
          5    1    4    4  503    0 -0.54153109607E+01 -0.51404335787E+02  0.32457102787E+03  0.32869465080E+03  0.47000000000E+01 0.  1.
         -5    1    4    4    0  503  0.79433563189E+02  0.48607510042E+02  0.53106526915E+03  0.53918901239E+03  0.47000000000E+01 0.  1.
<mgrwt>
<rscale>  0 0.14529314E+03</rscale>
<asrwt>0</asrwt>
<pdfrwt beam="2">  1        5 0.19600212E-02 0.14529489E+03</pdfrwt>
<pdfrwt beam="1">  1       -5 0.25529466E+00 0.14529489E+03</pdfrwt>
<totfact> 0.46562218E+01</totfact>
</mgrwt>
</event>
<event>
 8    1  0.1865596E-007  0.1709252E+03  0.7546771E-02  0.1176886E+00
         -5   -1    0    0    0  501 -0.00000000000E+00  0.00000000000E+00  0.35163332098E+02  0.35476047191E+02  0.47000000000E+01 0. -1.
          5   -1    0    0  501    0  0.00000000000E+00 -0.00000000000E+00 -0.83597520588E+03  0.83598841789E+03  0.47000000000E+01 0. -1.
         25    2    1    2    0    0  0.70120177055E+02 -0.93130832936E+02 -0.35489265446E+03  0.39390891642E+03  0.12500098789E+03 0.  0.
         25    2    1    2    0    0 -0.70120177055E+02  0.93130832936E+02 -0.44591921932E+03  0.47755554865E+03  0.12500064248E+03 0.  0.
          5    1    4    4  502    0 -0.10908944490E+02  0.10844613188E+03 -0.30242264679E+03  0.32149823620E+03  0.47000000000E+01 0. -1.
         -5    1    4    4    0  502 -0.59211232564E+02 -0.15315298939E+02 -0.14349657253E+03  0.15605731246E+03  0.47000000000E+01 0. -1.
          5    1    3    3  503    0  0.31816116209E+01 -0.84427877577E+02 -0.10412582626E+03  0.13417327178E+03  0.47000000000E+01 0. -1.
         -5    1    3    3    0  503  0.66938565434E+02 -0.87029553594E+01 -0.25076682820E+03  0.25973564465E+03  0.47000000000E+01 0. -1.
<mgrwt>
<rscale>  0 0.17092518E+03</rscale>
<asrwt>0</asrwt>
<pdfrwt beam="2">  1        5 0.12863663E+00 0.17092524E+03</pdfrwt>
<pdfrwt beam="1">  1       -5 0.54348154E-02 0.17092524E+03</pdfrwt>
<totfact> 0.73924221E+01</totfact>
</mgrwt>
</event>
<event>
 8    1  0.1865596E-007  0.1275363E+03  0.7546771E-02  0.1231159E+00
         -5   -1    0    0    0  501 -0.00000000000E+00  0.00000000000E+00  0.22551721002E+02  0.23036278348E+02  0.47000000000E+01 0. -1.
          5   -1    0    0  501    0  0.00000000000E+00 -0.00000000000E+00 -0.72538485856E+03  0.72540008480E+03  0.47000000000E+01 0. -1.
         25    2    1    2    0    0 -0.24817370344E+02 -0.50665504197E+01 -0.30267275727E+03  0.32844368619E+03  0.12499154052E+03 0.  0.
         25    2    1    2    0    0  0.24817370344E+02  0.50665504197E+01 -0.40016038029E+03  0.41999267696E+03  0.12499578769E+03 0.  0.
          5    1    3    3  502    0 -0.58369818484E+02  0.35457711683E+02 -0.21939289380E+03  0.22982518765E+03  0.47000000000E+01 0. -1.
         -5    1    3    3    0  502  0.33552448140E+02 -0.40524262103E+02 -0.83279863468E+02  0.98618498540E+02  0.47000000000E+01 0. -1.
          5    1    4    4  503    0 -0.50732110905E+02  0.78123402682E+01 -0.14938272628E+03  0.15802553164E+03  0.47000000000E+01 0.  1.
         -5    1    4    4    0  503  0.75549481249E+02 -0.27457898485E+01 -0.25077765401E+03  0.26196714532E+03  0.47000000000E+01 0.  1.
<mgrwt>
<rscale>  0 0.12753530E+03</rscale>
<asrwt>0</asrwt>
<pdfrwt beam="2">  1        5 0.11163610E+00 0.12753634E+03</pdfrwt>
<pdfrwt beam="1">  1       -5 0.35079410E-02 0.12753634E+03</pdfrwt>
<totfact> 0.19945209E+02</totfact>
</mgrwt>
</event>
<event>
 8    1  0.1865596E-007  0.1381018E+03  0.7546771E-02  0.1215919E+00
          5   -1    0    0  501    0  0.00000000000E+00  0.00000000000E+00  0.86437173720E+02  0.86564860080E+02  0.47000000000E+01 0. -1.
         -5   -1    0    0    0  501 -0.00000000000E+00 -0.00000000000E+00 -0.24411626307E+03  0.24416150371E+03  0.47000000000E+01 0. -1.
         25    2    1    2    0    0  0.53429823772E+02 -0.24135971187E+02 -0.13051030801E+03  0.19001325134E+03  0.12503920991E+03 0.  0.
         25    2    1    2    0    0 -0.53429823772E+02  0.24135971187E+02 -0.27168781347E+02  0.14071311245E+03  0.12499898465E+03 0.  0.
          5    1    4    4  502    0 -0.44752838702E+02  0.72534347547E+02 -0.22482712528E+01  0.85388482066E+02  0.47000000000E+01 0.  1.
         -5    1    4    4    0  502 -0.86769850692E+01 -0.48398376360E+02 -0.24920510094E+02  0.55324630388E+02  0.47000000000E+01 0.  1.
          5    1    3    3  503    0  0.74123990993E+02 -0.60615090349E+02 -0.88745091625E+02  0.13063818931E+03  0.47000000000E+01 0. -1.
         -5    1    3    3    0  503 -0.20694167221E+02  0.36479119162E+02 -0.41765216380E+02  0.59375062030E+02  0.47000000000E+01 0. -1.
<mgrwt>
<rscale>  0 0.13809265E+03</rscale>
<asrwt>0</asrwt>
<pdfrwt beam="1">  1        5 0.13311329E-01 0.13810176E+03</pdfrwt>
<pdfrwt beam="2">  1       -5 0.37569650E-01 0.13810176E+03</pdfrwt>
<totfact> 0.24176116E+02</totfact>
</mgrwt>
</event>
<event>
 8    1  0.1865596E-007  0.1315288E+03  0.7546771E-02  0.1225206E+00
          5   -1    0    0  501    0  0.00000000000E+00  0.00000000000E+00  0.28258594491E+03  0.28262502766E+03  0.47000000000E+01 0.  1.
         -5   -1    0    0    0  501 -0.00000000000E+00 -0.00000000000E+00 -0.61839171985E+02  0.62017523264E+02  0.47000000000E+01 0.  1.
         25    2    1    2    0    0  0.20140145270E+02 -0.35619481268E+02  0.91373013964E+02  0.16015031246E+03  0.12499888800E+03 0.  0.
         25    2    1    2    0    0 -0.20140145270E+02  0.35619481268E+02  0.12937375896E+03  0.18449223847E+03  0.12500177459E+03 0.  0.
          5    1    3    3  502    0  0.41489413533E+02 -0.61384870986E+02  0.13764594811E+02  0.75505151425E+02  0.47000000000E+01 0. -1.
         -5    1    3    3    0  502 -0.21349268264E+02  0.25765389719E+02  0.77608419153E+02  0.84645161032E+02  0.47000000000E+01 0. -1.
          5    1    4    4  503    0 -0.36830084427E+02 -0.18107443508E+02  0.12044888345E+03  0.12733561227E+03  0.47000000000E+01 0.  1.
         -5    1    4    4    0  503  0.16689939157E+02  0.53726924776E+02  0.89248755125E+01  0.57156626193E+02  0.47000000000E+01 0.  1.
<mgrwt>
<rscale>  0 0.13152808E+03</rscale>
<asrwt>0</asrwt>
<pdfrwt beam="1">  1        5 0.43491486E-01 0.13152877E+03</pdfrwt>
<pdfrwt beam="2">  1       -5 0.95304445E-02 0.13152877E+03</pdfrwt>
<totfact> 0.31743197E+02</totfact>
</mgrwt>
</event>
<event>
 8    1  0.1865596E-007  0.1404612E+03  0.7546771E-02  0.1212712E+00
          5   -1    0    0  501    0  0.00000000000E+00  0.00000000000E+00  0.42497346497E+03  0.42499945403E+03  0.47000000000E+01 0. -1.
         -5   -1    0    0    0  501 -0.00000000000E+00 -0.00000000000E+00 -0.55297338163E+02  0.55496717091E+02  0.47000000000E+01 0. -1.
         25    2    1    2    0    0  0.63083949598E+02  0.11176078214E+02  0.88014020505E+02  0.16575357772E+03  0.12499316502E+03 0.  0.
         25    2    1    2    0    0 -0.63083949598E+02 -0.11176078214E+02  0.28166210630E+03  0.31474259340E+03  0.12499947421E+03 0.  0.
          5    1    4    4  502    0 -0.53103731351E+02 -0.70158430563E+01  0.27662056080E+02  0.60469063857E+02  0.47000000000E+01 0. -1.
         -5    1    4    4    0  502 -0.99802182472E+01 -0.41602351578E+01  0.25400005022E+03  0.25427352954E+03  0.47000000000E+01 0. -1.
          5    1    3    3  503    0 -0.37088602140E+02  0.72507154481E+01  0.12238921759E+02  0.40000231112E+02  0.47000000000E+01 0. -1.
         -5    1    3    3    0  503  0.10017255174E+03  0.39253627660E+01  0.75775098746E+02  0.12575334661E+03  0.47000000000E+01 0. -1.
<mgrwt>
<rscale>  0 0.14045983E+03</rscale>
<asrwt>0</asrwt>
<pdfrwt beam="1">  1        5 0.65397868E-01 0.14046123E+03</pdfrwt>
<pdfrwt beam="2">  1       -5 0.85246189E-02 0.14046123E+03</pdfrwt>
<totfact> 0.16417193E+02</totfact>
</mgrwt>
</event>
<event>
 8    1  0.1865596E-007  0.1270753E+03  0.7546771E-02  0.1231864E+00
         -5   -1    0    0    0  501 -0.00000000000E+00  0.00000000000E+00  0.76526288024E+02  0.76670481665E+02  0.47000000000E+01 0. -1.
          5   -1    0    0  501    0  0.00000000000E+00 -0.00000000000E+00 -0.21259496755E+03  0.21264691445E+03  0.47000000000E+01 0. -1.
         25    2    1    2    0    0 -0.21963806792E+02  0.61893542621E+01 -0.54144637254E+02  0.13812322511E+03  0.12500266659E+03 0.  0.
         25    2    1    2    0    0  0.21963806792E+02 -0.61893542621E+01 -0.81924042269E+02  0.15119417101E+03  0.12500964655E+03 0.  0.
          5    1    3    3  502    0  0.12763268142E+02  0.58064650094E+02 -0.76108920322E+01  0.60120048917E+02  0.47000000000E+01 0. -1.
         -5    1    3    3    0  502 -0.34727074934E+02 -0.51875295832E+02 -0.46533745221E+02  0.78003176188E+02  0.47000000000E+01 0. -1.
          5    1    4    4  503    0  0.12617096073E+02  0.52040630605E+02 -0.47662720815E+01  0.53965041431E+02  0.47000000000E+01 0.  1.
         -5    1    4    4    0  503  0.93467107188E+01 -0.58229984867E+02 -0.77157770187E+02  0.97229129581E+02  0.47000000000E+01 0.  1.
<mgrwt>
<rscale>  0 0.12707357E+03</rscale>
<asrwt>0</asrwt>
<pdfrwt beam="2">  1        5 0.32722006E-01 0.12707529E+03</pdfrwt>
<pdfrwt beam="1">  1       -5 0.11788363E-01 0.12707529E+03</pdfrwt>
<totfact> 0.38427716E+02</totfact>
</mgrwt>
</event>
<event>
 8    1  0.1865596E-007  0.1485371E+03  0.7546771E-02  0.1202283E+00
          5   -1    0    0  501    0  0.00000000000E+00  0.00000000000E+00  0.10949311877E+03  0.10959394627E+03  0.47000000000E+01 0. -1.
         -5   -1    0    0    0  501 -0.00000000000E+00 -0.00000000000E+00 -0.20674366106E+03  0.20679707780E+03  0.47000000000E+01 0. -1.
         25    2    1    2    0    0  0.58509586955E+02 -0.54906203099E+02 -0.22919970665E+02  0.15029506878E+03  0.12500087896E+03 0.  0.
         25    2    1    2    0    0 -0.58509586955E+02  0.54906203099E+02 -0.74330571616E+02  0.16609595529E+03  0.12499907832E+03 0.  0.
          5    1    4    4  502    0 -0.84010740304E+02  0.30280987315E+02 -0.68021533125E+01  0.89683342761E+02  0.47000000000E+01 0. -1.
         -5    1    4    4    0  502  0.25501153349E+02  0.24625215784E+02 -0.67528418304E+02  0.76412612527E+02  0.47000000000E+01 0. -1.
          5    1    3    3  503    0  0.83812809720E+02 -0.76893986968E+02 -0.24353350208E+02  0.11641498173E+03  0.47000000000E+01 0. -1.
         -5    1    3    3    0  503 -0.25303222765E+02  0.21987783869E+02  0.14333795429E+01  0.33880087052E+02  0.47000000000E+01 0. -1.
<mgrwt>
<rscale>  0 0.14853676E+03</rscale>
<asrwt>0</asrwt>
<pdfrwt beam="1">  1        5 0.16856960E-01 0.14853714E+03</pdfrwt>
<pdfrwt beam="2">  1       -5 0.31818582E-01 0.14853714E+03</pdfrwt>
<totfact> 0.22527882E+02</totfact>
</mgrwt>
</event>
<event>
 8    1  0.1865596E-007  0.1338881E+03  0.7546771E-02  0.1221803E+00
         -5   -1    0    0    0  501 -0.00000000000E+00  0.00000000000E+00  0.35155402760E+02  0.35468187763E+02  0.47000000000E+01 0.  1.
          5   -1    0    0  501    0  0.00000000000E+00 -0.00000000000E+00 -0.51967039999E+03  0.51969165341E+03  0.47000000000E+01 0.  1.
         25    2    1    2    0    0  0.44844684276E+02  0.17013953352E+02 -0.19940583906E+03  0.24018473134E+03  0.12500198479E+03 0.  0.
         25    2    1    2    0    0 -0.44844684276E+02 -0.17013953352E+02 -0.28510915817E+03  0.31497510983E+03  0.12498626895E+03 0.  0.
          5    1    3    3  502    0  0.70485969016E+02  0.46552378903E+02 -0.88241786062E+02  0.12224605767E+03  0.47000000000E+01 0.  1.
         -5    1    3    3    0  502 -0.25641284740E+02 -0.29538425552E+02 -0.11116405300E+03  0.11793867367E+03  0.47000000000E+01 0.  1.
          5    1    4    4  503    0  0.21264801858E+02 -0.16225043060E+02 -0.22133578272E+03  0.22299565587E+03  0.47000000000E+01 0. -1.
         -5    1    4    4    0  503 -0.66109486134E+02 -0.78891029148E+00 -0.63773375440E+02  0.91979453964E+02  0.47000000000E+01 0. -1.
<mgrwt>
<rscale>  0 0.13388441E+03</rscale>
<asrwt>0</asrwt>
<pdfrwt beam="2">  1        5 0.79974982E-01 0.13388807E+03</pdfrwt>
<pdfrwt beam="1">  1       -5 0.54342191E-02 0.13388807E+03</pdfrwt>
<totfact> 0.21964837E+02</totfact>
</mgrwt>
</event>
<event>
 8    1  0.1865596E-007  0.1364929E+03  0.7546771E-02  0.1218128E+00
         -5   -1    0    0    0  501 -0.00000000000E+00  0.00000000000E+00  0.80631795690E+03  0.80633165485E+03  0.47000000000E+01 0.  1.
          5   -1    0    0  501    0  0.00000000000E+00 -0.00000000000E+00 -0.35879035925E+02  0.36185566445E+02  0.47000000000E+01 0.  1.
         25    2    1    2    0    0  0.97214423397E+01  0.53952298643E+02  0.63763163936E+03  0.65207699773E+03  0.12499978591E+03 0.  0.
         25    2    1    2    0    0 -0.97214423397E+01 -0.53952298643E+02  0.13280728161E+03  0.19044022357E+03  0.12499739091E+03 0.  0.
          5    1    3    3  502    0  0.39690423640E+02 -0.56652099550E+01  0.72334205723E+02  0.82835690678E+02  0.47000000000E+01 0. -1.
         -5    1    3    3    0  502 -0.29968981300E+02  0.59617508598E+02  0.56529743364E+03  0.56924130705E+03  0.47000000000E+01 0. -1.
          5    1    4    4  503    0 -0.37215437585E+02 -0.86021330997E+02  0.95410707984E+02  0.13382806649E+03  0.47000000000E+01 0.  1.
         -5    1    4    4    0  503  0.27493995246E+02  0.32069032354E+02  0.37396573624E+02  0.56612157082E+02  0.47000000000E+01 0.  1.
<mgrwt>
<rscale>  0 0.13649232E+03</rscale>
<asrwt>0</asrwt>
<pdfrwt beam="2">  1        5 0.55444851E-02 0.13649287E+03</pdfrwt>
<pdfrwt beam="1">  1       -5 0.12407354E+00 0.13649287E+03</pdfrwt>
<totfact> 0.73449740E+01</totfact>
</mgrwt>
</event>
<event>
 8    1  0.1865596E-007  0.1345230E+03  0.7546771E-02  0.1220899E+00
         -5   -1    0    0    0  501 -0.00000000000E+00  0.00000000000E+00  0.29856483794E+02  0.30224156309E+02  0.47000000000E+01 0.  1.
          5   -1    0    0  501    0  0.00000000000E+00 -0.00000000000E+00 -0.64566299631E+03  0.64568010253E+03  0.47000000000E+01 0.  1.
         25    2    1    2    0    0  0.49514751620E+02 -0.44362883497E+01 -0.22000537974E+03  0.25786722218E+03  0.12498698284E+03 0.  0.
         25    2    1    2    0    0 -0.49514751620E+02  0.44362883497E+01 -0.39580113278E+03  0.41803703666E+03  0.12500014411E+03 0.  0.
          5    1    4    4  502    0 -0.32772515733E+02 -0.59564401979E+02 -0.19462747795E+03  0.20621324144E+03  0.47000000000E+01 0. -1.
         -5    1    4    4    0  502 -0.16742235888E+02  0.64000690329E+02 -0.20117365483E+03  0.21182379522E+03  0.47000000000E+01 0. -1.
          5    1    3    3  503    0  0.37395573909E+02 -0.52112918410E+02 -0.18872436292E+03  0.19938194595E+03  0.47000000000E+01 0.  1.
         -5    1    3    3    0  503  0.12119177711E+02  0.47676630060E+02 -0.31281016820E+02  0.58485276228E+02  0.47000000000E+01 0.  1.
<mgrwt>
<rscale>  0 0.13451990E+03</rscale>
<asrwt>0</asrwt>
<pdfrwt beam="2">  1        5 0.99362356E-01 0.13452296E+03</pdfrwt>
<pdfrwt beam="1">  1       -5 0.46229041E-02 0.13452296E+03</pdfrwt>
<totfact> 0.17216473E+02</totfact>
</mgrwt>
</event>
<event>
 8    1  0.1865596E-007  0.1281918E+03  0.7546771E-02  0.1230165E+00
          5   -1    0    0  501    0  0.00000000000E+00  0.00000000000E+00  0.31630504265E+03  0.31633995955E+03  0.47000000000E+01 0. -1.
         -5   -1    0    0    0  501 -0.00000000000E+00 -0.00000000000E+00 -0.56334990569E+02  0.56530709905E+02  0.47000000000E+01 0. -1.
         25    2    1    2    0    0 -0.15127298282E+02  0.24069345289E+02  0.77248851993E+02  0.14966807823E+03  0.12499991989E+03 0.  0.
         25    2    1    2    0    0  0.15127298282E+02 -0.24069345289E+02  0.18272120009E+03  0.22320259122E+03  0.12499676488E+03 0.  0.
          5    1    4    4  502    0  0.50335957482E+02  0.14064913865E+02  0.15609604926E+03  0.16468028726E+03  0.47000000000E+01 0. -1.
         -5    1    4    4    0  502 -0.35208659200E+02 -0.38134259154E+02  0.26625150825E+02  0.58522303957E+02  0.47000000000E+01 0. -1.
          5    1    3    3  503    0  0.49070633561E+01  0.42938473775E+02  0.10292975325E+03  0.11173368295E+03  0.47000000000E+01 0. -1.
         -5    1    3    3    0  503 -0.20034361638E+02 -0.18869128486E+02 -0.25680901258E+02  0.37934395283E+02  0.47000000000E+01 0. -1.
<mgrwt>
<rscale>  0 0.12819107E+03</rscale>
<asrwt>0</asrwt>
<pdfrwt beam="1">  1        5 0.48680056E-01 0.12819184E+03</pdfrwt>
<pdfrwt beam="2">  1       -5 0.86846628E-02 0.12819184E+03</pdfrwt>
<totfact> 0.29187149E+02</totfact>
</mgrwt>
</event>
<event>
 8    1  0.1865596E-007  0.1263184E+03  0.7546771E-02  0.1233025E+00
          5   -1    0    0  501    0  0.00000000000E+00  0.00000000000E+00  0.12741078367E+03  0.12749744231E+03  0.47000000000E+01 0.  1.
         -5   -1    0    0    0  501 -0.00000000000E+00 -0.00000000000E+00 -0.12515324885E+03  0.12524146956E+03  0.47000000000E+01 0.  1.
         25    2    1    2    0    0  0.14243585738E+02  0.11309834355E+02 -0.23737828110E+01  0.12633567810E+03  0.12499710648E+03 0.  0.
         25    2    1    2    0    0 -0.14243585738E+02 -0.11309834355E+02  0.46313176325E+01  0.12640323378E+03  0.12500214526E+03 0.  0.
          5    1    3    3  502    0 -0.10752267082E+01 -0.39881187924E+02 -0.43151084518E+02  0.58955672820E+02  0.47000000000E+01 0.  1.
         -5    1    3    3    0  502  0.15318812446E+02  0.51191022278E+02  0.40777301707E+02  0.67380005277E+02  0.47000000000E+01 0.  1.
          5    1    4    4  503    0 -0.55733254095E+01 -0.56685471212E+02 -0.33562553143E+02  0.66278500105E+02  0.47000000000E+01 0. -1.
         -5    1    4    4    0  503 -0.86702603286E+01  0.45375636857E+02  0.38193870776E+02  0.60124733672E+02  0.47000000000E+01 0. -1.
<mgrwt>
<rscale>  0 0.12631711E+03</rscale>
<asrwt>0</asrwt>
<pdfrwt beam="1">  1        5 0.19615111E-01 0.12631836E+03</pdfrwt>
<pdfrwt beam="2">  1       -5 0.19267798E-01 0.12631836E+03</pdfrwt>
<totfact> 0.42062223E+02</totfact>
</mgrwt>
</event>
<event>
 8    1  0.1865596E-007  0.1397913E+03  0.7546771E-02  0.1213611E+00
          5   -1    0    0  501    0  0.00000000000E+00  0.00000000000E+00  0.16879699001E+03  0.16886241096E+03  0.47000000000E+01 0. -1.
         -5   -1    0    0    0  501 -0.00000000000E+00 -0.00000000000E+00 -0.11569763304E+03  0.11579305804E+03  0.47000000000E+01 0. -1.
         25    2    1    2    0    0  0.53903769310E+02 -0.31805775980E+02  0.23154241399E+02  0.14169594205E+03  0.12499758945E+03 0.  0.
         25    2    1    2    0    0 -0.53903769310E+02  0.31805775980E+02  0.29945115570E+02  0.14295952695E+03  0.12499397053E+03 0.  0.
          5    1    4    4  502    0 -0.54146547381E+02  0.66614247901E+02 -0.13569228922E+02  0.87037466589E+02  0.47000000000E+01 0. -1.
         -5    1    4    4    0  502  0.24277807091E+00 -0.34808471921E+02  0.43514344492E+02  0.55922060363E+02  0.47000000000E+01 0. -1.
          5    1    3    3  503    0 -0.59033959240E+01  0.70051216099E+01  0.60295318136E+02  0.61168106079E+02  0.47000000000E+01 0.  1.
         -5    1    3    3    0  503  0.59807165234E+02 -0.38810897590E+02 -0.37141076736E+02  0.80527835971E+02  0.47000000000E+01 0.  1.
<mgrwt>
<rscale>  0 0.13979054E+03</rscale>
<asrwt>0</asrwt>
<pdfrwt beam="1">  1        5 0.25981140E-01 0.13979135E+03</pdfrwt>
<pdfrwt beam="2">  1       -5 0.17812009E-01 0.13979135E+03</pdfrwt>
<totfact> 0.29631482E+02</totfact>
</mgrwt>
</event>
<event>
 8    1  0.1865596E-007  0.1373966E+03  0.7546771E-02  0.1216877E+00
          5   -1    0    0  501    0  0.00000000000E+00  0.00000000000E+00  0.51241277475E+03  0.51243432919E+03  0.47000000000E+01 0. -1.
         -5   -1    0    0    0  501 -0.00000000000E+00 -0.00000000000E+00 -0.43469219333E+02  0.43722568879E+02  0.47000000000E+01 0. -1.
         25    2    1    2    0    0 -0.55511419665E+02 -0.13018355772E+02  0.12485246652E+03  0.18565012032E+03  0.12500733370E+03 0.  0.
         25    2    1    2    0    0  0.55511419665E+02  0.13018355772E+02  0.34409108890E+03  0.37050677775E+03  0.12500239836E+03 0.  0.
          5    1    3    3  502    0 -0.74915151916E+02 -0.61101280204E+01  0.18946292327E+02  0.77657360526E+02  0.47000000000E+01 0. -1.
         -5    1    3    3    0  502  0.19403732251E+02 -0.69082277515E+01  0.10590617419E+03  0.10799275980E+03  0.47000000000E+01 0. -1.
          5    1    4    4  503    0  0.19020773804E+02 -0.39076438031E+02  0.26653239810E+03  0.27009325627E+03  0.47000000000E+01 0. -1.
         -5    1    4    4    0  503  0.36490645861E+02  0.52094793803E+02  0.77558690802E+02  0.10041352148E+03  0.47000000000E+01 0. -1.
<mgrwt>
<rscale>  0 0.13739549E+03</rscale>
<asrwt>0</asrwt>
<pdfrwt beam="1">  1        5 0.78853881E-01 0.13739661E+03</pdfrwt>
<pdfrwt beam="2">  1       -5 0.67087186E-02 0.13739661E+03</pdfrwt>
<totfact> 0.16062693E+02</totfact>
</mgrwt>
</event>
<event>
 8    1  0.1865596E-007  0.1479467E+03  0.7546771E-02  0.1203020E+00
          5   -1    0    0  501    0  0.00000000000E+00  0.00000000000E+00  0.94318290344E+03  0.94319461372E+03  0.47000000000E+01 0. -1.
         -5   -1    0    0    0  501 -0.00000000000E+00 -0.00000000000E+00 -0.31978422633E+02  0.32321966433E+02  0.47000000000E+01 0. -1.
         25    2    1    2    0    0  0.52724590843E+01  0.78966361613E+02  0.19821108101E+03  0.24733541480E+03  0.12499475864E+03 0.  0.
         25    2    1    2    0    0 -0.52724590843E+01 -0.78966361613E+02  0.71299339980E+03  0.72818116535E+03  0.12499894530E+03 0.  0.
          5    1    3    3  502    0 -0.10429323129E+02 -0.32299634510E+02  0.60552204826E+02  0.69575115377E+02  0.47000000000E+01 0.  1.
         -5    1    3    3    0  502  0.15701782213E+02  0.11126599612E+03  0.13765887619E+03  0.17776029942E+03  0.47000000000E+01 0.  1.
          5    1    4    4  503    0  0.49625443352E+02 -0.62398651577E+02  0.27301003585E+03  0.28445183428E+03  0.47000000000E+01 0.  1.
         -5    1    4    4    0  503 -0.54897902436E+02 -0.16567710037E+02  0.43998336395E+03  0.44372933108E+03  0.47000000000E+01 0.  1.
<mgrwt>
<rscale>  0 0.14794580E+03</rscale>
<asrwt>0</asrwt>
<pdfrwt beam="1">  1        5 0.14513239E+00 0.14794668E+03</pdfrwt>
<pdfrwt beam="2">  1       -5 0.49470847E-02 0.14794668E+03</pdfrwt>
<totfact> 0.60224543E+01</totfact>
</mgrwt>
</event>
<event>
 8    1  0.1865596E-007  0.1369559E+03  0.7546771E-02  0.1217487E+00
         -5   -1    0    0    0  501 -0.00000000000E+00  0.00000000000E+00  0.47802155098E+03  0.47804465607E+03  0.47000000000E+01 0.  1.
          5   -1    0    0  501    0  0.00000000000E+00 -0.00000000000E+00 -0.42533335323E+02  0.42792226090E+02  0.47000000000E+01 0.  1.
         25    2    1    2    0    0 -0.41980253278E+02  0.36988143916E+02  0.29177734713E+03  0.32231800726E+03  0.12499765217E+03 0.  0.
         25    2    1    2    0    0  0.41980253278E+02 -0.36988143916E+02  0.14371086852E+03  0.19851887491E+03  0.12500586189E+03 0.  0.
          5    1    3    3  502    0 -0.16011464102E+02  0.32914968483E+02  0.86100159934E+01  0.37894386238E+02  0.47000000000E+01 0.  1.
         -5    1    3    3    0  502 -0.25968789176E+02  0.40731754328E+01  0.28316733114E+03  0.28442362102E+03  0.47000000000E+01 0.  1.
          5    1    4    4  503    0  0.55714761300E+02 -0.59405514103E+02  0.38938241619E+02  0.90395942347E+02  0.47000000000E+01 0. -1.
         -5    1    4    4    0  503 -0.13734508022E+02  0.22417370187E+02  0.10477262690E+03  0.10812293256E+03  0.47000000000E+01 0. -1.
<mgrwt>
<rscale>  0 0.13695407E+03</rscale>
<asrwt>0</asrwt>
<pdfrwt beam="2">  1        5 0.65652823E-02 0.13695594E+03</pdfrwt>
<pdfrwt beam="1">  1       -5 0.73563466E-01 0.13695594E+03</pdfrwt>
<totfact> 0.19512759E+02</totfact>
</mgrwt>
</event>
<event>
 8    1  0.1865596E-007  0.1319458E+03  0.7546771E-02  0.1224603E+00
          5   -1    0    0  501    0  0.00000000000E+00  0.00000000000E+00  0.11712618711E+03  0.11722044918E+03  0.47000000000E+01 0. -1.
         -5   -1    0    0    0  501 -0.00000000000E+00 -0.00000000000E+00 -0.15896376987E+03  0.15903323593E+03  0.47000000000E+01 0. -1.
         25    2    1    2    0    0 -0.39091722618E+02  0.15876871592E+02 -0.56459953721E+02  0.14351804997E+03  0.12501786458E+03 0.  0.
         25    2    1    2    0    0  0.39091722618E+02 -0.15876871592E+02  0.14622370960E+02  0.13273563515E+03  0.12499878911E+03 0.  0.
          5    1    4    4  502    0  0.56912977157E+02  0.41323847160E+02  0.17291088526E+02  0.72579742735E+02  0.47000000000E+01 0.  1.
         -5    1    4    4    0  502 -0.17821254539E+02 -0.57200718753E+02 -0.26687175664E+01  0.60155892418E+02  0.47000000000E+01 0.  1.
          5    1    3    3  503    0 -0.74441725767E+02 -0.15858659959E+02 -0.57918180671E+02  0.95758411030E+02  0.47000000000E+01 0. -1.
         -5    1    3    3    0  503  0.35350003148E+02  0.31735531552E+02  0.14582269507E+01  0.47759638936E+02  0.47000000000E+01 0. -1.
<mgrwt>
<rscale>  0 0.13194132E+03</rscale>
<asrwt>0</asrwt>
<pdfrwt beam="1">  1        5 0.18032008E-01 0.13194584E+03</pdfrwt>
<pdfrwt beam="2">  1       -5 0.24468559E-01 0.13194584E+03</pdfrwt>
<totfact> 0.31857898E+02</totfact>
</mgrwt>
</event>
<event>
 8    1  0.1865596E-007  0.1579732E+03  0.7546771E-02  0.1191006E+00
         -5   -1    0    0    0  501 -0.00000000000E+00  0.00000000000E+00  0.81225778399E+03  0.81227138178E+03  0.47000000000E+01 0.  1.
          5   -1    0    0  501    0  0.00000000000E+00 -0.00000000000E+00 -0.33377991364E+02  0.33707273807E+02  0.47000000000E+01 0.  1.
         25    2    1    2    0    0  0.91370235427E+01  0.96150349810E+02  0.51236679770E+03  0.53616720361E+03  0.12500863918E+03 0.  0.
         25    2    1    2    0    0 -0.91370235427E+01 -0.96150349810E+02  0.26651299493E+03  0.30981145198E+03  0.12500233736E+03 0.  0.
          5    1    3    3  502    0 -0.56023726838E+02  0.60101548963E+02  0.29951666225E+03  0.31061740956E+03  0.47000000000E+01 0. -1.
         -5    1    3    3    0  502  0.65160750381E+02  0.36048800847E+02  0.21285013546E+03  0.22554979405E+03  0.47000000000E+01 0. -1.
          5    1    4    4  503    0 -0.55356068022E+02 -0.96682756613E+02  0.18834938032E+03  0.21888222577E+03  0.47000000000E+01 0. -1.
         -5    1    4    4    0  503  0.46219044480E+02  0.53240680322E+00  0.78163614609E+02  0.90929226205E+02  0.47000000000E+01 0. -1.
<mgrwt>
<rscale>  0 0.15797196E+03</rscale>
<asrwt>0</asrwt>
<pdfrwt beam="2">  1        5 0.51614514E-02 0.15797321E+03</pdfrwt>
<pdfrwt beam="1">  1       -5 0.12498910E+00 0.15797321E+03</pdfrwt>
<totfact> 0.84918080E+01</totfact>
</mgrwt>
</event>
<event>
 8    1  0.1865596E-007  0.1279219E+03  0.7546771E-02  0.1230575E+00
         -5   -1    0    0    0  501 -0.00000000000E+00  0.00000000000E+00  0.19132629450E+03  0.19138401440E+03  0.47000000000E+01 0.  1.
          5   -1    0    0  501    0  0.00000000000E+00 -0.00000000000E+00 -0.86043251847E+02  0.86171521911E+02  0.47000000000E+01 0.  1.
         25    2    1    2    0    0 -0.41382626950E+01  0.26845600288E+02  0.40557570364E+02  0.13419739028E+03  0.12500484619E+03 0.  0.
         25    2    1    2    0    0  0.41382626950E+01 -0.26845600288E+02  0.64725472292E+02  0.14335814603E+03  0.12499743916E+03 0.  0.
          5    1    4    4  502    0 -0.22369633338E+02  0.22012278056E+02 -0.23144029546E+02  0.39276926872E+02  0.47000000000E+01 0.  1.
         -5    1    4    4    0  502  0.26507896033E+02 -0.48857878344E+02  0.87869501839E+02  0.10408121916E+03  0.47000000000E+01 0.  1.
          5    1    3    3  503    0 -0.26138087660E+02  0.19937921821E+02  0.80923600581E+02  0.87472507018E+02  0.47000000000E+01 0.  1.
         -5    1    3    3    0  503  0.21999824965E+02  0.69076784671E+01 -0.40366030217E+02  0.46724883261E+02  0.47000000000E+01 0.  1.
<mgrwt>
<rscale>  0 0.12792013E+03</rscale>
<asrwt>0</asrwt>
<pdfrwt beam="2">  1        5 0.13251731E-01 0.12792194E+03</pdfrwt>
<pdfrwt beam="1">  1       -5 0.29449121E-01 0.12792194E+03</pdfrwt>
<totfact> 0.38506240E+02</totfact>
</mgrwt>
</event>
<event>
 8    1  0.1865596E-007  0.2974586E+03  0.7546771E-02  0.1086518E+00
          5   -1    0    0  501    0  0.00000000000E+00  0.00000000000E+00  0.54077626826E+03  0.54079669221E+03  0.47000000000E+01 0. -1.
         -5   -1    0    0    0  501 -0.00000000000E+00 -0.00000000000E+00 -0.16356157148E+03  0.16362908563E+03  0.47000000000E+01 0. -1.
         25    2    1    2    0    0 -0.89295833050E+02 -0.25472195858E+03  0.18902575023E+03  0.35243613864E+03  0.12499390221E+03 0.  0.
         25    2    1    2    0    0  0.89295833050E+02  0.25472195858E+03  0.18818894655E+03  0.35198963920E+03  0.12499841807E+03 0.  0.
          5    1    4    4  502    0  0.13292543682E+01  0.74367265745E+01  0.58538564388E+02  0.59210854916E+02  0.47000000000E+01 0. -1.
         -5    1    4    4    0  502  0.87966578682E+02  0.24728523201E+03  0.12965038216E+03  0.29277878429E+03  0.47000000000E+01 0. -1.
          5    1    3    3  503    0  0.25009103176E+02 -0.33049741709E+02  0.40959799112E+01  0.41911904278E+02  0.47000000000E+01 0.  1.
         -5    1    3    3    0  503 -0.11430493623E+03 -0.22167221687E+03  0.18492977032E+03  0.31052423437E+03  0.47000000000E+01 0.  1.
<mgrwt>
<rscale>  0 0.29745814E+03</rscale>
<asrwt>0</asrwt>
<pdfrwt beam="1">  1        5 0.83203111E-01 0.29745861E+03</pdfrwt>
<pdfrwt beam="2">  1       -5 0.25170084E-01 0.29745861E+03</pdfrwt>
<totfact> 0.15964852E+01</totfact>
</mgrwt>
</event>
<event>
 8    1  0.1865596E-007  0.1553973E+03  0.7546771E-02  0.1193994E+00
          5   -1    0    0  501    0  0.00000000000E+00  0.00000000000E+00  0.37179270406E+02  0.37475167083E+02  0.47000000000E+01 0.  1.
         -5   -1    0    0    0  501 -0.00000000000E+00 -0.00000000000E+00 -0.65998104619E+03  0.65999778131E+03  0.47000000000E+01 0.  1.
         25    2    1    2    0    0  0.66584537162E+02  0.63953808113E+02 -0.36101287955E+03  0.39303615839E+03  0.12499412963E+03 0.  0.
         25    2    1    2    0    0 -0.66584537162E+02 -0.63953808113E+02 -0.26178889624E+03  0.30443679000E+03  0.12499897100E+03 0.  0.
          5    1    3    3  502    0 -0.28000114077E+02 -0.16697276723E+01 -0.25168663905E+02  0.37978230890E+02  0.47000000000E+01 0. -1.
         -5    1    3    3    0  502  0.94584651239E+02  0.65623535785E+02 -0.33584421564E+03  0.35505792750E+03  0.47000000000E+01 0. -1.
          5    1    4    4  503    0 -0.48984609400E+02  0.30024425343E+02 -0.75494636270E+02  0.94986778978E+02  0.47000000000E+01 0. -1.
         -5    1    4    4    0  503 -0.17599927763E+02 -0.93978233456E+02 -0.18629425997E+03  0.20945001103E+03  0.47000000000E+01 0. -1.
<mgrwt>
<rscale>  0 0.15539637E+03</rscale>
<asrwt>0</asrwt>
<pdfrwt beam="1">  1        5 0.57439368E-02 0.15539734E+03</pdfrwt>
<pdfrwt beam="2">  1       -5 0.10155959E+00 0.15539734E+03</pdfrwt>
<totfact> 0.11904653E+02</totfact>
</mgrwt>
</event>
<event>
 8    1  0.1865596E-007  0.2172061E+03  0.7546771E-02  0.1135984E+00
          5   -1    0    0  501    0  0.00000000000E+00  0.00000000000E+00  0.64193090109E+02  0.64364919154E+02  0.47000000000E+01 0. -1.
         -5   -1    0    0    0  501 -0.00000000000E+00 -0.00000000000E+00 -0.73778264038E+03  0.73779761076E+03  0.47000000000E+01 0. -1.
         25    2    1    2    0    0 -0.17357218714E+03 -0.37762017719E+02 -0.36637739964E+03  0.42592358992E+03  0.12500092540E+03 0.  0.
         25    2    1    2    0    0  0.17357218714E+03  0.37762017719E+02 -0.30721215063E+03  0.37623894000E+03  0.12499264115E+03 0.  0.
          5    1    3    3  502    0 -0.88083177692E+02  0.36043657476E+02 -0.10876487140E+03  0.14460179352E+03  0.47000000000E+01 0. -1.
         -5    1    3    3    0  502 -0.85489009451E+02 -0.73805675195E+02 -0.25761252823E+03  0.28132179640E+03  0.47000000000E+01 0. -1.
          5    1    4    4  503    0  0.16619736062E+03  0.72447168896E+02 -0.25302979093E+03  0.31131386101E+03  0.47000000000E+01 0.  1.
         -5    1    4    4    0  503  0.73748265185E+01 -0.34685151177E+02 -0.54182359707E+02  0.64925078990E+02  0.47000000000E+01 0.  1.
<mgrwt>
<rscale>  0 0.21720494E+03</rscale>
<asrwt>0</asrwt>
<pdfrwt beam="1">  1        5 0.98902297E-02 0.21720614E+03</pdfrwt>
<pdfrwt beam="2">  1       -5 0.11351939E+00 0.21720614E+03</pdfrwt>
<totfact> 0.38887949E+01</totfact>
</mgrwt>
</event>
<event>
 8    1  0.1865596E-007  0.1323042E+03  0.7546771E-02  0.1224077E+00
         -5   -1    0    0    0  501 -0.00000000000E+00  0.00000000000E+00  0.80957712462E+02  0.81094026950E+02  0.47000000000E+01 0.  1.
          5   -1    0    0  501    0  0.00000000000E+00 -0.00000000000E+00 -0.21588265270E+03  0.21593380869E+03  0.47000000000E+01 0.  1.
         25    2    1    2    0    0  0.25617197756E+01 -0.43275850749E+02 -0.66258628205E+02  0.14796822054E+03  0.12500010725E+03 0.  0.
         25    2    1    2    0    0 -0.25617197756E+01  0.43275850749E+02 -0.68666312030E+02  0.14905961510E+03  0.12499737909E+03 0.  0.
          5    1    3    3  502    0 -0.30600434954E+02 -0.21899574842E+02 -0.92756823752E+02  0.10020926280E+03  0.47000000000E+01 0.  1.
         -5    1    3    3    0  502  0.33162154730E+02 -0.21376275906E+02  0.26498195546E+02  0.47758957748E+02  0.47000000000E+01 0.  1.
          5    1    4    4  503    0  0.43046299209E+02  0.19367232663E+02 -0.82825268234E+02  0.95447308159E+02  0.47000000000E+01 0.  1.
         -5    1    4    4    0  503 -0.45608018984E+02  0.23908618086E+02  0.14158956204E+02  0.53612306938E+02  0.47000000000E+01 0.  1.
<mgrwt>
<rscale>  0 0.13230351E+03</rscale>
<asrwt>0</asrwt>
<pdfrwt beam="2">  1        5 0.33227136E-01 0.13230415E+03</pdfrwt>
<pdfrwt beam="1">  1       -5 0.12469454E-01 0.13230415E+03</pdfrwt>
<totfact> 0.34248827E+02</totfact>
</mgrwt>
</event>
<event>
 8    1  0.1865596E-007  0.1259525E+03  0.7546771E-02  0.1233590E+00
          5   -1    0    0  501    0  0.00000000000E+00  0.00000000000E+00  0.54666126783E+03  0.54668147192E+03  0.47000000000E+01 0.  1.
         -5   -1    0    0    0  501 -0.00000000000E+00 -0.00000000000E+00 -0.30974974470E+02  0.31329523510E+02  0.47000000000E+01 0.  1.
         25    2    1    2    0    0 -0.78761728530E+01  0.13285392572E+02  0.18186902218E+03  0.22122255560E+03  0.12499816848E+03 0.  0.
         25    2    1    2    0    0  0.78761728530E+01 -0.13285392572E+02  0.33381727118E+03  0.35678843983E+03  0.12500193801E+03 0.  0.
          5    1    3    3  502    0 -0.28501057481E+02 -0.34311432345E+02  0.15741836399E+03  0.16368327950E+03  0.47000000000E+01 0. -1.
         -5    1    3    3    0  502  0.20624884628E+02  0.47596824917E+02  0.24450658190E+02  0.57539276099E+02  0.47000000000E+01 0. -1.
          5    1    4    4  503    0  0.65516335317E+02 -0.10408977140E+02  0.15037458509E+03  0.16442427691E+03  0.47000000000E+01 0. -1.
         -5    1    4    4    0  503 -0.57640162464E+02 -0.28764154320E+01  0.18344268609E+03  0.19236416292E+03  0.47000000000E+01 0. -1.
<mgrwt>
<rscale>  0 0.12595152E+03</rscale>
<asrwt>0</asrwt>
<pdfrwt beam="1">  1        5 0.84130562E-01 0.12595245E+03</pdfrwt>
<pdfrwt beam="2">  1       -5 0.47942078E-02 0.12595245E+03</pdfrwt>
<totfact> 0.23534460E+02</totfact>
</mgrwt>
</event>
<event>
 8    1  0.1865596E-007  0.1453867E+03  0.7546771E-02  0.1206260E+00
          5   -1    0    0  501    0  0.00000000000E+00  0.00000000000E+00  0.20260808865E+03  0.20266259543E+03  0.47000000000E+01 0. -1.
         -5   -1    0    0    0  501 -0.00000000000E+00 -0.00000000000E+00 -0.10502227880E+03  0.10512739436E+03  0.47000000000E+01 0. -1.
         25    2    1    2    0    0 -0.47825123297E+02  0.56787159927E+02  0.35204769068E+02  0.14958540723E+03  0.12499757734E+03 0.  0.
         25    2    1    2    0    0  0.47825123297E+02 -0.56787159927E+02  0.62381040782E+02  0.15820458256E+03  0.12500108697E+03 0.  0.
          5    1    4    4  502    0  0.68414560961E+02 -0.37297632498E+02 -0.11524293942E+02  0.78908585669E+02  0.47000000000E+01 0. -1.
         -5    1    4    4    0  502 -0.20589437665E+02 -0.19489527429E+02  0.73905334724E+02  0.79295996894E+02  0.47000000000E+01 0. -1.
          5    1    3    3  503    0 -0.74701037843E+02  0.53279603476E+02 -0.14270641781E+02  0.92976891851E+02  0.47000000000E+01 0. -1.
         -5    1    3    3    0  503  0.26875914547E+02  0.35075564512E+01  0.49475410849E+02  0.56608515381E+02  0.47000000000E+01 0. -1.
<mgrwt>
<rscale>  0 0.14538596E+03</rscale>
<asrwt>0</asrwt>
<pdfrwt beam="1">  1        5 0.31182753E-01 0.14538671E+03</pdfrwt>
<pdfrwt beam="2">  1       -5 0.16169553E-01 0.14538671E+03</pdfrwt>
<totfact> 0.25120937E+02</totfact>
</mgrwt>
</event>
<event>
 8    1  0.1865596E-007  0.1270923E+03  0.7546771E-02  0.1231844E+00
         -5   -1    0    0    0  501 -0.00000000000E+00  0.00000000000E+00  0.99302123884E+02  0.99413287884E+02  0.47000000000E+01 0. -1.
          5   -1    0    0  501    0  0.00000000000E+00 -0.00000000000E+00 -0.16271775028E+03  0.16278561440E+03  0.47000000000E+01 0. -1.
         25    2    1    2    0    0  0.19001592943E+02 -0.12691600382E+02 -0.37553771173E+02  0.13250195645E+03  0.12499738189E+03 0.  0.
         25    2    1    2    0    0 -0.19001592943E+02  0.12691600382E+02 -0.25861855221E+02  0.12969694584E+03  0.12502129798E+03 0.  0.
          5    1    3    3  502    0 -0.42035667041E+02 -0.36150071715E+02 -0.37220660693E+02  0.66942457163E+02  0.47000000000E+01 0. -1.
         -5    1    3    3    0  502  0.61037259984E+02  0.23458471334E+02 -0.33311048020E+00  0.65559499284E+02  0.47000000000E+01 0. -1.
          5    1    4    4  503    0 -0.40087073158E+02  0.56473848795E+02  0.85891041778E+01  0.69943775582E+02  0.47000000000E+01 0.  1.
         -5    1    4    4    0  503  0.21085480215E+02 -0.43782248413E+02 -0.34450959398E+02  0.59753170255E+02  0.47000000000E+01 0.  1.
<mgrwt>
<rscale>  0 0.12708646E+03</rscale>
<asrwt>0</asrwt>
<pdfrwt beam="2">  1        5 0.25047271E-01 0.12709234E+03</pdfrwt>
<pdfrwt beam="1">  1       -5 0.15291021E-01 0.12709234E+03</pdfrwt>
<totfact> 0.40610824E+02</totfact>
</mgrwt>
</event>
<event>
 8    1  0.1865596E-007  0.1296716E+03  0.7546771E-02  0.1227945E+00
         -5   -1    0    0    0  501 -0.00000000000E+00  0.00000000000E+00  0.14764174410E+02  0.15494219762E+02  0.47000000000E+01 0.  1.
          5   -1    0    0  501    0  0.00000000000E+00 -0.00000000000E+00 -0.15413107948E+04  0.15413179607E+04  0.47000000000E+01 0.  1.
         25    2    1    2    0    0 -0.31318075051E+02  0.14430740007E+02 -0.35189663152E+03  0.37502652675E+03  0.12499835361E+03 0.  0.
         25    2    1    2    0    0  0.31318075051E+02 -0.14430740007E+02 -0.11746499888E+04  0.11817856537E+04  0.12500266814E+03 0.  0.
          5    1    4    4  502    0 -0.43804489916E+02 -0.72569705004E+01 -0.67188483522E+03  0.67336677877E+03  0.47000000000E+01 0. -1.
         -5    1    4    4    0  502  0.75122564967E+02 -0.71737695069E+01 -0.50276515361E+03  0.50841887497E+03  0.47000000000E+01 0. -1.
          5    1    3    3  503    0  0.19484526041E+02 -0.11114156472E+02 -0.28976858276E+03  0.29067351580E+03  0.47000000000E+01 0. -1.
         -5    1    3    3    0  503 -0.50802601091E+02  0.25544896479E+02 -0.62128048759E+02  0.84353010950E+02  0.47000000000E+01 0. -1.
<mgrwt>
<rscale>  0 0.12967060E+03</rscale>
<asrwt>0</asrwt>
<pdfrwt beam="2">  1        5 0.23718132E+00 0.12967164E+03</pdfrwt>
<pdfrwt beam="1">  1       -5 0.23281212E-02 0.12967164E+03</pdfrwt>
<totfact> 0.44753851E+01</totfact>
</mgrwt>
</event>
<event>
 8    1  0.1865596E-007  0.1372562E+03  0.7546771E-02  0.1217073E+00
          5   -1    0    0  501    0  0.00000000000E+00  0.00000000000E+00  0.66825245498E+02  0.66990323450E+02  0.47000000000E+01 0.  1.
         -5   -1    0    0    0  501 -0.00000000000E+00 -0.00000000000E+00 -0.28136153187E+03  0.28140078468E+03  0.47000000000E+01 0.  1.
         25    2    1    2    0    0  0.11779382621E+02  0.55440882471E+02 -0.10728219965E+03  0.17419954159E+03  0.12499425837E+03 0.  0.
         25    2    1    2    0    0 -0.11779382621E+02 -0.55440882471E+02 -0.10725408672E+03  0.17419156653E+03  0.12500726951E+03 0.  0.
          5    1    4    4  502    0  0.49980554509E+02 -0.48452096459E+02 -0.80035195679E+02  0.10617619332E+03  0.47000000000E+01 0.  1.
         -5    1    4    4    0  502 -0.61759937130E+02 -0.69887860118E+01 -0.27218891039E+02  0.68015373215E+02  0.47000000000E+01 0.  1.
          5    1    3    3  503    0  0.38881065355E+02 -0.27745186403E+02 -0.51164378542E+02  0.70152806382E+02  0.47000000000E+01 0. -1.
         -5    1    3    3    0  503 -0.27101682734E+02  0.83186068873E+02 -0.56117821111E+02  0.10404673521E+03  0.47000000000E+01 0. -1.
<mgrwt>
<rscale>  0 0.13725323E+03</rscale>
<asrwt>0</asrwt>
<pdfrwt beam="1">  1        5 0.10296525E-01 0.13725619E+03</pdfrwt>
<pdfrwt beam="2">  1       -5 0.43302106E-01 0.13725619E+03</pdfrwt>
<totfact> 0.28409643E+02</totfact>
</mgrwt>
</event>
<event>
 8    1  0.1865596E-007  0.1401506E+03  0.7546771E-02  0.1213127E+00
          5   -1    0    0  501    0  0.00000000000E+00  0.00000000000E+00  0.47391909825E+03  0.47394240335E+03  0.47000000000E+01 0.  1.
         -5   -1    0    0    0  501 -0.00000000000E+00 -0.00000000000E+00 -0.42657186044E+02  0.42915329676E+02  0.47000000000E+01 0.  1.
         25    2    1    2    0    0 -0.62232710991E+02  0.11996755499E+02  0.16949619688E+03  0.21993440962E+03  0.12500140526E+03 0.  0.
         25    2    1    2    0    0  0.62232710991E+02 -0.11996755499E+02  0.26176571533E+03  0.29692332340E+03  0.12500135119E+03 0.  0.
          5    1    4    4  502    0 -0.17580374450E+02 -0.39405692718E+02  0.15381478669E+03  0.15982164055E+03  0.47000000000E+01 0.  1.
         -5    1    4    4    0  502  0.79813085441E+02  0.27408937220E+02  0.10795092864E+03  0.13710168285E+03  0.47000000000E+01 0.  1.
          5    1    3    3  503    0  0.34152344909E+02 -0.17401954112E+02  0.56787597842E+02  0.68674099473E+02  0.47000000000E+01 0. -1.
         -5    1    3    3    0  503 -0.96385055900E+02  0.29398709610E+02  0.11270859904E+03  0.15126031014E+03  0.47000000000E+01 0. -1.
<mgrwt>
<rscale>  0 0.14015056E+03</rscale>
<asrwt>0</asrwt>
<pdfrwt beam="1">  1        5 0.72932285E-01 0.14015058E+03</pdfrwt>
<pdfrwt beam="2">  1       -5 0.65842935E-02 0.14015058E+03</pdfrwt>
<totfact> 0.19953673E+02</totfact>
</mgrwt>
</event>
<event>
 8    1  0.1865596E-007  0.1382413E+03  0.7546771E-02  0.1215716E+00
         -5   -1    0    0    0  501 -0.00000000000E+00  0.00000000000E+00  0.14603868477E+03  0.14611429584E+03  0.47000000000E+01 0.  1.
          5   -1    0    0  501    0  0.00000000000E+00 -0.00000000000E+00 -0.14497268426E+03  0.14504885102E+03  0.47000000000E+01 0.  1.
         25    2    1    2    0    0  0.58154212222E+02 -0.10182516753E+02  0.46174997731E+02  0.14574901190E+03  0.12500019203E+03 0.  0.
         25    2    1    2    0    0 -0.58154212222E+02  0.10182516753E+02 -0.45108997222E+02  0.14541413495E+03  0.12499941187E+03 0.  0.
          5    1    4    4  502    0  0.32608224752E+02 -0.38090482474E+01 -0.41855254711E+02  0.53401849377E+02  0.47000000000E+01 0. -1.
         -5    1    4    4    0  502 -0.90762436974E+02  0.13991565000E+02 -0.32537425106E+01  0.92012285576E+02  0.47000000000E+01 0. -1.
          5    1    3    3  503    0 -0.30278977163E+02  0.19250514815E+02  0.37360704403E+02  0.52012604359E+02  0.47000000000E+01 0. -1.
         -5    1    3    3    0  503  0.88433189386E+02 -0.29433031568E+02  0.88142933277E+01  0.93736407543E+02  0.47000000000E+01 0. -1.
<mgrwt>
<rscale>  0 0.13824108E+03</rscale>
<asrwt>0</asrwt>
<pdfrwt beam="2">  1        5 0.22315165E-01 0.13824125E+03</pdfrwt>
<pdfrwt beam="1">  1       -5 0.22479165E-01 0.13824125E+03</pdfrwt>
<totfact> 0.25552654E+02</totfact>
</mgrwt>
</event>
<event>
 8    1  0.1865596E-007  0.1284176E+03  0.7546771E-02  0.1229836E+00
         -5   -1    0    0    0  501 -0.00000000000E+00  0.00000000000E+00  0.85406763192E+02  0.85535987742E+02  0.47000000000E+01 0. -1.
          5   -1    0    0  501    0  0.00000000000E+00 -0.00000000000E+00 -0.19289561129E+03  0.19295286174E+03  0.47000000000E+01 0. -1.
         25    2    1    2    0    0  0.22747391930E+02  0.18699196103E+02 -0.49704163628E+02  0.13766932791E+03  0.12496093866E+03 0.  0.
         25    2    1    2    0    0 -0.22747391930E+02 -0.18699196103E+02 -0.57784684469E+02  0.14081952157E+03  0.12499585642E+03 0.  0.
          5    1    4    4  502    0  0.21706780614E+01  0.51911957349E+02 -0.33333767681E+02  0.61909556830E+02  0.47000000000E+01 0.  1.
         -5    1    4    4    0  502 -0.24918069991E+02 -0.70611153452E+02 -0.24450916788E+02  0.78909964743E+02  0.47000000000E+01 0.  1.
          5    1    3    3  503    0 -0.34147007740E+02  0.44117692498E+02 -0.50169673596E+02  0.75176293322E+02  0.47000000000E+01 0. -1.
         -5    1    3    3    0  503  0.56894399670E+02 -0.25418496395E+02  0.46550996770E+00  0.62493034591E+02  0.47000000000E+01 0. -1.
<mgrwt>
<rscale>  0 0.12840906E+03</rscale>
<asrwt>0</asrwt>
<pdfrwt beam="2">  1        5 0.29690592E-01 0.12841755E+03</pdfrwt>
<pdfrwt beam="1">  1       -5 0.13153846E-01 0.12841755E+03</pdfrwt>
<totfact> 0.38456182E+02</totfact>
</mgrwt>
</event>
<event>
 8    1  0.1865596E-007  0.1301046E+03  0.7546771E-02  0.1227302E+00
          5   -1    0    0  501    0  0.00000000000E+00  0.00000000000E+00  0.34993068855E+03  0.34996225052E+03  0.47000000000E+01 0. -1.
         -5   -1    0    0    0  501 -0.00000000000E+00 -0.00000000000E+00 -0.56444441295E+02  0.56639782425E+02  0.47000000000E+01 0. -1.
         25    2    1    2    0    0 -0.33401939081E+02 -0.13645031976E+02  0.69323832595E+02  0.14742119042E+03  0.12500134874E+03 0.  0.
         25    2    1    2    0    0  0.33401939081E+02  0.13645031976E+02  0.22416241466E+03  0.25918084252E+03  0.12499617815E+03 0.  0.
          5    1    3    3  502    0 -0.15793154646E+02  0.50425427151E+02  0.60115578720E+02  0.80175558881E+02  0.47000000000E+01 0.  1.
         -5    1    3    3    0  502 -0.17608784435E+02 -0.64070459127E+02  0.92082538754E+01  0.67245631542E+02  0.47000000000E+01 0.  1.
          5    1    4    4  503    0 -0.43348932751E+02  0.28076344187E+02  0.90083119781E+02  0.10394455033E+03  0.47000000000E+01 0.  1.
         -5    1    4    4    0  503  0.76750871832E+02 -0.14431312211E+02  0.13407929488E+03  0.15523629220E+03  0.47000000000E+01 0.  1.
<mgrwt>
<rscale>  0 0.13010338E+03</rscale>
<asrwt>0</asrwt>
<pdfrwt beam="1">  1        5 0.53852944E-01 0.13010463E+03</pdfrwt>
<pdfrwt beam="2">  1       -5 0.87012143E-02 0.13010463E+03</pdfrwt>
<totfact> 0.23597842E+02</totfact>
</mgrwt>
</event>
<event>
 8    1  0.1865596E-007  0.1541994E+03  0.7546771E-02  0.1195422E+00
         -5   -1    0    0    0  501 -0.00000000000E+00  0.00000000000E+00  0.13139874350E+04  0.13139958406E+04  0.47000000000E+01 0. -1.
          5   -1    0    0  501    0  0.00000000000E+00 -0.00000000000E+00 -0.17778429655E+02  0.18389196855E+02  0.47000000000E+01 0. -1.
         25    2    1    2    0    0 -0.28454510592E+02 -0.85634572906E+02  0.63942334947E+03  0.65775350608E+03  0.12503805684E+03 0.  0.
         25    2    1    2    0    0  0.28454510592E+02  0.85634572906E+02  0.65678565583E+03  0.67463153142E+03  0.12496946119E+03 0.  0.
          5    1    3    3  502    0 -0.53783305845E+02 -0.66037766752E+02  0.20381207772E+03  0.22094135794E+03  0.47000000000E+01 0.  1.
         -5    1    3    3    0  502  0.25328795254E+02 -0.19596806153E+02  0.43561127175E+03  0.43681214814E+03  0.47000000000E+01 0.  1.
          5    1    4    4  503    0 -0.26224573409E+02  0.91044942477E+02  0.48571281386E+03  0.49488982344E+03  0.47000000000E+01 0. -1.
         -5    1    4    4    0  503  0.54679084000E+02 -0.54103695716E+01  0.17107284197E+03  0.17974170798E+03  0.47000000000E+01 0. -1.
<mgrwt>
<rscale>  0 0.15418549E+03</rscale>
<asrwt>0</asrwt>
<pdfrwt beam="2">  1        5 0.27827709E-02 0.15419940E+03</pdfrwt>
<pdfrwt beam="1">  1       -5 0.20219960E+00 0.15419940E+03</pdfrwt>
<totfact> 0.59730151E+01</totfact>
</mgrwt>
</event>
<event>
 8    1  0.1865596E-007  0.1280284E+03  0.7546771E-02  0.1230413E+00
         -5   -1    0    0    0  501 -0.00000000000E+00  0.00000000000E+00  0.83517455327E+02  0.83649598590E+02  0.47000000000E+01 0.  1.
          5   -1    0    0  501    0  0.00000000000E+00 -0.00000000000E+00 -0.21562051165E+03  0.21567172982E+03  0.47000000000E+01 0.  1.
         25    2    1    2    0    0  0.23010003623E+02 -0.15369464512E+02 -0.20856553540E+02  0.12971612538E+03  0.12500238658E+03 0.  0.
         25    2    1    2    0    0 -0.23010003623E+02  0.15369464512E+02 -0.11124650278E+03  0.16960520303E+03  0.12499783922E+03 0.  0.
          5    1    3    3  502    0  0.31740543165E+02 -0.67606798217E+02 -0.10962483117E+02  0.75633374126E+02  0.47000000000E+01 0. -1.
         -5    1    3    3    0  502 -0.87305395423E+01  0.52237333705E+02 -0.98940704224E+01  0.54082751250E+02  0.47000000000E+01 0. -1.
          5    1    4    4  503    0 -0.43954124004E+02 -0.28720021203E+02 -0.10833749264E+03  0.12048197768E+03  0.47000000000E+01 0.  1.
         -5    1    4    4    0  503  0.20944120381E+02  0.44089485715E+02 -0.29090101463E+01  0.49123225354E+02  0.47000000000E+01 0.  1.
<mgrwt>
<rscale>  0 0.12802731E+03</rscale>
<asrwt>0</asrwt>
<pdfrwt beam="2">  1        5 0.33186491E-01 0.12802842E+03</pdfrwt>
<pdfrwt beam="1">  1       -5 0.12862944E-01 0.12802842E+03</pdfrwt>
<totfact> 0.32098017E+02</totfact>
</mgrwt>
</event>
<event>
 8    1  0.1865596E-007  0.2259196E+03  0.7546771E-02  0.1129546E+00
          5   -1    0    0  501    0  0.00000000000E+00  0.00000000000E+00  0.59158907793E+03  0.59160774769E+03  0.47000000000E+01 0.  1.
         -5   -1    0    0    0  501 -0.00000000000E+00 -0.00000000000E+00 -0.94768178491E+02  0.94884654473E+02  0.47000000000E+01 0.  1.
         25    2    1    2    0    0 -0.17165986392E+03 -0.77104861024E+02  0.14521184878E+03  0.26855866711E+03  0.12500003272E+03 0.  0.
         25    2    1    2    0    0  0.17165986392E+03  0.77104861024E+02  0.35160905065E+03  0.41793373505E+03  0.12500965529E+03 0.  0.
          5    1    4    4  502    0  0.85240656943E+02 -0.17511148990E+02  0.83287232459E+02  0.12054651810E+03  0.47000000000E+01 0. -1.
         -5    1    4    4    0  502  0.86419206975E+02  0.94616010014E+02  0.26832181820E+03  0.29738721695E+03  0.47000000000E+01 0. -1.
          5    1    3    3  503    0 -0.49101353118E+02 -0.50540458183E+02 -0.73640687382E+01  0.71004227337E+02  0.47000000000E+01 0. -1.
         -5    1    3    3    0  503 -0.12255851080E+03 -0.26564402841E+02  0.15257591752E+03  0.19755443977E+03  0.47000000000E+01 0. -1.
<mgrwt>
<rscale>  0 0.22591831E+03</rscale>
<asrwt>0</asrwt>
<pdfrwt beam="1">  1        5 0.91024097E-01 0.22591964E+03</pdfrwt>
<pdfrwt beam="2">  1       -5 0.14590116E-01 0.22591964E+03</pdfrwt>
<totfact> 0.33806221E+01</totfact>
</mgrwt>
</event>
<event>
 8    1  0.1865596E-007  0.1315780E+03  0.7546771E-02  0.1225134E+00
         -5   -1    0    0    0  501 -0.00000000000E+00  0.00000000000E+00  0.11605329270E+03  0.11614842551E+03  0.47000000000E+01 0. -1.
          5   -1    0    0  501    0  0.00000000000E+00 -0.00000000000E+00 -0.15224127975E+03  0.15231381178E+03  0.47000000000E+01 0. -1.
         25    2    1    2    0    0  0.37502422053E+02  0.16692967628E+02  0.15324845887E+01  0.13158692266E+03  0.12501073105E+03 0.  0.
         25    2    1    2    0    0 -0.37502422053E+02 -0.16692967628E+02 -0.37720471631E+02  0.13687531462E+03  0.12500772354E+03 0.  0.
          5    1    4    4  502    0 -0.26048878191E+01 -0.68592754653E+02 -0.17765067224E+02  0.71059405042E+02  0.47000000000E+01 0.  1.
         -5    1    4    4    0  502 -0.34897534234E+02  0.51899787024E+02 -0.19955404407E+02  0.65815909580E+02  0.47000000000E+01 0.  1.
          5    1    3    3  503    0  0.22999371342E+02 -0.45183421209E+02 -0.31433063309E+02  0.59838450041E+02  0.47000000000E+01 0.  1.
         -5    1    3    3    0  503  0.14503050711E+02  0.61876388838E+02  0.32965547897E+02  0.71748472623E+02  0.47000000000E+01 0.  1.
<mgrwt>
<rscale>  0 0.13157728E+03</rscale>
<asrwt>0</asrwt>
<pdfrwt beam="2">  1        5 0.23434633E-01 0.13157800E+03</pdfrwt>
<pdfrwt beam="1">  1       -5 0.17867250E-01 0.13157800E+03</pdfrwt>
<totfact> 0.35141936E+02</totfact>
</mgrwt>
</event>
<event>
 8    1  0.1865596E-007  0.1254561E+03  0.7546771E-02  0.1234362E+00
         -5   -1    0    0    0  501 -0.00000000000E+00  0.00000000000E+00  0.62634525823E+02  0.62810618729E+02  0.47000000000E+01 0. -1.
          5   -1    0    0  501    0  0.00000000000E+00 -0.00000000000E+00 -0.25317948484E+03  0.25322310626E+03  0.47000000000E+01 0. -1.
         25    2    1    2    0    0  0.30344351541E+01 -0.10244454563E+02 -0.11085441647E+03  0.16740729032E+03  0.12498936977E+03 0.  0.
         25    2    1    2    0    0 -0.30344351541E+01  0.10244454563E+02 -0.79690542548E+02  0.14862643467E+03  0.12500031146E+03 0.  0.
          5    1    4    4  502    0 -0.28012168623E+02 -0.33396456650E+02  0.10660207448E+02  0.45119119346E+02  0.47000000000E+01 0.  1.
         -5    1    4    4    0  502  0.24977733469E+02  0.43640911214E+02 -0.90350749996E+02  0.10350731532E+03  0.47000000000E+01 0.  1.
          5    1    3    3  503    0 -0.14866752002E+02  0.52719506342E+02 -0.73847295331E+02  0.92064540903E+02  0.47000000000E+01 0. -1.
         -5    1    3    3    0  503  0.17901187156E+02 -0.62963960905E+02 -0.37007121137E+02  0.75342749414E+02  0.47000000000E+01 0. -1.
<mgrwt>
<rscale>  0 0.12545338E+03</rscale>
<asrwt>0</asrwt>
<pdfrwt beam="2">  1        5 0.38967591E-01 0.12545611E+03</pdfrwt>
<pdfrwt beam="1">  1       -5 0.96529821E-02 0.12545611E+03</pdfrwt>
<totfact> 0.38224227E+02</totfact>
</mgrwt>
</event>
<event>
 8    1  0.1865596E-007  0.1602428E+03  0.7546771E-02  0.1188425E+00
         -5   -1    0    0    0  501 -0.00000000000E+00  0.00000000000E+00  0.40461251446E+03  0.40463981126E+03  0.47000000000E+01 0. -1.
          5   -1    0    0  501    0  0.00000000000E+00 -0.00000000000E+00 -0.77499099513E+02  0.77641486496E+02  0.47000000000E+01 0. -1.
         25    2    1    2    0    0 -0.83191063107E+02  0.55962585410E+02  0.26648961116E+03  0.31095408454E+03  0.12499266335E+03 0.  0.
         25    2    1    2    0    0  0.83191063107E+02 -0.55962585410E+02  0.60623803787E+02  0.17132721321E+03  0.12500081782E+03 0.  0.
          5    1    3    3  502    0 -0.49459186593E+02  0.95298448657E+02  0.19308117994E+03  0.22097610165E+03  0.47000000000E+01 0. -1.
         -5    1    3    3    0  502 -0.33731876514E+02 -0.39335863247E+02  0.73408431219E+02  0.89977982888E+02  0.47000000000E+01 0. -1.
          5    1    4    4  503    0  0.15239245877E+02 -0.55085753487E+02 -0.24449382735E+02  0.62342097881E+02  0.47000000000E+01 0.  1.
         -5    1    4    4    0  503  0.67951817230E+02 -0.87683192365E+00  0.85073186522E+02  0.10898511533E+03  0.47000000000E+01 0.  1.
<mgrwt>
<rscale>  0 0.16024125E+03</rscale>
<asrwt>0</asrwt>
<pdfrwt beam="2">  1        5 0.11935991E-01 0.16024284E+03</pdfrwt>
<pdfrwt beam="1">  1       -5 0.62261131E-01 0.16024284E+03</pdfrwt>
<totfact> 0.10598212E+02</totfact>
</mgrwt>
</event>
<event>
 8    1  0.1865596E-007  0.1279737E+03  0.7546771E-02  0.1230501E+00
         -5   -1    0    0    0  501 -0.00000000000E+00  0.00000000000E+00  0.17481796524E+03  0.17488113383E+03  0.47000000000E+01 0. -1.
          5   -1    0    0  501    0  0.00000000000E+00 -0.00000000000E+00 -0.93534831372E+02  0.93652841280E+02  0.47000000000E+01 0. -1.
         25    2    1    2    0    0 -0.10089481959E+02 -0.25495462862E+02  0.41775856279E+02  0.13461977991E+03  0.12500178680E+03 0.  0.
         25    2    1    2    0    0  0.10089481959E+02  0.25495462862E+02  0.39507277586E+02  0.13391419520E+03  0.12498148031E+03 0.  0.
          5    1    4    4  502    0 -0.17434459189E+02 -0.35914029033E+02  0.51568618229E+02  0.65384938898E+02  0.47000000000E+01 0. -1.
         -5    1    4    4    0  502  0.27523941148E+02  0.61409491895E+02 -0.12061340643E+02  0.68529256302E+02  0.47000000000E+01 0. -1.
          5    1    3    3  503    0 -0.25301997107E+02 -0.14155549087E+02  0.83515486665E+02  0.88529639898E+02  0.47000000000E+01 0.  1.
         -5    1    3    3    0  503  0.15212515148E+02 -0.11339913775E+02 -0.41739630386E+02  0.46090140012E+02  0.47000000000E+01 0.  1.
<mgrwt>
<rscale>  0 0.12796872E+03</rscale>
<asrwt>0</asrwt>
<pdfrwt beam="2">  1        5 0.14403911E-01 0.12797368E+03</pdfrwt>
<pdfrwt beam="1">  1       -5 0.26909008E-01 0.12797368E+03</pdfrwt>
<totfact> 0.39516122E+02</totfact>
</mgrwt>
</event>
<event>
 8    1  0.1865596E-007  0.1283893E+03  0.7546771E-02  0.1229868E+00
          5   -1    0    0  501    0  0.00000000000E+00  0.00000000000E+00  0.24724389469E+02  0.25167149911E+02  0.47000000000E+01 0.  1.
         -5   -1    0    0    0  501 -0.00000000000E+00 -0.00000000000E+00 -0.66206377027E+03  0.66208045274E+03  0.47000000000E+01 0.  1.
         25    2    1    2    0    0  0.10053607398E+01 -0.29262016474E+02 -0.33641190810E+03  0.36007616337E+03  0.12499838063E+03 0.  0.
         25    2    1    2    0    0 -0.10053607398E+01  0.29262016474E+02 -0.30092747270E+03  0.32717143928E+03  0.12500612184E+03 0.  0.
          5    1    4    4  502    0 -0.27931991792E+02 -0.11114565808E+02 -0.97668174585E+01  0.31956383741E+02  0.47000000000E+01 0. -1.
         -5    1    4    4    0  502  0.26926631052E+02  0.40376582282E+02 -0.29116065524E+03  0.29521505554E+03  0.47000000000E+01 0. -1.
          5    1    3    3  503    0 -0.18711635155E+02 -0.37286121181E+02 -0.27038106434E+02  0.49935251300E+02  0.47000000000E+01 0.  1.
         -5    1    3    3    0  503  0.19716995895E+02  0.80241047065E+01 -0.30937380167E+03  0.31014091207E+03  0.47000000000E+01 0.  1.
<mgrwt>
<rscale>  0 0.12838739E+03</rscale>
<asrwt>0</asrwt>
<pdfrwt beam="1">  1        5 0.38390945E-02 0.12838928E+03</pdfrwt>
<pdfrwt beam="2">  1       -5 0.10189129E+00 0.12838928E+03</pdfrwt>
<totfact> 0.21624038E+02</totfact>
</mgrwt>
</event>
<event>
 8    1  0.1865596E-007  0.1568648E+03  0.7546771E-02  0.1192283E+00
         -5   -1    0    0    0  501 -0.00000000000E+00  0.00000000000E+00  0.11709120893E+03  0.11718549914E+03  0.47000000000E+01 0.  1.
          5   -1    0    0  501    0  0.00000000000E+00 -0.00000000000E+00 -0.22496573676E+03  0.22501482777E+03  0.47000000000E+01 0.  1.
         25    2    1    2    0    0 -0.36339243695E+02  0.87531519543E+02 -0.97312874272E+01  0.15716342373E+03  0.12499334485E+03 0.  0.
         25    2    1    2    0    0  0.36339243695E+02 -0.87531519543E+02 -0.98143240401E+02  0.18503690318E+03  0.12499700939E+03 0.  0.
          5    1    4    4  502    0  0.47442962151E+02 -0.82098512789E+02 -0.12389561925E+03  0.15608720297E+03  0.47000000000E+01 0. -1.
         -5    1    4    4    0  502 -0.11103718456E+02 -0.54330067543E+01  0.25752378853E+02  0.28949700215E+02  0.47000000000E+01 0. -1.
          5    1    3    3  503    0 -0.22415012207E+02  0.47070954380E+02 -0.67311933462E+02  0.85270709537E+02  0.47000000000E+01 0. -1.
         -5    1    3    3    0  503 -0.13924231487E+02  0.40460565163E+02  0.57580646035E+02  0.71892714190E+02  0.47000000000E+01 0. -1.
<mgrwt>
<rscale>  0 0.15686405E+03</rscale>
<asrwt>0</asrwt>
<pdfrwt beam="2">  1        5 0.34621143E-01 0.15686478E+03</pdfrwt>
<pdfrwt beam="1">  1       -5 0.18025061E-01 0.15686478E+03</pdfrwt>
<totfact> 0.17132756E+02</totfact>
</mgrwt>
</event>
<event>
 8    1  0.1865596E-007  0.1660674E+03  0.7546771E-02  0.1182012E+00
          5   -1    0    0  501    0  0.00000000000E+00  0.00000000000E+00  0.54754528219E+02  0.54955876487E+02  0.47000000000E+01 0.  1.
         -5   -1    0    0    0  501 -0.00000000000E+00 -0.00000000000E+00 -0.78737452798E+03  0.78738855549E+03  0.47000000000E+01 0.  1.
         25    2    1    2    0    0  0.10547055410E+03  0.28788726338E+02 -0.61959423959E+03  0.64146333246E+03  0.12500142645E+03 0.  0.
         25    2    1    2    0    0 -0.10547055410E+03 -0.28788726338E+02 -0.11302576017E+03  0.20088109951E+03  0.12500226051E+03 0.  0.
          5    1    4    4  502    0 -0.11027798723E+03 -0.35739575304E+02 -0.13432267970E+03  0.17749147583E+03  0.47000000000E+01 0.  1.
         -5    1    4    4    0  502  0.48074331309E+01  0.69508489663E+01  0.21296919529E+02  0.23389623684E+02  0.47000000000E+01 0.  1.
          5    1    3    3  503    0  0.36584811639E+02  0.15099300412E+02 -0.36212783657E+02  0.53850654739E+02  0.47000000000E+01 0. -1.
         -5    1    3    3    0  503  0.68885742458E+02  0.13689425926E+02 -0.58338145593E+03  0.58761267772E+03  0.47000000000E+01 0. -1.
<mgrwt>
<rscale>  0 0.16606728E+03</rscale>
<asrwt>0</asrwt>
<pdfrwt beam="1">  1        5 0.84403415E-02 0.16606744E+03</pdfrwt>
<pdfrwt beam="2">  1       -5 0.12115110E+00 0.16606744E+03</pdfrwt>
<totfact> 0.40522583E+01</totfact>
</mgrwt>
</event>
<event>
 8    1  0.1865596E-007  0.1695496E+03  0.7546771E-02  0.1178319E+00
         -5   -1    0    0    0  501 -0.00000000000E+00  0.00000000000E+00  0.21980940561E+04  0.21980990809E+04  0.47000000000E+01 0.  1.
          5   -1    0    0  501    0  0.00000000000E+00 -0.00000000000E+00 -0.17472268202E+02  0.18093373265E+02  0.47000000000E+01 0.  1.
         25    2    1    2    0    0 -0.38149329749E+01  0.11448907097E+03  0.16604952449E+04  0.16691289697E+04  0.12499903286E+03 0.  0.
         25    2    1    2    0    0  0.38149329749E+01 -0.11448907097E+03  0.52012654303E+03  0.54706348445E+03  0.12499813668E+03 0.  0.
          5    1    4    4  502    0  0.79355607517E+01 -0.28452656705E+02  0.38874142109E+03  0.38989038109E+03  0.47000000000E+01 0.  1.
         -5    1    4    4    0  502 -0.41206277768E+01 -0.86036414267E+02  0.13138512194E+03  0.15717310336E+03  0.47000000000E+01 0.  1.
          5    1    3    3  503    0 -0.24816439890E+02  0.11584925413E+03  0.83755459538E+03  0.84590584323E+03  0.47000000000E+01 0. -1.
         -5    1    3    3    0  503  0.21001506916E+02 -0.13601831624E+01  0.82294064950E+03  0.82322312649E+03  0.47000000000E+01 0. -1.
<mgrwt>
<rscale>  0 0.16954941E+03</rscale>
<asrwt>0</asrwt>
<pdfrwt beam="2">  1        5 0.27362047E-02 0.16954958E+03</pdfrwt>
<pdfrwt beam="1">  1       -5 0.33821652E+00 0.16954958E+03</pdfrwt>
<totfact> 0.83675699E+00</totfact>
</mgrwt>
</event>
<event>
 8    1  0.1865596E-007  0.1295729E+03  0.7546771E-02  0.1228094E+00
          5   -1    0    0  501    0  0.00000000000E+00  0.00000000000E+00  0.13485175825E+03  0.13493363815E+03  0.47000000000E+01 0.  1.
         -5   -1    0    0    0  501 -0.00000000000E+00 -0.00000000000E+00 -0.18210351993E+03  0.18216416215E+03  0.47000000000E+01 0.  1.
         25    2    1    2    0    0  0.83578282296E+01 -0.33080422060E+02 -0.11289264990E+03  0.17185423079E+03  0.12499983449E+03 0.  0.
         25    2    1    2    0    0 -0.83578282296E+01  0.33080422060E+02  0.65640888217E+02  0.14524356951E+03  0.12499120234E+03 0.  0.
          5    1    3    3  502    0  0.33976830467E+02  0.12191100700E+02  0.10480274871E+02  0.37881052074E+02  0.47000000000E+01 0. -1.
         -5    1    3    3    0  502 -0.25619002237E+02 -0.45271522760E+02 -0.12337292477E+03  0.13397317871E+03  0.47000000000E+01 0. -1.
          5    1    4    4  503    0  0.25926161161E+02  0.61012920841E+02  0.74566909254E+02  0.99885215612E+02  0.47000000000E+01 0. -1.
         -5    1    4    4    0  503 -0.34283989391E+02 -0.27932498781E+02 -0.89260210377E+01  0.45358353897E+02  0.47000000000E+01 0. -1.
<mgrwt>
<rscale>  0 0.12957078E+03</rscale>
<asrwt>0</asrwt>
<pdfrwt beam="1">  1        5 0.20757387E-01 0.12957286E+03</pdfrwt>
<pdfrwt beam="2">  1       -5 0.28026890E-01 0.12957286E+03</pdfrwt>
<totfact> 0.18762074E+02</totfact>
</mgrwt>
</event>
<event>
 8    1  0.1865596E-007  0.1369239E+03  0.7546771E-02  0.1217530E+00
          5   -1    0    0  501    0  0.00000000000E+00  0.00000000000E+00  0.52420591333E+02  0.52630869228E+02  0.47000000000E+01 0.  1.
         -5   -1    0    0    0  501 -0.00000000000E+00 -0.00000000000E+00 -0.42935447372E+03  0.42938019762E+03  0.47000000000E+01 0.  1.
         25    2    1    2    0    0 -0.55866688809E+02  0.12737982750E+01 -0.28757914521E+03  0.31851203993E+03  0.12500178136E+03 0.  0.
         25    2    1    2    0    0  0.55866688809E+02 -0.12737982750E+01 -0.89354737180E+02  0.16349902691E+03  0.12499981306E+03 0.  0.
          5    1    3    3  502    0 -0.30063225511E+02 -0.41322503174E+02 -0.37704591369E+02  0.63679455140E+02  0.47000000000E+01 0. -1.
         -5    1    3    3    0  502 -0.25803463298E+02  0.42596301449E+02 -0.24987455384E+03  0.25483258479E+03  0.47000000000E+01 0. -1.
          5    1    4    4  503    0  0.73541927800E+02 -0.29193922007E+02 -0.10078386338E+03  0.12821925497E+03  0.47000000000E+01 0.  1.
         -5    1    4    4    0  503 -0.17675238991E+02  0.27920123732E+02  0.11429126201E+02  0.35279771943E+02  0.47000000000E+01 0.  1.
<mgrwt>
<rscale>  0 0.13692345E+03</rscale>
<asrwt>0</asrwt>
<pdfrwt beam="1">  1        5 0.80828606E-02 0.13692390E+03</pdfrwt>
<pdfrwt beam="2">  1       -5 0.66072686E-01 0.13692390E+03</pdfrwt>
<totfact> 0.17436619E+02</totfact>
</mgrwt>
</event>
<event>
 8    1  0.1865596E-007  0.1383440E+03  0.7546771E-02  0.1215576E+00
          5   -1    0    0  501    0  0.00000000000E+00  0.00000000000E+00  0.33879626949E+02  0.34204080491E+02  0.47000000000E+01 0. -1.
         -5   -1    0    0    0  501 -0.00000000000E+00 -0.00000000000E+00 -0.62706975421E+03  0.62708736763E+03  0.47000000000E+01 0. -1.
         25    2    1    2    0    0  0.53857230218E+02 -0.24763969541E+02 -0.40317852557E+03  0.42625215631E+03  0.12499648734E+03 0.  0.
         25    2    1    2    0    0 -0.53857230218E+02  0.24763969541E+02 -0.19001160169E+03  0.23503929181E+03  0.12500081793E+03 0.  0.
          5    1    3    3  502    0  0.41605409774E+02  0.10818307216E+02 -0.33681767525E+02  0.54814207621E+02  0.47000000000E+01 0.  1.
         -5    1    3    3    0  502  0.12251820444E+02 -0.35582276757E+02 -0.36949675805E+03  0.37143794869E+03  0.47000000000E+01 0.  1.
          5    1    4    4  503    0  0.20507222505E+02  0.23798027640E+01  0.77318224521E+01  0.22540645831E+02  0.47000000000E+01 0. -1.
         -5    1    4    4    0  503 -0.74364452723E+02  0.22384166777E+02 -0.19774342414E+03  0.21249864598E+03  0.47000000000E+01 0. -1.
<mgrwt>
<rscale>  0 0.13834301E+03</rscale>
<asrwt>0</asrwt>
<pdfrwt beam="1">  1        5 0.52385636E-02 0.13834399E+03</pdfrwt>
<pdfrwt beam="2">  1       -5 0.96498574E-01 0.13834399E+03</pdfrwt>
<totfact> 0.15153723E+02</totfact>
</mgrwt>
</event>
<event>
 8    1  0.1865596E-007  0.2047105E+03  0.7546771E-02  0.1145825E+00
          5   -1    0    0  501    0  0.00000000000E+00  0.00000000000E+00  0.42736076202E+03  0.42738660591E+03  0.47000000000E+01 0.  1.
         -5   -1    0    0    0  501 -0.00000000000E+00 -0.00000000000E+00 -0.99689072415E+02  0.99799805406E+02  0.47000000000E+01 0.  1.
         25    2    1    2    0    0  0.15908366705E+03 -0.31169391085E+02  0.12926113229E+03  0.24210197329E+03  0.12500312430E+03 0.  0.
         25    2    1    2    0    0 -0.15908366705E+03  0.31169391085E+02  0.19841055731E+03  0.28508443803E+03  0.12500897364E+03 0.  0.
          5    1    3    3  502    0  0.92476940963E+02 -0.75152510627E+02  0.10404458113E+03  0.15826322796E+03  0.47000000000E+01 0.  1.
         -5    1    3    3    0  502  0.66606726090E+02  0.43983119542E+02  0.25216551161E+02  0.83838745325E+02  0.47000000000E+01 0.  1.
          5    1    4    4  503    0  0.36417294738E+01  0.23652186430E+02 -0.45344864239E+01  0.24806041273E+02  0.47000000000E+01 0.  1.
         -5    1    4    4    0  503 -0.16272539653E+03  0.75172046549E+01  0.20294504374E+03  0.26027839676E+03  0.47000000000E+01 0.  1.
<mgrwt>
<rscale>  0 0.20470960E+03</rscale>
<asrwt>0</asrwt>
<pdfrwt beam="1">  1        5 0.65758317E-01 0.20471050E+03</pdfrwt>
<pdfrwt beam="2">  1       -5 0.15347286E-01 0.20471050E+03</pdfrwt>
<totfact> 0.63937758E+01</totfact>
</mgrwt>
</event>
<event>
 8    1  0.1865596E-007  0.1682668E+03  0.7546771E-02  0.1179671E+00
          5   -1    0    0  501    0  0.00000000000E+00  0.00000000000E+00  0.19121153951E+03  0.19126929404E+03  0.47000000000E+01 0.  1.
         -5   -1    0    0    0  501 -0.00000000000E+00 -0.00000000000E+00 -0.21823433658E+03  0.21828494145E+03  0.47000000000E+01 0.  1.
         25    2    1    2    0    0 -0.16094769261E+02 -0.11148243388E+03 -0.12969323871E+03  0.21244778847E+03  0.12500540788E+03 0.  0.
         25    2    1    2    0    0  0.16094769261E+02  0.11148243388E+03  0.10267044163E+03  0.19710644701E+03  0.12498942838E+03 0.  0.
          5    1    3    3  502    0 -0.31021436947E+02 -0.46130594268E+02  0.10694969616E+02  0.56805225577E+02  0.47000000000E+01 0.  1.
         -5    1    3    3    0  502  0.14926667686E+02 -0.65351839612E+02 -0.14038820832E+03  0.15564256290E+03  0.47000000000E+01 0.  1.
          5    1    4    4  503    0 -0.16291421367E+02 -0.23163552633E+02  0.99561103287E+01  0.30383790310E+02  0.47000000000E+01 0. -1.
         -5    1    4    4    0  503  0.32386190628E+02  0.13464598651E+03  0.92714331304E+02  0.16672265670E+03  0.47000000000E+01 0. -1.
<mgrwt>
<rscale>  0 0.16826386E+03</rscale>
<asrwt>0</asrwt>
<pdfrwt beam="1">  1        5 0.29425495E-01 0.16826683E+03</pdfrwt>
<pdfrwt beam="2">  1       -5 0.33582849E-01 0.16826683E+03</pdfrwt>
<totfact> 0.73158003E+01</totfact>
</mgrwt>
</event>
<event>
 8    1  0.1865596E-007  0.1572232E+03  0.7546771E-02  0.1191868E+00
         -5   -1    0    0    0  501 -0.00000000000E+00  0.00000000000E+00  0.73598052107E+02  0.73747971321E+02  0.47000000000E+01 0. -1.
          5   -1    0    0  501    0  0.00000000000E+00 -0.00000000000E+00 -0.35478954145E+03  0.35482067121E+03  0.47000000000E+01 0. -1.
         25    2    1    2    0    0  0.18870842444E+01 -0.95342419868E+02 -0.90457293595E+02  0.18138816187E+03  0.12500162075E+03 0.  0.
         25    2    1    2    0    0 -0.18870842444E+01  0.95342419868E+02 -0.19073419574E+03  0.24718048066E+03  0.12499967392E+03 0.  0.
          5    1    3    3  502    0  0.44725872169E+02 -0.74197601142E+00 -0.22174854361E+01  0.45032892549E+02  0.47000000000E+01 0.  1.
         -5    1    3    3    0  502 -0.42838787925E+02 -0.94600443857E+02 -0.88239808159E+02  0.13635526933E+03  0.47000000000E+01 0.  1.
          5    1    4    4  503    0 -0.22819446377E+02  0.11718592426E+03 -0.17717183350E+03  0.21369421275E+03  0.47000000000E+01 0.  1.
         -5    1    4    4    0  503  0.20932362133E+02 -0.21843504393E+02 -0.13562362242E+02  0.33486267905E+02  0.47000000000E+01 0.  1.
<mgrwt>
<rscale>  0 0.15722284E+03</rscale>
<asrwt>0</asrwt>
<pdfrwt beam="2">  1        5 0.54596932E-01 0.15722323E+03</pdfrwt>
<pdfrwt beam="1">  1       -5 0.11336704E-01 0.15722323E+03</pdfrwt>
<totfact> 0.15375101E+02</totfact>
</mgrwt>
</event>
<event>
 8    1  0.1865596E-007  0.1643921E+03  0.7546771E-02  0.1183826E+00
         -5   -1    0    0    0  501 -0.00000000000E+00  0.00000000000E+00  0.25222767909E+03  0.25227146509E+03  0.47000000000E+01 0. -1.
          5   -1    0    0  501    0  0.00000000000E+00 -0.00000000000E+00 -0.12672094605E+03  0.12680807611E+03  0.47000000000E+01 0. -1.
         25    2    1    2    0    0 -0.34651900804E+02 -0.10098990701E+03  0.13741237586E+03  0.21425686643E+03  0.12499651286E+03 0.  0.
         25    2    1    2    0    0  0.34651900804E+02  0.10098990701E+03 -0.11905642824E+02  0.16482267477E+03  0.12500021696E+03 0.  0.
          5    1    3    3  502    0  0.25310856271E+02 -0.77915990746E+00 -0.86689729529E+01  0.27175128839E+02  0.47000000000E+01 0. -1.
         -5    1    3    3    0  502 -0.59962757076E+02 -0.10021074710E+03  0.14608134881E+03  0.18708173760E+03  0.47000000000E+01 0. -1.
          5    1    4    4  503    0  0.57152066385E+02  0.66855671334E+02 -0.56105255152E+02  0.10443145665E+03  0.47000000000E+01 0.  1.
         -5    1    4    4    0  503 -0.22500165581E+02  0.34134235674E+02  0.44199612328E+02  0.60391218121E+02  0.47000000000E+01 0.  1.
<mgrwt>
<rscale>  0 0.16439142E+03</rscale>
<asrwt>0</asrwt>
<pdfrwt beam="2">  1        5 0.19505601E-01 0.16439212E+03</pdfrwt>
<pdfrwt beam="1">  1       -5 0.38814329E-01 0.16439212E+03</pdfrwt>
<totfact> 0.11910876E+02</totfact>
</mgrwt>
</event>
<event>
 8    1  0.1865596E-007  0.1469196E+03  0.7546771E-02  0.1204311E+00
          5   -1    0    0  501    0  0.00000000000E+00  0.00000000000E+00  0.14854986086E+03  0.14862419441E+03  0.47000000000E+01 0.  1.
         -5   -1    0    0    0  501 -0.00000000000E+00 -0.00000000000E+00 -0.14919786857E+03  0.14927187942E+03  0.47000000000E+01 0.  1.
         25    2    1    2    0    0 -0.76343328692E+02 -0.11515829549E+02  0.24182819040E+02  0.14889290957E+03  0.12499348630E+03 0.  0.
         25    2    1    2    0    0  0.76343328692E+02  0.11515829549E+02 -0.24830826748E+02  0.14900316426E+03  0.12499781932E+03 0.  0.
          5    1    4    4  502    0  0.70466865853E+02  0.47040960223E+02 -0.55564862790E+02  0.10142965591E+03  0.47000000000E+01 0.  1.
         -5    1    4    4    0  502  0.58764628396E+01 -0.35525130674E+02  0.30734036041E+02  0.47573508345E+02  0.47000000000E+01 0.  1.
          5    1    3    3  503    0 -0.12101371809E+02  0.53681658862E+02  0.10696241598E+02  0.56255340032E+02  0.47000000000E+01 0.  1.
         -5    1    3    3    0  503 -0.64241956883E+02 -0.65197488411E+02  0.13486577443E+02  0.92637569540E+02  0.47000000000E+01 0.  1.
<mgrwt>
<rscale>  0 0.14691869E+03</rscale>
<asrwt>0</asrwt>
<pdfrwt beam="1">  1        5 0.22865236E-01 0.14691961E+03</pdfrwt>
<pdfrwt beam="2">  1       -5 0.22964929E-01 0.14691961E+03</pdfrwt>
<totfact> 0.23917448E+02</totfact>
</mgrwt>
</event>
<event>
 8    1  0.1865596E-007  0.1377371E+03  0.7546771E-02  0.1216408E+00
          5   -1    0    0  501    0  0.00000000000E+00  0.00000000000E+00  0.34508363189E+03  0.34511563714E+03  0.47000000000E+01 0. -1.
         -5   -1    0    0    0  501 -0.00000000000E+00 -0.00000000000E+00 -0.69384357639E+02  0.69543361185E+02  0.47000000000E+01 0. -1.
         25    2    1    2    0    0  0.29090315711E+02  0.50013429138E+02  0.43071165813E+02  0.14431434463E+03  0.12499566064E+03 0.  0.
         25    2    1    2    0    0 -0.29090315711E+02 -0.50013429138E+02  0.23262810844E+03  0.27034465370E+03  0.12499122124E+03 0.  0.
          5    1    4    4  502    0  0.17143319174E+02  0.14474697492E+02  0.16320863167E+03  0.16481067232E+03  0.47000000000E+01 0. -1.
         -5    1    4    4    0  502 -0.46233634885E+02 -0.64488126630E+02  0.69419476776E+02  0.10553398138E+03  0.47000000000E+01 0. -1.
          5    1    3    3  503    0 -0.44502498088E+02  0.45472152917E+02  0.22009724056E+02  0.67488569254E+02  0.47000000000E+01 0.  1.
         -5    1    3    3    0  503  0.73592813799E+02  0.45412762214E+01  0.21061441758E+02  0.76825775372E+02  0.47000000000E+01 0.  1.
<mgrwt>
<rscale>  0 0.13773608E+03</rscale>
<asrwt>0</asrwt>
<pdfrwt beam="1">  1        5 0.53104481E-01 0.13773709E+03</pdfrwt>
<pdfrwt beam="2">  1       -5 0.10689210E-01 0.13773709E+03</pdfrwt>
<totfact> 0.17335309E+02</totfact>
</mgrwt>
</event>
<event>
 8    1  0.1865596E-007  0.1403918E+03  0.7546771E-02  0.1212808E+00
          5   -1    0    0  501    0  0.00000000000E+00  0.00000000000E+00  0.11644146261E+03  0.11653627853E+03  0.47000000000E+01 0.  1.
         -5   -1    0    0    0  501 -0.00000000000E+00 -0.00000000000E+00 -0.17216133875E+03  0.17222548174E+03  0.47000000000E+01 0.  1.
         25    2    1    2    0    0 -0.10291152102E+02 -0.63047213568E+02 -0.47256988346E+02  0.14813196291E+03  0.12501598512E+03 0.  0.
         25    2    1    2    0    0  0.10291152102E+02  0.63047213568E+02 -0.84628877964E+01  0.14062979736E+03  0.12499704191E+03 0.  0.
          5    1    3    3  502    0  0.21727061031E+02 -0.63883698985E+02 -0.78168903872E+02  0.10337146468E+03  0.47000000000E+01 0. -1.
         -5    1    3    3    0  502 -0.32018213133E+02  0.83648541714E+00  0.30911915527E+02  0.44760498228E+02  0.47000000000E+01 0. -1.
          5    1    4    4  503    0 -0.10927390944E+02 -0.16997233695E+02 -0.45338420942E+02  0.49859565177E+02  0.47000000000E+01 0. -1.
         -5    1    4    4    0  503  0.21218543046E+02  0.80044447263E+02  0.36875533145E+02  0.90770232187E+02  0.47000000000E+01 0. -1.
<mgrwt>
<rscale>  0 0.14038758E+03</rscale>
<asrwt>0</asrwt>
<pdfrwt beam="1">  1        5 0.17926299E-01 0.14039179E+03</pdfrwt>
<pdfrwt beam="2">  1       -5 0.26498588E-01 0.14039179E+03</pdfrwt>
<totfact> 0.28232726E+02</totfact>
</mgrwt>
</event>
<event>
 8    1  0.1865596E-007  0.1733534E+03  0.7546771E-02  0.1174397E+00
         -5   -1    0    0    0  501 -0.00000000000E+00  0.00000000000E+00  0.23632850475E+02  0.24095676408E+02  0.47000000000E+01 0.  1.
          5   -1    0    0  501    0  0.00000000000E+00 -0.00000000000E+00 -0.13607385740E+04  0.13607466909E+04  0.47000000000E+01 0.  1.
         25    2    1    2    0    0 -0.11222668298E+03 -0.42792043398E+02 -0.47902422943E+03  0.50942674445E+03  0.12500163291E+03 0.  0.
         25    2    1    2    0    0  0.11222668298E+03  0.42792043398E+02 -0.85808149414E+03  0.87541562289E+03  0.12499069912E+03 0.  0.
          5    1    4    4  502    0  0.80183218506E+02  0.73312620394E+02 -0.37962574598E+03  0.39489477820E+03  0.47000000000E+01 0. -1.
         -5    1    4    4    0  502  0.32043464477E+02 -0.30520576996E+02 -0.47845574816E+03  0.48052084469E+03  0.47000000000E+01 0. -1.
          5    1    3    3  503    0 -0.61416957785E+01  0.37885435015E+02 -0.13602246437E+03  0.14141155337E+03  0.47000000000E+01 0.  1.
         -5    1    3    3    0  503 -0.10608498720E+03 -0.80677478413E+02 -0.34300176506E+03  0.36801519108E+03  0.47000000000E+01 0.  1.
<mgrwt>
<rscale>  0 0.17335141E+03</rscale>
<asrwt>0</asrwt>
<pdfrwt beam="2">  1        5 0.20938056E+00 0.17335338E+03</pdfrwt>
<pdfrwt beam="1">  1       -5 0.36720506E-02 0.17335338E+03</pdfrwt>
<totfact> 0.35110044E+01</totfact>
</mgrwt>
</event>
<event>
 8    1  0.1865596E-007  0.1605372E+03  0.7546771E-02  0.1188092E+00
          5   -1    0    0  501    0  0.00000000000E+00  0.00000000000E+00  0.13162623508E+04  0.13162707420E+04  0.47000000000E+01 0. -1.
         -5   -1    0    0    0  501 -0.00000000000E+00 -0.00000000000E+00 -0.19887476025E+02  0.20435305298E+02  0.47000000000E+01 0. -1.
         25    2    1    2    0    0  0.70889889553E+02 -0.71562635583E+02  0.53385405020E+03  0.55746911384E+03  0.12500031487E+03 0.  0.
         25    2    1    2    0    0 -0.70889889553E+02  0.71562635583E+02  0.76252082461E+03  0.77923693345E+03  0.12500241293E+03 0.  0.
          5    1    4    4  502    0 -0.56335575324E+02 -0.14280117057E+01  0.12292962190E+03  0.13531266831E+03  0.47000000000E+01 0.  1.
         -5    1    4    4    0  502 -0.14554314229E+02  0.72990647289E+02  0.63959120270E+03  0.64392426514E+03  0.47000000000E+01 0.  1.
          5    1    3    3  503    0  0.34708987110E+02  0.77404496713E+01  0.31969566867E+02  0.48049677970E+02  0.47000000000E+01 0.  1.
         -5    1    3    3    0  503  0.36180902444E+02 -0.79303085255E+02  0.50188448334E+03  0.50941943588E+03  0.47000000000E+01 0.  1.
<mgrwt>
<rscale>  0 0.16053679E+03</rscale>
<asrwt>0</asrwt>
<pdfrwt beam="1">  1        5 0.20254465E+00 0.16053719E+03</pdfrwt>
<pdfrwt beam="2">  1       -5 0.31023984E-02 0.16053719E+03</pdfrwt>
<totfact> 0.50384461E+01</totfact>
</mgrwt>
</event>
<event>
 8    1  0.1865596E-007  0.1444390E+03  0.7546771E-02  0.1207483E+00
          5   -1    0    0  501    0  0.00000000000E+00  0.00000000000E+00  0.23003083579E+03  0.23007884608E+03  0.47000000000E+01 0.  1.
         -5   -1    0    0    0  501 -0.00000000000E+00 -0.00000000000E+00 -0.10393776600E+03  0.10404397724E+03  0.47000000000E+01 0.  1.
         25    2    1    2    0    0  0.11105374167E+02  0.71486341784E+02  0.31713183771E+01  0.14445899595E+03  0.12499887141E+03 0.  0.
         25    2    1    2    0    0 -0.11105374167E+02 -0.71486341784E+02  0.12292175142E+03  0.18966382738E+03  0.12501593518E+03 0.  0.
          5    1    4    4  502    0  0.44653065555E+02 -0.51813767126E+02  0.20940231298E+02  0.71687837281E+02  0.47000000000E+01 0.  1.
         -5    1    4    4    0  502 -0.55758439722E+02 -0.19672574657E+02  0.10198152012E+03  0.11797599010E+03  0.47000000000E+01 0.  1.
          5    1    3    3  503    0 -0.13891039240E+02 -0.33286526405E+01 -0.48011140062E+02  0.50311037255E+02  0.47000000000E+01 0.  1.
         -5    1    3    3    0  503  0.24996413407E+02  0.74814994424E+02  0.51182458439E+02  0.94147958692E+02  0.47000000000E+01 0.  1.
<mgrwt>
<rscale>  0 0.14443526E+03</rscale>
<asrwt>0</asrwt>
<pdfrwt beam="1">  1        5 0.35401222E-01 0.14443895E+03</pdfrwt>
<pdfrwt beam="2">  1       -5 0.16002289E-01 0.14443895E+03</pdfrwt>
<totfact> 0.19840793E+02</totfact>
</mgrwt>
</event>
<event>
 8    1  0.1865596E-007  0.1345008E+03  0.7546771E-02  0.1220930E+00
          5   -1    0    0  501    0  0.00000000000E+00  0.00000000000E+00  0.59376984415E+03  0.59378844534E+03  0.47000000000E+01 0. -1.
         -5   -1    0    0    0  501 -0.00000000000E+00 -0.00000000000E+00 -0.30265306032E+02  0.30628071262E+02  0.47000000000E+01 0. -1.
         25    2    1    2    0    0 -0.42173405295E+02  0.26148925771E+02  0.28335754947E+03  0.31365898361E+03  0.12501237828E+03 0.  0.
         25    2    1    2    0    0  0.42173405295E+02 -0.26148925771E+02  0.28014698864E+03  0.31075753299E+03  0.12500218651E+03 0.  0.
          5    1    3    3  502    0 -0.17065028308E+02  0.94765937925E+01 -0.73311277669E+01  0.21374200696E+02  0.47000000000E+01 0. -1.
         -5    1    3    3    0  502 -0.25108376986E+02  0.16672331978E+02  0.29068867724E+03  0.29228478291E+03  0.47000000000E+01 0. -1.
          5    1    4    4  503    0  0.64213976907E+02 -0.51478258067E+02  0.25650191127E+03  0.26942302494E+03  0.47000000000E+01 0.  1.
         -5    1    4    4    0  503 -0.22040571612E+02  0.25329332297E+02  0.23645077371E+02  0.41334508047E+02  0.47000000000E+01 0.  1.
<mgrwt>
<rscale>  0 0.13449840E+03</rscale>
<asrwt>0</asrwt>
<pdfrwt beam="1">  1        5 0.91378537E-01 0.13450077E+03</pdfrwt>
<pdfrwt beam="2">  1       -5 0.46855371E-02 0.13450077E+03</pdfrwt>
<totfact> 0.20588099E+02</totfact>
</mgrwt>
</event>
<event>
 8    1  0.1865596E-007  0.1440210E+03  0.7546771E-02  0.1208031E+00
          5   -1    0    0  501    0  0.00000000000E+00  0.00000000000E+00  0.77516884631E+02  0.77659239006E+02  0.47000000000E+01 0. -1.
         -5   -1    0    0    0  501 -0.00000000000E+00 -0.00000000000E+00 -0.27291513524E+03  0.27295560270E+03  0.47000000000E+01 0. -1.
         25    2    1    2    0    0  0.55951976300E+02 -0.44448706144E+02 -0.12326224635E+03  0.18953828520E+03  0.12499947620E+03 0.  0.
         25    2    1    2    0    0 -0.55951976300E+02  0.44448706144E+02 -0.72136004262E+02  0.16107655650E+03  0.12504296387E+03 0.  0.
          5    1    4    4  502    0  0.36776589451E-01 -0.16042228455E+02 -0.76594330153E+02  0.78397294965E+02  0.47000000000E+01 0. -1.
         -5    1    4    4    0  502 -0.55988752890E+02  0.60490934599E+02  0.44583258911E+01  0.82679261538E+02  0.47000000000E+01 0. -1.
          5    1    3    3  503    0  0.86096261002E+02 -0.82495366148E+01 -0.11069777308E+03  0.14055855711E+03  0.47000000000E+01 0.  1.
         -5    1    3    3    0  503 -0.30144284702E+02 -0.36199169529E+02 -0.12564473267E+02  0.48979728085E+02  0.47000000000E+01 0.  1.
<mgrwt>
<rscale>  0 0.14401158E+03</rscale>
<asrwt>0</asrwt>
<pdfrwt beam="1">  1        5 0.11939738E-01 0.14402102E+03</pdfrwt>
<pdfrwt beam="2">  1       -5 0.42001007E-01 0.14402102E+03</pdfrwt>
<totfact> 0.23695565E+02</totfact>
</mgrwt>
</event>
<event>
 8    1  0.1865596E-007  0.1298362E+03  0.7546771E-02  0.1227702E+00
          5   -1    0    0  501    0  0.00000000000E+00  0.00000000000E+00  0.30713792688E+02  0.31071322168E+02  0.47000000000E+01 0. -1.
         -5   -1    0    0    0  501 -0.00000000000E+00 -0.00000000000E+00 -0.57461578521E+03  0.57463500643E+03  0.47000000000E+01 0. -1.
         25    2    1    2    0    0 -0.12063740474E+02 -0.32960805873E+02 -0.34035008479E+03  0.36427142131E+03  0.12499415831E+03 0.  0.
         25    2    1    2    0    0  0.12063740474E+02  0.32960805873E+02 -0.20355190774E+03  0.24143490729E+03  0.12500194701E+03 0.  0.
          5    1    3    3  502    0  0.45858941944E+02 -0.39542938686E+01 -0.24218190164E+03  0.24656204590E+03  0.47000000000E+01 0. -1.
         -5    1    3    3    0  502 -0.57922682418E+02 -0.29006512004E+02 -0.98168183143E+02  0.11770937541E+03  0.47000000000E+01 0. -1.
          5    1    4    4  503    0  0.50955797685E+02  0.61845247485E+02 -0.11266622792E+03  0.13833689626E+03  0.47000000000E+01 0.  1.
         -5    1    4    4    0  503 -0.38892057211E+02 -0.28884441612E+02 -0.90885679814E+02  0.10309801102E+03  0.47000000000E+01 0.  1.
<mgrwt>
<rscale>  0 0.12983431E+03</rscale>
<asrwt>0</asrwt>
<pdfrwt beam="1">  1        5 0.47541801E-02 0.12983619E+03</pdfrwt>
<pdfrwt beam="2">  1       -5 0.88431402E-01 0.12983619E+03</pdfrwt>
<totfact> 0.21459443E+02</totfact>
</mgrwt>
</event>
<event>
 8    1  0.1865596E-007  0.1686824E+03  0.7546771E-02  0.1179230E+00
          5   -1    0    0  501    0  0.00000000000E+00  0.00000000000E+00  0.22372931713E+03  0.22377867938E+03  0.47000000000E+01 0. -1.
         -5   -1    0    0    0  501 -0.00000000000E+00 -0.00000000000E+00 -0.12750405220E+03  0.12759064749E+03  0.47000000000E+01 0. -1.
         25    2    1    2    0    0  0.11104779089E+03 -0.22270255989E+02  0.37868994737E+02  0.17288088125E+03  0.12500464862E+03 0.  0.
         25    2    1    2    0    0 -0.11104779089E+03  0.22270255989E+02  0.58356270191E+02  0.17848844562E+03  0.12500037915E+03 0.  0.
          5    1    4    4  502    0  0.23437273771E+02  0.24237831593E+02  0.99546313102E+01  0.35467773635E+02  0.47000000000E+01 0. -1.
         -5    1    4    4    0  502 -0.13448506466E+03 -0.19675756037E+01  0.48401638881E+02  0.14302067199E+03  0.47000000000E+01 0. -1.
          5    1    3    3  503    0 -0.10160773466E+02 -0.15575113197E+02 -0.28573203203E+02  0.34414290779E+02  0.47000000000E+01 0.  1.
         -5    1    3    3    0  503  0.12120856435E+03 -0.66951427916E+01  0.66442197941E+02  0.13846659047E+03  0.47000000000E+01 0.  1.
<mgrwt>
<rscale>  0 0.16868157E+03</rscale>
<asrwt>0</asrwt>
<pdfrwt beam="1">  1        5 0.34430353E-01 0.16868236E+03</pdfrwt>
<pdfrwt beam="2">  1       -5 0.19626466E-01 0.16868236E+03</pdfrwt>
<totfact> 0.15124090E+02</totfact>
</mgrwt>
</event>
<event>
 8    1  0.1865596E-007  0.1283611E+03  0.7546771E-02  0.1229908E+00
          5   -1    0    0  501    0  0.00000000000E+00  0.00000000000E+00  0.30958494447E+02  0.31313230087E+02  0.47000000000E+01 0. -1.
         -5   -1    0    0    0  501 -0.00000000000E+00 -0.00000000000E+00 -0.55648460742E+03  0.55650445488E+03  0.47000000000E+01 0. -1.
         25    2    1    2    0    0 -0.17205911994E+02  0.23565876260E+02 -0.32827948764E+03  0.35248261768E+03  0.12500071932E+03 0.  0.
         25    2    1    2    0    0  0.17205911994E+02 -0.23565876260E+02 -0.19724662533E+03  0.23533506728E+03  0.12499987502E+03 0.  0.
          5    1    3    3  502    0 -0.49772514378E+02  0.60690001374E+02 -0.20875917969E+03  0.22307636486E+03  0.47000000000E+01 0. -1.
         -5    1    3    3    0  502  0.32566602383E+02 -0.37124125115E+02 -0.11952030796E+03  0.12940625282E+03  0.47000000000E+01 0. -1.
          5    1    4    4  503    0 -0.48219634377E+02 -0.28093065825E+02 -0.12867504552E+03  0.14033428244E+03  0.47000000000E+01 0.  1.
         -5    1    4    4    0  503  0.65425546372E+02  0.45271895655E+01 -0.68571579807E+02  0.95000784842E+02  0.47000000000E+01 0.  1.
<mgrwt>
<rscale>  0 0.12836090E+03</rscale>
<asrwt>0</asrwt>
<pdfrwt beam="1">  1        5 0.47916598E-02 0.12836111E+03</pdfrwt>
<pdfrwt beam="2">  1       -5 0.85641823E-01 0.12836111E+03</pdfrwt>
<totfact> 0.22748088E+02</totfact>
</mgrwt>
</event>
<event>
 8    1  0.1865596E-007  0.1277666E+03  0.7546771E-02  0.1230812E+00
         -5   -1    0    0    0  501 -0.00000000000E+00  0.00000000000E+00  0.74770632844E+02  0.74918205638E+02  0.47000000000E+01 0. -1.
          5   -1    0    0  501    0  0.00000000000E+00 -0.00000000000E+00 -0.24492035140E+03  0.24496544354E+03  0.47000000000E+01 0. -1.
         25    2    1    2    0    0  0.26085173316E+02  0.42799983918E+01 -0.31987101431E+02  0.13169967873E+03  0.12499150398E+03 0.  0.
         25    2    1    2    0    0 -0.26085173316E+02 -0.42799983918E+01 -0.13816261713E+03  0.18818397045E+03  0.12500217322E+03 0.  0.
          5    1    3    3  502    0  0.21258237203E+02  0.44382772259E+02 -0.63342622587E+02  0.80349990408E+02  0.47000000000E+01 0.  1.
         -5    1    3    3    0  502  0.48269361129E+01 -0.40102773867E+02  0.31355521156E+02  0.51349688324E+02  0.47000000000E+01 0.  1.
          5    1    4    4  503    0 -0.13447665864E+02  0.30301817095E+02  0.10394906259E+02  0.35059719231E+02  0.47000000000E+01 0. -1.
         -5    1    4    4    0  503 -0.12637507452E+02 -0.34581815486E+02 -0.14855752339E+03  0.15312425122E+03  0.47000000000E+01 0. -1.
<mgrwt>
<rscale>  0 0.12776397E+03</rscale>
<asrwt>0</asrwt>
<pdfrwt beam="2">  1        5 0.37694874E-01 0.12776658E+03</pdfrwt>
<pdfrwt beam="1">  1       -5 0.11517995E-01 0.12776658E+03</pdfrwt>
<totfact> 0.30215858E+02</totfact>
</mgrwt>
</event>
<event>
 8    1  0.1865596E-007  0.1346067E+03  0.7546771E-02  0.1220779E+00
         -5   -1    0    0    0  501 -0.00000000000E+00  0.00000000000E+00  0.74534614983E+03  0.74536096830E+03  0.47000000000E+01 0.  1.
          5   -1    0    0  501    0  0.00000000000E+00 -0.00000000000E+00 -0.24071142042E+02  0.24525698343E+02  0.47000000000E+01 0.  1.
         25    2    1    2    0    0 -0.29626085285E+02 -0.40179196619E+02  0.36653729670E+03  0.39047221997E+03  0.12500756748E+03 0.  0.
         25    2    1    2    0    0  0.29626085285E+02  0.40179196619E+02  0.35473771108E+03  0.37941444667E+03  0.12499762360E+03 0.  0.
          5    1    4    4  502    0  0.22829633627E+01  0.31043518480E+01 -0.10025401085E+02  0.11723804375E+02  0.47000000000E+01 0. -1.
         -5    1    4    4    0  502  0.27343121922E+02  0.37074844771E+02  0.36476311217E+03  0.36769064229E+03  0.47000000000E+01 0. -1.
          5    1    3    3  503    0  0.43012621218E+02 -0.23588767330E+02  0.76647449761E+02  0.91123197283E+02  0.47000000000E+01 0. -1.
         -5    1    3    3    0  503 -0.72638706503E+02 -0.16590429289E+02  0.28988984694E+03  0.29934902269E+03  0.47000000000E+01 0. -1.
<mgrwt>
<rscale>  0 0.13460440E+03</rscale>
<asrwt>0</asrwt>
<pdfrwt beam="2">  1        5 0.37393580E-02 0.13460670E+03</pdfrwt>
<pdfrwt beam="1">  1       -5 0.11470475E+00 0.13460670E+03</pdfrwt>
<totfact> 0.17109166E+02</totfact>
</mgrwt>
</event>
<event>
 8    1  0.1865596E-007  0.1352235E+03  0.7546771E-02  0.1219910E+00
          5   -1    0    0  501    0  0.00000000000E+00  0.00000000000E+00  0.69281883975E+03  0.69283478168E+03  0.47000000000E+01 0. -1.
         -5   -1    0    0    0  501 -0.00000000000E+00 -0.00000000000E+00 -0.26256740955E+02  0.26674078158E+02  0.47000000000E+01 0. -1.
         25    2    1    2    0    0 -0.42798913423E+02  0.28724388759E+02  0.35446526756E+03  0.37938241292E+03  0.12501420650E+03 0.  0.
         25    2    1    2    0    0  0.42798913423E+02 -0.28724388759E+02  0.31209683123E+03  0.34012644692E+03  0.12499892131E+03 0.  0.
          5    1    4    4  502    0  0.83495067993E+02 -0.52803640720E+01  0.15640542096E+03  0.17743746597E+03  0.47000000000E+01 0.  1.
         -5    1    4    4    0  502 -0.40696154570E+02 -0.23444024687E+02  0.15569141027E+03  0.16268898095E+03  0.47000000000E+01 0.  1.
          5    1    3    3  503    0  0.58260891853E+01  0.16413789259E+02 -0.30836169866E+01  0.18301761848E+02  0.47000000000E+01 0.  1.
         -5    1    3    3    0  503 -0.48625002608E+02  0.12310599500E+02  0.35754888454E+03  0.36108065107E+03  0.47000000000E+01 0.  1.
<mgrwt>
<rscale>  0 0.13521995E+03</rscale>
<asrwt>0</asrwt>
<pdfrwt beam="1">  1        5 0.10662085E+00 0.13522348E+03</pdfrwt>
<pdfrwt beam="2">  1       -5 0.40728273E-02 0.13522348E+03</pdfrwt>
<totfact> 0.17870585E+02</totfact>
</mgrwt>
</event>
<event>
 8    1  0.1865596E-007  0.1349076E+03  0.7546771E-02  0.1220353E+00
          5   -1    0    0  501    0  0.00000000000E+00  0.00000000000E+00  0.16387863359E+03  0.16394601718E+03  0.47000000000E+01 0.  1.
         -5   -1    0    0    0  501 -0.00000000000E+00 -0.00000000000E+00 -0.11241086506E+03  0.11250907778E+03  0.47000000000E+01 0.  1.
         25    2    1    2    0    0 -0.49496295771E+02  0.11105892672E+02  0.97861491435E+01  0.13526211987E+03  0.12500739261E+03 0.  0.
         25    2    1    2    0    0  0.49496295771E+02 -0.11105892672E+02  0.41681619390E+02  0.14119297509E+03  0.12499949869E+03 0.  0.
          5    1    4    4  502    0  0.55129018165E+01  0.33011059604E+02 -0.30644333782E+02  0.45621128170E+02  0.47000000000E+01 0. -1.
         -5    1    4    4    0  502  0.43983393955E+02 -0.44116952275E+02  0.72325953172E+02  0.95571846922E+02  0.47000000000E+01 0. -1.
          5    1    3    3  503    0 -0.84548774080E+01  0.61812628996E+02 -0.16610454029E+02  0.64732397132E+02  0.47000000000E+01 0. -1.
         -5    1    3    3    0  503 -0.41041418363E+02 -0.50706736324E+02  0.26396603172E+02  0.70529722734E+02  0.47000000000E+01 0. -1.
<mgrwt>
<rscale>  0 0.13490582E+03</rscale>
<asrwt>0</asrwt>
<pdfrwt beam="1">  1        5 0.25224836E-01 0.13490764E+03</pdfrwt>
<pdfrwt beam="2">  1       -5 0.17306717E-01 0.13490764E+03</pdfrwt>
<totfact> 0.32665727E+02</totfact>
</mgrwt>
</event>
<event>
 8    1  0.1865596E-007  0.1352827E+03  0.7546771E-02  0.1219822E+00
          5   -1    0    0  501    0  0.00000000000E+00  0.00000000000E+00  0.12110056483E+03  0.12119173570E+03  0.47000000000E+01 0.  1.
         -5   -1    0    0    0  501 -0.00000000000E+00 -0.00000000000E+00 -0.15345587756E+03  0.15352783578E+03  0.47000000000E+01 0.  1.
         25    2    1    2    0    0 -0.40357596340E+02 -0.32369559403E+02 -0.33756888522E+02  0.13943074468E+03  0.12499952432E+03 0.  0.
         25    2    1    2    0    0  0.40357596340E+02  0.32369559403E+02  0.14015757829E+01  0.13528882680E+03  0.12499831312E+03 0.  0.
          5    1    3    3  502    0  0.31904162278E+02  0.15879187527E+02  0.15830377201E+02  0.39277410932E+02  0.47000000000E+01 0. -1.
         -5    1    3    3    0  502 -0.72261758618E+02 -0.48248746930E+02 -0.49587265723E+02  0.10015333375E+03  0.47000000000E+01 0. -1.
          5    1    4    4  503    0  0.68394942776E+02 -0.14991914457E+02  0.25977365085E+02  0.74830068777E+02  0.47000000000E+01 0. -1.
         -5    1    4    4    0  503 -0.28037346436E+02  0.47361473860E+02 -0.24575789302E+02  0.60458758019E+02  0.47000000000E+01 0. -1.
<mgrwt>
<rscale>  0 0.13528241E+03</rscale>
<asrwt>0</asrwt>
<pdfrwt beam="1">  1        5 0.18643404E-01 0.13528269E+03</pdfrwt>
<pdfrwt beam="2">  1       -5 0.23621145E-01 0.13528269E+03</pdfrwt>
<totfact> 0.32317048E+02</totfact>
</mgrwt>
</event>
<event>
 8    1  0.1865596E-007  0.1358327E+03  0.7546771E-02  0.1219056E+00
         -5   -1    0    0    0  501 -0.00000000000E+00  0.00000000000E+00  0.43139829565E+03  0.43142389768E+03  0.47000000000E+01 0.  1.
          5   -1    0    0  501    0  0.00000000000E+00 -0.00000000000E+00 -0.48572411535E+02  0.48799274199E+02  0.47000000000E+01 0.  1.
         25    2    1    2    0    0 -0.52672431511E+02 -0.68129686285E+01  0.27531946688E+03  0.30699457783E+03  0.12499624151E+03 0.  0.
         25    2    1    2    0    0  0.52672431511E+02  0.68129686285E+01  0.10750641724E+03  0.17322859406E+03  0.12501885645E+03 0.  0.
          5    1    4    4  502    0  0.88423597660E+02 -0.15266383095E+02  0.53269911570E+02  0.10445845373E+03  0.47000000000E+01 0.  1.
         -5    1    4    4    0  502 -0.35751166149E+02  0.22079351724E+02  0.54236505671E+02  0.68770140330E+02  0.47000000000E+01 0.  1.
          5    1    3    3  503    0  0.69258041681E+01 -0.51802380294E+02  0.16920395767E+03  0.17715395185E+03  0.47000000000E+01 0.  1.
         -5    1    3    3    0  503 -0.59598235679E+02  0.44989411665E+02  0.10611550921E+03  0.12984062598E+03  0.47000000000E+01 0.  1.
<mgrwt>
<rscale>  0 0.13582747E+03</rscale>
<asrwt>0</asrwt>
<pdfrwt beam="2">  1        5 0.74920989E-02 0.13583268E+03</pdfrwt>
<pdfrwt beam="1">  1       -5 0.66388390E-01 0.13583268E+03</pdfrwt>
<totfact> 0.19592368E+02</totfact>
</mgrwt>
</event>
<event>
 8    1  0.1865596E-007  0.1462315E+03  0.7546771E-02  0.1205182E+00
         -5   -1    0    0    0  501 -0.00000000000E+00  0.00000000000E+00  0.14451197694E+03  0.14458838639E+03  0.47000000000E+01 0. -1.
          5   -1    0    0  501    0  0.00000000000E+00 -0.00000000000E+00 -0.17843054035E+03  0.17849243045E+03  0.47000000000E+01 0. -1.
         25    2    1    2    0    0 -0.73574583398E+02 -0.18581991323E+02  0.49923858515E+02  0.15451871626E+03  0.12500052921E+03 0.  0.
         25    2    1    2    0    0  0.73574583398E+02  0.18581991323E+02 -0.83842421926E+02  0.16856210058E+03  0.12500048125E+03 0.  0.
          5    1    4    4  502    0  0.31247691839E+02 -0.67881857050E+01  0.30186311767E+02  0.44224440398E+02  0.47000000000E+01 0.  1.
         -5    1    4    4    0  502  0.42326891558E+02  0.25370177028E+02 -0.11402873369E+03  0.12433766018E+03  0.47000000000E+01 0.  1.
          5    1    3    3  503    0  0.57497593502E+01 -0.56046895663E+02  0.77423595202E+01  0.57064423041E+02  0.47000000000E+01 0.  1.
         -5    1    3    3    0  503 -0.79324342748E+02  0.37464904340E+02  0.42181498995E+02  0.97454293220E+02  0.47000000000E+01 0.  1.
<mgrwt>
<rscale>  0 0.14623146E+03</rscale>
<asrwt>0</asrwt>
<pdfrwt beam="2">  1        5 0.27461491E-01 0.14623147E+03</pdfrwt>
<pdfrwt beam="1">  1       -5 0.22243250E-01 0.14623147E+03</pdfrwt>
<totfact> 0.17851037E+02</totfact>
</mgrwt>
</event>
<event>
 8    1  0.1865596E-007  0.1359802E+03  0.7546771E-02  0.1218845E+00
          5   -1    0    0  501    0  0.00000000000E+00  0.00000000000E+00  0.37866429890E+02  0.38156998213E+02  0.47000000000E+01 0.  1.
         -5   -1    0    0    0  501 -0.00000000000E+00 -0.00000000000E+00 -0.51523775370E+03  0.51525918996E+03  0.47000000000E+01 0.  1.
         25    2    1    2    0    0  0.53506020515E+02 -0.13932564121E+01 -0.30443819798E+03  0.33342417249E+03  0.12499690804E+03 0.  0.
         25    2    1    2    0    0 -0.53506020515E+02  0.13932564121E+01 -0.17293312583E+03  0.21999201568E+03  0.12500314220E+03 0.  0.
          5    1    3    3  502    0  0.82551927080E+02  0.17420372938E+02 -0.27518632449E+03  0.28786783989E+03  0.47000000000E+01 0.  1.
         -5    1    3    3    0  502 -0.29045906566E+02 -0.18813629350E+02 -0.29251873496E+02  0.45556332607E+02  0.47000000000E+01 0.  1.
          5    1    4    4  503    0  0.78489295204E+01 -0.34551620192E+02 -0.13420812776E+03  0.13888603856E+03  0.47000000000E+01 0.  1.
         -5    1    4    4    0  503 -0.61354950035E+02  0.35944876604E+02 -0.38724998073E+02  0.81105977114E+02  0.47000000000E+01 0.  1.
<mgrwt>
<rscale>  0 0.13597879E+03</rscale>
<asrwt>0</asrwt>
<pdfrwt beam="1">  1        5 0.58496053E-02 0.13598022E+03</pdfrwt>
<pdfrwt beam="2">  1       -5 0.79291342E-01 0.13598022E+03</pdfrwt>
<totfact> 0.19910167E+02</totfact>
</mgrwt>
</event>
<event>
 8    1  0.1865596E-007  0.1421349E+03  0.7546771E-02  0.1210487E+00
         -5   -1    0    0    0  501 -0.00000000000E+00  0.00000000000E+00  0.75625658952E+02  0.75771566513E+02  0.47000000000E+01 0. -1.
          5   -1    0    0  501    0  0.00000000000E+00 -0.00000000000E+00 -0.34019461554E+03  0.34022708070E+03  0.47000000000E+01 0. -1.
         25    2    1    2    0    0  0.53196588660E+02 -0.41782475848E+02 -0.35629428205E+02  0.14652576078E+03  0.12499876033E+03 0.  0.
         25    2    1    2    0    0 -0.53196588660E+02  0.41782475848E+02 -0.22893952839E+03  0.26947288644E+03  0.12500670596E+03 0.  0.
          5    1    3    3  502    0  0.14645242470E+01  0.42227376194E+02 -0.34909525714E+01  0.42656451814E+02  0.47000000000E+01 0.  1.
         -5    1    3    3    0  502  0.51732064413E+02 -0.84009852042E+02 -0.32138475633E+02  0.10386930896E+03  0.47000000000E+01 0.  1.
          5    1    4    4  503    0 -0.92205900028E+00  0.69518195711E+02 -0.65688796375E+02  0.95763968678E+02  0.47000000000E+01 0. -1.
         -5    1    4    4    0  503 -0.52274529660E+02 -0.27735719864E+02 -0.16325073201E+03  0.17370891776E+03  0.47000000000E+01 0. -1.
<mgrwt>
<rscale>  0 0.14213315E+03</rscale>
<asrwt>0</asrwt>
<pdfrwt beam="2">  1        5 0.52351353E-01 0.14213490E+03</pdfrwt>
<pdfrwt beam="1">  1       -5 0.11648438E-01 0.14213490E+03</pdfrwt>
<totfact> 0.15521932E+02</totfact>
</mgrwt>
</event>
<event>
 8    1  0.1865596E-007  0.1452106E+03  0.7546771E-02  0.1206486E+00
         -5   -1    0    0    0  501 -0.00000000000E+00  0.00000000000E+00  0.88587055037E+03  0.88588301825E+03  0.47000000000E+01 0. -1.
          5   -1    0    0  501    0  0.00000000000E+00 -0.00000000000E+00 -0.24169870438E+02  0.24622604188E+02  0.47000000000E+01 0. -1.
         25    2    1    2    0    0 -0.63084396034E+02 -0.38441220383E+02  0.50263293760E+03  0.52318693805E+03  0.12500933462E+03 0.  0.
         25    2    1    2    0    0  0.63084396034E+02  0.38441220383E+02  0.35906774234E+03  0.38731868439E+03  0.12501500405E+03 0.  0.
          5    1    4    4  502    0  0.53137681003E+01  0.65879282588E+02  0.96670743476E+02  0.11719914099E+03  0.47000000000E+01 0. -1.
         -5    1    4    4    0  502  0.57770627934E+02 -0.27438062204E+02  0.26239699886E+03  0.27011954339E+03  0.47000000000E+01 0. -1.
          5    1    3    3  503    0 -0.48787352827E+02 -0.34040547084E+02  0.50393226188E+03  0.50745322858E+03  0.47000000000E+01 0.  1.
         -5    1    3    3    0  503 -0.14297043208E+02 -0.44006732997E+01 -0.12993242788E+01  0.15733709466E+02  0.47000000000E+01 0.  1.
<mgrwt>
<rscale>  0 0.14520938E+03</rscale>
<asrwt>0</asrwt>
<pdfrwt beam="2">  1        5 0.37542266E-02 0.14521060E+03</pdfrwt>
<pdfrwt beam="1">  1       -5 0.13632355E+00 0.14521060E+03</pdfrwt>
<totfact> 0.11161140E+02</totfact>
</mgrwt>
</event>
<event>
 8    1  0.1865596E-007  0.1975438E+03  0.7546771E-02  0.1151838E+00
         -5   -1    0    0    0  501 -0.00000000000E+00  0.00000000000E+00  0.15951906479E+03  0.15958828914E+03  0.47000000000E+01 0. -1.
          5   -1    0    0  501    0  0.00000000000E+00 -0.00000000000E+00 -0.24949042832E+03  0.24953469463E+03  0.47000000000E+01 0. -1.
         25    2    1    2    0    0 -0.15224226015E+03 -0.14248393737E+02 -0.15867188185E+02  0.19818000039E+03  0.12507126926E+03 0.  0.
         25    2    1    2    0    0  0.15224226015E+03  0.14248393737E+02 -0.74104175347E+02  0.21094298338E+03  0.12499916373E+03 0.  0.
          5    1    3    3  502    0 -0.84946408240E+02  0.12249369293E+02 -0.67418074573E+02  0.10923930657E+03  0.47000000000E+01 0. -1.
         -5    1    3    3    0  502 -0.67295851910E+02 -0.26497763030E+02  0.51550886388E+02  0.88940693820E+02  0.47000000000E+01 0. -1.
          5    1    4    4  503    0  0.67838504799E+02 -0.45066926851E+02  0.36724580856E+01  0.81661910200E+02  0.47000000000E+01 0. -1.
         -5    1    4    4    0  503  0.84403755352E+02  0.59315320588E+02 -0.77776633432E+02  0.12928107318E+03  0.47000000000E+01 0. -1.
<mgrwt>
<rscale>  0 0.19753237E+03</rscale>
<asrwt>0</asrwt>
<pdfrwt beam="2">  1        5 0.38391873E-01 0.19754378E+03</pdfrwt>
<pdfrwt beam="1">  1       -5 0.24550124E-01 0.19754378E+03</pdfrwt>
<totfact> 0.83060268E+01</totfact>
</mgrwt>
</event>
<event>
 8    1  0.1865596E-007  0.1283775E+03  0.7546771E-02  0.1229885E+00
          5   -1    0    0  501    0  0.00000000000E+00  0.00000000000E+00  0.58012132770E+02  0.58202212574E+02  0.47000000000E+01 0. -1.
         -5   -1    0    0    0  501 -0.00000000000E+00 -0.00000000000E+00 -0.28889653247E+03  0.28893476162E+03  0.47000000000E+01 0. -1.
         25    2    1    2    0    0  0.28684573912E+02 -0.57315917383E+01 -0.91526574456E+02  0.15766387158E+03  0.12500050658E+03 0.  0.
         25    2    1    2    0    0 -0.28684573912E+02  0.57315917383E+01 -0.13935782525E+03  0.18947310262E+03  0.12499518885E+03 0.  0.
          5    1    3    3  502    0 -0.42916764856E+02 -0.10014811001E+02 -0.41425951443E+01  0.44512877234E+02  0.47000000000E+01 0.  1.
         -5    1    3    3    0  502  0.71601338768E+02  0.42832192631E+01 -0.87383979312E+02  0.11315099434E+03  0.47000000000E+01 0.  1.
          5    1    4    4  503    0  0.38866600064E+02 -0.19761884182E+02 -0.16428366761E+02  0.46830822130E+02  0.47000000000E+01 0.  1.
         -5    1    4    4    0  503 -0.67551173975E+02  0.25493475921E+02 -0.12292945849E+03  0.14264228049E+03  0.47000000000E+01 0.  1.
<mgrwt>
<rscale>  0 0.12837621E+03</rscale>
<asrwt>0</asrwt>
<pdfrwt beam="1">  1        5 0.89425059E-02 0.12837750E+03</pdfrwt>
<pdfrwt beam="2">  1       -5 0.44463182E-01 0.12837750E+03</pdfrwt>
<totfact> 0.33559228E+02</totfact>
</mgrwt>
</event>
<event>
 8    1  0.1865596E-007  0.1485856E+03  0.7546771E-02  0.1202224E+00
         -5   -1    0    0    0  501 -0.00000000000E+00  0.00000000000E+00  0.16521995956E+02  0.17177495462E+02  0.47000000000E+01 0. -1.
          5   -1    0    0  501    0  0.00000000000E+00 -0.00000000000E+00 -0.15251629270E+04  0.15251701688E+04  0.47000000000E+01 0. -1.
         25    2    1    2    0    0  0.79672532718E+02 -0.10229023385E+02 -0.46443812015E+03  0.48762735113E+03  0.12500128292E+03 0.  0.
         25    2    1    2    0    0 -0.79672532718E+02  0.10229023385E+02 -0.10442028109E+04  0.10547203132E+04  0.12499233311E+03 0.  0.
          5    1    3    3  502    0 -0.33685670368E+02  0.38320647153E+01 -0.10262561586E+03  0.10818279040E+03  0.47000000000E+01 0.  1.
         -5    1    3    3    0  502  0.11335820309E+03 -0.14061088101E+02 -0.36181250429E+03  0.37944456073E+03  0.47000000000E+01 0.  1.
          5    1    4    4  503    0 -0.74508390095E+02  0.61388898392E+02 -0.71131767308E+03  0.71785445536E+03  0.47000000000E+01 0. -1.
         -5    1    4    4    0  503 -0.51641426226E+01 -0.51159875007E+02 -0.33288513781E+03  0.33686585781E+03  0.47000000000E+01 0. -1.
<mgrwt>
<rscale>  0 0.14858367E+03</rscale>
<asrwt>0</asrwt>
<pdfrwt beam="2">  1        5 0.23469132E+00 0.14858555E+03</pdfrwt>
<pdfrwt beam="1">  1       -5 0.25928268E-02 0.14858555E+03</pdfrwt>
<totfact> 0.40543546E+01</totfact>
</mgrwt>
</event>
<event>
 8    1  0.1865596E-007  0.1865432E+03  0.7546771E-02  0.1161617E+00
         -5   -1    0    0    0  501 -0.00000000000E+00  0.00000000000E+00  0.23769207417E+03  0.23773853731E+03  0.47000000000E+01 0.  1.
          5   -1    0    0  501    0  0.00000000000E+00 -0.00000000000E+00 -0.14664431972E+03  0.14671961868E+03  0.47000000000E+01 0.  1.
         25    2    1    2    0    0 -0.99163987448E+02  0.96636941862E+02  0.36223298685E+02  0.19002544144E+03  0.12500138434E+03 0.  0.
         25    2    1    2    0    0  0.99163987448E+02 -0.96636941862E+02  0.54824455766E+02  0.19443271456E+03  0.12500465832E+03 0.  0.
          5    1    4    4  502    0  0.61831290568E+02 -0.24405485864E+02 -0.33249154583E+02  0.74473703508E+02  0.47000000000E+01 0.  1.
         -5    1    4    4    0  502  0.37332696879E+02 -0.72231455998E+02  0.88073610349E+02  0.11995901105E+03  0.47000000000E+01 0.  1.
          5    1    3    3  503    0 -0.10292444906E+03  0.11103388772E+03  0.97347856570E+00  0.15147608424E+03  0.47000000000E+01 0.  1.
         -5    1    3    3    0  503  0.37604616079E+01 -0.14396945863E+02  0.35249820120E+02  0.38549357195E+02  0.47000000000E+01 0.  1.
<mgrwt>
<rscale>  0 0.18654264E+03</rscale>
<asrwt>0</asrwt>
<pdfrwt beam="2">  1        5 0.22570031E-01 0.18654318E+03</pdfrwt>
<pdfrwt beam="1">  1       -5 0.36577377E-01 0.18654318E+03</pdfrwt>
<totfact> 0.10595586E+02</totfact>
</mgrwt>
</event>
<event>
 8    1  0.1865596E-007  0.1406778E+03  0.7546771E-02  0.1212420E+00
         -5   -1    0    0    0  501 -0.00000000000E+00  0.00000000000E+00  0.10405439885E+03  0.10416049117E+03  0.47000000000E+01 0.  1.
          5   -1    0    0  501    0  0.00000000000E+00 -0.00000000000E+00 -0.19954638147E+03  0.19960172434E+03  0.47000000000E+01 0.  1.
         25    2    1    2    0    0 -0.17945041952E+02 -0.61987091220E+02 -0.14466840004E+02  0.14141973709E+03  0.12500331423E+03 0.  0.
         25    2    1    2    0    0  0.17945041952E+02  0.61987091220E+02 -0.81025142615E+02  0.16234247842E+03  0.12500233020E+03 0.  0.
          5    1    4    4  502    0  0.37433901844E+02 -0.28094812374E+02 -0.16978215344E+02  0.50009651927E+02  0.47000000000E+01 0. -1.
         -5    1    4    4    0  502 -0.19488859893E+02  0.90081903594E+02 -0.64046927271E+02  0.11233282649E+03  0.47000000000E+01 0. -1.
          5    1    3    3  503    0 -0.66087879073E+02 -0.21188269009E+02 -0.30787182697E+02  0.76068989229E+02  0.47000000000E+01 0. -1.
         -5    1    3    3    0  503  0.48142837121E+02 -0.40798822211E+02  0.16320342692E+02  0.65350747857E+02  0.47000000000E+01 0. -1.
<mgrwt>
<rscale>  0 0.14067761E+03</rscale>
<asrwt>0</asrwt>
<pdfrwt beam="2">  1        5 0.30711861E-01 0.14067783E+03</pdfrwt>
<pdfrwt beam="1">  1       -5 0.16020787E-01 0.14067783E+03</pdfrwt>
<totfact> 0.26035821E+02</totfact>
</mgrwt>
</event>
<event>
 8    1  0.1865596E-007  0.1356800E+03  0.7546771E-02  0.1219266E+00
         -5   -1    0    0    0  501 -0.00000000000E+00  0.00000000000E+00  0.52473654082E+03  0.52475758905E+03  0.47000000000E+01 0. -1.
          5   -1    0    0  501    0  0.00000000000E+00 -0.00000000000E+00 -0.34917170688E+02  0.35232070743E+02  0.47000000000E+01 0. -1.
         25    2    1    2    0    0 -0.45022793862E+02  0.27508603835E+02  0.25088044145E+03  0.28521933680E+03  0.12500119571E+03 0.  0.
         25    2    1    2    0    0  0.45022793862E+02 -0.27508603835E+02  0.23893892868E+03  0.27477032300E+03  0.12499257382E+03 0.  0.
          5    1    3    3  502    0  0.40313709624E+02 -0.34654267487E+01  0.11253060875E+03  0.11967636471E+03  0.47000000000E+01 0. -1.
         -5    1    3    3    0  502 -0.85336503486E+02  0.30974030584E+02  0.13834983270E+03  0.16554297208E+03  0.47000000000E+01 0. -1.
          5    1    4    4  503    0  0.85150627601E+02 -0.24069367436E+00  0.17181605573E+03  0.19181640785E+03  0.47000000000E+01 0.  1.
         -5    1    4    4    0  503 -0.40127833739E+02 -0.27267910161E+02  0.67122872951E+02  0.82953915148E+02  0.47000000000E+01 0.  1.
<mgrwt>
<rscale>  0 0.13567806E+03</rscale>
<asrwt>0</asrwt>
<pdfrwt beam="2">  1        5 0.53977146E-02 0.13568004E+03</pdfrwt>
<pdfrwt beam="1">  1       -5 0.80754540E-01 0.13568004E+03</pdfrwt>
<totfact> 0.21816924E+02</totfact>
</mgrwt>
</event>
<event>
 8    1  0.1865596E-007  0.1269130E+03  0.7546771E-02  0.1232113E+00
          5   -1    0    0  501    0  0.00000000000E+00  0.00000000000E+00  0.22112881842E+03  0.22117876104E+03  0.47000000000E+01 0. -1.
         -5   -1    0    0    0  501 -0.00000000000E+00 -0.00000000000E+00 -0.73396971376E+02  0.73547300475E+02  0.47000000000E+01 0. -1.
         25    2    1    2    0    0 -0.10991487831E+02  0.19049331630E+02  0.59532169341E+02  0.14018196653E+03  0.12499285866E+03 0.  0.
         25    2    1    2    0    0  0.10991487831E+02 -0.19049331630E+02  0.88199677699E+02  0.15454409498E+03  0.12498401620E+03 0.  0.
          5    1    4    4  502    0 -0.53647688839E+02 -0.20286854621E+02  0.21223278847E+02  0.61336355884E+02  0.47000000000E+01 0. -1.
         -5    1    4    4    0  502  0.64639176670E+02  0.12375229905E+01  0.66976398852E+02  0.93207739094E+02  0.47000000000E+01 0. -1.
          5    1    3    3  503    0  0.52599539830E+01 -0.50571040387E+02  0.42755979852E+02  0.66597755629E+02  0.47000000000E+01 0.  1.
         -5    1    3    3    0  503 -0.16251441814E+02  0.69620372017E+02  0.16776189489E+02  0.73584210906E+02  0.47000000000E+01 0.  1.
<mgrwt>
<rscale>  0 0.12691080E+03</rscale>
<asrwt>0</asrwt>
<pdfrwt beam="1">  1        5 0.34035224E-01 0.12691298E+03</pdfrwt>
<pdfrwt beam="2">  1       -5 0.11307247E-01 0.12691298E+03</pdfrwt>
<totfact> 0.38228003E+02</totfact>
</mgrwt>
</event>
<event>
 8    1  0.1865596E-007  0.1310167E+03  0.7546771E-02  0.1225960E+00
          5   -1    0    0  501    0  0.00000000000E+00  0.00000000000E+00  0.35466240663E+03  0.35469354756E+03  0.47000000000E+01 0.  1.
         -5   -1    0    0    0  501 -0.00000000000E+00 -0.00000000000E+00 -0.49161305486E+02  0.49385463014E+02  0.47000000000E+01 0.  1.
         25    2    1    2    0    0  0.23543155903E+02  0.31391481751E+02  0.12526043823E+03  0.18125158446E+03  0.12498901619E+03 0.  0.
         25    2    1    2    0    0 -0.23543155903E+02 -0.31391481751E+02  0.18024066291E+03  0.22282742611E+03  0.12500263974E+03 0.  0.
          5    1    3    3  502    0 -0.40481207232E+02  0.64488313342E+01  0.35584303705E+01  0.41413379375E+02  0.47000000000E+01 0. -1.
         -5    1    3    3    0  502  0.64024363135E+02  0.24942650417E+02  0.12170200786E+03  0.13983820509E+03  0.47000000000E+01 0. -1.
          5    1    4    4  503    0  0.15512524799E+02  0.82841416191E+01  0.16348857245E+03  0.16449884118E+03  0.47000000000E+01 0. -1.
         -5    1    4    4    0  503 -0.39055680702E+02 -0.39675623370E+02  0.16752090467E+02  0.58328584930E+02  0.47000000000E+01 0. -1.
<mgrwt>
<rscale>  0 0.13101341E+03</rscale>
<asrwt>0</asrwt>
<pdfrwt beam="1">  1        5 0.54583086E-01 0.13101666E+03</pdfrwt>
<pdfrwt beam="2">  1       -5 0.75829160E-02 0.13101666E+03</pdfrwt>
<totfact> 0.29098178E+02</totfact>
</mgrwt>
</event>
<event>
 8    1  0.1865596E-007  0.1486110E+03  0.7546771E-02  0.1202194E+00
          5   -1    0    0  501    0  0.00000000000E+00  0.00000000000E+00  0.54483696678E+02  0.54686042128E+02  0.47000000000E+01 0. -1.
         -5   -1    0    0    0  501 -0.00000000000E+00 -0.00000000000E+00 -0.42498616693E+03  0.42501215522E+03  0.47000000000E+01 0. -1.
         25    2    1    2    0    0  0.53619887887E+02 -0.59878210103E+02 -0.13240835671E+03  0.19903106126E+03  0.12498359091E+03 0.  0.
         25    2    1    2    0    0 -0.53619887887E+02  0.59878210103E+02 -0.23809411355E+03  0.28066713609E+03  0.12499896781E+03 0.  0.
          5    1    4    4  502    0 -0.92049468272E+02  0.22836219290E+02 -0.14795684053E+03  0.17580646797E+03  0.47000000000E+01 0.  1.
         -5    1    4    4    0  502  0.38429580384E+02  0.37041990813E+02 -0.90137273016E+02  0.10486066812E+03  0.47000000000E+01 0.  1.
          5    1    3    3  503    0  0.74117304593E+01 -0.87946685377E+02 -0.10791877240E+03  0.13949231037E+03  0.47000000000E+01 0. -1.
         -5    1    3    3    0  503  0.46208157428E+02  0.28068475274E+02 -0.24489584311E+02  0.59538750884E+02  0.47000000000E+01 0. -1.
<mgrwt>
<rscale>  0 0.14860778E+03</rscale>
<asrwt>0</asrwt>
<pdfrwt beam="1">  1        5 0.83996716E-02 0.14861102E+03</pdfrwt>
<pdfrwt beam="2">  1       -5 0.65400049E-01 0.14861102E+03</pdfrwt>
<totfact> 0.17152337E+02</totfact>
</mgrwt>
</event>
<event>
 8    1  0.1865596E-007  0.1349544E+03  0.7546771E-02  0.1220290E+00
         -5   -1    0    0    0  501 -0.00000000000E+00  0.00000000000E+00  0.13853571344E+03  0.13861541725E+03  0.47000000000E+01 0.  1.
          5   -1    0    0  501    0  0.00000000000E+00 -0.00000000000E+00 -0.13612347091E+03  0.13620458631E+03  0.47000000000E+01 0.  1.
         25    2    1    2    0    0 -0.75703169429E+01  0.50261289040E+02  0.27084900638E+02  0.13762882022E+03  0.12499837374E+03 0.  0.
         25    2    1    2    0    0  0.75703169429E+01 -0.50261289040E+02 -0.24672658105E+02  0.13719118334E+03  0.12501669430E+03 0.  0.
          5    1    4    4  502    0 -0.47009464160E+02 -0.23595524987E+02 -0.48567241255E+02  0.71746117966E+02  0.47000000000E+01 0. -1.
         -5    1    4    4    0  502  0.54579781103E+02 -0.26665764053E+02  0.23894583150E+02  0.65445065373E+02  0.47000000000E+01 0. -1.
          5    1    3    3  503    0  0.40518825328E+02  0.44814515314E+02 -0.25733864095E+02  0.65836446973E+02  0.47000000000E+01 0. -1.
         -5    1    3    3    0  503 -0.48089142271E+02  0.54467737260E+01  0.52818764734E+02  0.71792373247E+02  0.47000000000E+01 0. -1.
<mgrwt>
<rscale>  0 0.13495012E+03</rscale>
<asrwt>0</asrwt>
<pdfrwt beam="2">  1        5 0.20954443E-01 0.13495437E+03</pdfrwt>
<pdfrwt beam="1">  1       -5 0.21325557E-01 0.13495437E+03</pdfrwt>
<totfact> 0.31510011E+02</totfact>
</mgrwt>
</event>
<event>
 8    1  0.1865596E-007  0.1514815E+03  0.7546771E-02  0.1198668E+00
         -5   -1    0    0    0  501 -0.00000000000E+00  0.00000000000E+00  0.14882421383E+03  0.14889841041E+03  0.47000000000E+01 0. -1.
          5   -1    0    0  501    0  0.00000000000E+00 -0.00000000000E+00 -0.15852249102E+03  0.15859215037E+03  0.47000000000E+01 0. -1.
         25    2    1    2    0    0  0.85227572065E+02  0.76334990092E+01  0.21037274432E+02  0.15293531870E+03  0.12499854177E+03 0.  0.
         25    2    1    2    0    0 -0.85227572065E+02 -0.76334990092E+01 -0.30735551620E+02  0.15455524208E+03  0.12498255628E+03 0.  0.
          5    1    4    4  502    0 -0.65757162866E+02  0.54271029373E+02 -0.26262866757E+02  0.89337434862E+02  0.47000000000E+01 0.  1.
         -5    1    4    4    0  502 -0.19470409199E+02 -0.61904528382E+02 -0.44726848633E+01  0.65217807219E+02  0.47000000000E+01 0.  1.
          5    1    3    3  503    0  0.97442432663E+02 -0.36449489867E+02  0.23940587547E+02  0.10685894781E+03  0.47000000000E+01 0.  1.
         -5    1    3    3    0  503 -0.12214860598E+02  0.44082988876E+02 -0.29033131151E+01  0.46076370894E+02  0.47000000000E+01 0.  1.
<mgrwt>
<rscale>  0 0.15147820E+03</rscale>
<asrwt>0</asrwt>
<pdfrwt beam="2">  1        5 0.24399141E-01 0.15148150E+03</pdfrwt>
<pdfrwt beam="1">  1       -5 0.22907099E-01 0.15148150E+03</pdfrwt>
<totfact> 0.21452181E+02</totfact>
</mgrwt>
</event>
<event>
 8    1  0.1865596E-007  0.1836531E+03  0.7546771E-02  0.1164316E+00
         -5   -1    0    0    0  501 -0.00000000000E+00  0.00000000000E+00  0.98840543282E+03  0.98841660732E+03  0.47000000000E+01 0.  1.
          5   -1    0    0  501    0  0.00000000000E+00 -0.00000000000E+00 -0.59611024931E+02  0.59796022387E+02  0.47000000000E+01 0.  1.
         25    2    1    2    0    0  0.13376631788E+03  0.14200090190E+02  0.80750244122E+03  0.82812129550E+03  0.12501846712E+03 0.  0.
         25    2    1    2    0    0 -0.13376631788E+03 -0.14200090190E+02  0.12129196667E+03  0.22009133421E+03  0.12503353092E+03 0.  0.
          5    1    3    3  502    0  0.14873183854E+03 -0.12645944209E+02  0.71814091353E+03  0.73350497025E+03  0.47000000000E+01 0.  1.
         -5    1    3    3    0  502 -0.14965520662E+02  0.26846034399E+02  0.89361527693E+02  0.94616325247E+02  0.47000000000E+01 0.  1.
          5    1    4    4  503    0  0.61229046948E-01 -0.69378304762E+01 -0.22174883101E+02  0.23705541151E+02  0.47000000000E+01 0.  1.
         -5    1    4    4    0  503 -0.13382754693E+03 -0.72622597140E+01  0.14346684977E+03  0.19638579306E+03  0.47000000000E+01 0.  1.
<mgrwt>
<rscale>  0 0.18365052E+03</rscale>
<asrwt>0</asrwt>
<pdfrwt beam="2">  1        5 0.91860176E-02 0.18365308E+03</pdfrwt>
<pdfrwt beam="1">  1       -5 0.15207746E+00 0.18365308E+03</pdfrwt>
<totfact> 0.19616920E+01</totfact>
</mgrwt>
</event>
<event>
 8    1  0.1865596E-007  0.1281944E+03  0.7546771E-02  0.1230160E+00
          5   -1    0    0  501    0  0.00000000000E+00  0.00000000000E+00  0.60418313652E+03  0.60420141713E+03  0.47000000000E+01 0.  1.
         -5   -1    0    0    0  501 -0.00000000000E+00 -0.00000000000E+00 -0.28528757858E+02  0.28913319161E+02  0.47000000000E+01 0.  1.
         25    2    1    2    0    0  0.26395303671E+02  0.10582365343E+02  0.21455318236E+03  0.24993371687E+03  0.12500038503E+03 0.  0.
         25    2    1    2    0    0 -0.26395303671E+02 -0.10582365343E+02  0.36110119631E+03  0.38318101942E+03  0.12499968461E+03 0.  0.
          5    1    4    4  502    0 -0.56518852735E+02  0.39808428894E+02  0.19319083907E+03  0.20524103398E+03  0.47000000000E+01 0. -1.
         -5    1    4    4    0  502  0.30123549064E+02 -0.50390794236E+02  0.16791035724E+03  0.17793998544E+03  0.47000000000E+01 0. -1.
          5    1    3    3  503    0  0.74887811790E+02 -0.47285820332E+01  0.10587169977E+03  0.12985164864E+03  0.47000000000E+01 0.  1.
         -5    1    3    3    0  503 -0.48492508118E+02  0.15310947376E+02  0.10868148258E+03  0.12008206823E+03  0.47000000000E+01 0.  1.
<mgrwt>
<rscale>  0 0.12819419E+03</rscale>
<asrwt>0</asrwt>
<pdfrwt beam="1">  1        5 0.92982225E-01 0.12819436E+03</pdfrwt>
<pdfrwt beam="2">  1       -5 0.44200282E-02 0.12819436E+03</pdfrwt>
<totfact> 0.21389975E+02</totfact>
</mgrwt>
</event>
<event>
 8    1  0.1865596E-007  0.1369389E+03  0.7546771E-02  0.1217509E+00
          5   -1    0    0  501    0  0.00000000000E+00  0.00000000000E+00  0.78320958501E+02  0.78461854047E+02  0.47000000000E+01 0.  1.
         -5   -1    0    0    0  501 -0.00000000000E+00 -0.00000000000E+00 -0.25156976116E+03  0.25161366165E+03  0.47000000000E+01 0.  1.
         25    2    1    2    0    0 -0.17566257674E+02  0.53090016222E+02 -0.12343771213E+03  0.18436141007E+03  0.12500055006E+03 0.  0.
         25    2    1    2    0    0  0.17566257674E+02 -0.53090016222E+02 -0.49811090528E+02  0.14571410563E+03  0.12499733041E+03 0.  0.
          5    1    4    4  502    0 -0.39884688855E+02  0.22620673903E+01  0.14888200745E+02  0.42891186453E+02  0.47000000000E+01 0.  1.
         -5    1    4    4    0  502  0.57450946528E+02 -0.55352083612E+02 -0.64699291273E+02  0.10282291918E+03  0.47000000000E+01 0.  1.
          5    1    3    3  503    0 -0.69896615028E+02  0.43583545834E+02 -0.63663416584E+02  0.10421220116E+03  0.47000000000E+01 0.  1.
         -5    1    3    3    0  503  0.52330357355E+02  0.95064703881E+01 -0.59774295549E+02  0.80149208908E+02  0.47000000000E+01 0.  1.
<mgrwt>
<rscale>  0 0.13693816E+03</rscale>
<asrwt>0</asrwt>
<pdfrwt beam="1">  1        5 0.12063593E-01 0.13693889E+03</pdfrwt>
<pdfrwt beam="2">  1       -5 0.38717255E-01 0.13693889E+03</pdfrwt>
<totfact> 0.27024167E+02</totfact>
</mgrwt>
</event>
<event>
 8    1  0.1865596E-007  0.1444267E+03  0.7546771E-02  0.1207495E+00
          5   -1    0    0  501    0  0.00000000000E+00  0.00000000000E+00  0.48199702907E+02  0.48428311558E+02  0.47000000000E+01 0. -1.
         -5   -1    0    0    0  501 -0.00000000000E+00 -0.00000000000E+00 -0.43204408902E+03  0.43206965279E+03  0.47000000000E+01 0. -1.
         25    2    1    2    0    0  0.72042841806E+02  0.66044940831E+01 -0.20053618189E+03  0.24713120728E+03  0.12500113185E+03 0.  0.
         25    2    1    2    0    0 -0.72042841806E+02 -0.66044940831E+01 -0.18330820422E+03  0.23336675707E+03  0.12499742066E+03 0.  0.
          5    1    3    3  502    0 -0.14031505360E+02  0.12163322972E+02  0.84952560501E+01  0.20954449258E+02  0.47000000000E+01 0. -1.
         -5    1    3    3    0  502  0.86074347166E+02 -0.55588288885E+01 -0.20903143794E+03  0.22617675802E+03  0.47000000000E+01 0. -1.
          5    1    4    4  503    0 -0.77492570075E+02 -0.53791365473E+02 -0.10146442803E+03  0.13862081219E+03  0.47000000000E+01 0. -1.
         -5    1    4    4    0  503  0.54497282692E+01  0.47186871390E+02 -0.81843776192E+02  0.94745944880E+02  0.47000000000E+01 0. -1.
<mgrwt>
<rscale>  0 0.14442590E+03</rscale>
<asrwt>0</asrwt>
<pdfrwt beam="1">  1        5 0.74348909E-02 0.14442671E+03</pdfrwt>
<pdfrwt beam="2">  1       -5 0.66487870E-01 0.14442671E+03</pdfrwt>
<totfact> 0.20190883E+02</totfact>
</mgrwt>
</event>
<event>
 8    1  0.1865596E-007  0.1481843E+03  0.7546771E-02  0.1202724E+00
         -5   -1    0    0    0  501 -0.00000000000E+00  0.00000000000E+00  0.13118993793E+03  0.13127410184E+03  0.47000000000E+01 0. -1.
          5   -1    0    0  501    0  0.00000000000E+00 -0.00000000000E+00 -0.17401150438E+03  0.17407496562E+03  0.47000000000E+01 0. -1.
         25    2    1    2    0    0  0.66855147917E+02 -0.43148342017E+02  0.87780862877E+01  0.14843789766E+03  0.12500145775E+03 0.  0.
         25    2    1    2    0    0 -0.66855147917E+02  0.43148342017E+02 -0.51599652736E+02  0.15691116980E+03  0.12500880298E+03 0.  0.
          5    1    3    3  502    0 -0.16168485242E+02  0.31798750714E+02 -0.15559573965E+01  0.36015156051E+02  0.47000000000E+01 0.  1.
         -5    1    3    3    0  502  0.83023633159E+02 -0.74947092730E+02  0.10334043684E+02  0.11242274161E+03  0.47000000000E+01 0.  1.
          5    1    4    4  503    0 -0.22838191445E+02 -0.41552342103E+02  0.13227652063E+01  0.47665709168E+02  0.47000000000E+01 0.  1.
         -5    1    4    4    0  503 -0.44016956472E+02  0.84700684119E+02 -0.52922417942E+02  0.10924546063E+03  0.47000000000E+01 0.  1.
<mgrwt>
<rscale>  0 0.14818277E+03</rscale>
<asrwt>0</asrwt>
<pdfrwt beam="2">  1        5 0.26782356E-01 0.14818431E+03</pdfrwt>
<pdfrwt beam="1">  1       -5 0.20194423E-01 0.14818431E+03</pdfrwt>
<totfact> 0.22573259E+02</totfact>
</mgrwt>
</event>
<event>
 8    1  0.1865596E-007  0.1390333E+03  0.7546771E-02  0.1214642E+00
          5   -1    0    0  501    0  0.00000000000E+00  0.00000000000E+00  0.17804678742E+03  0.17810881087E+03  0.47000000000E+01 0.  1.
         -5   -1    0    0    0  501 -0.00000000000E+00 -0.00000000000E+00 -0.10877743844E+03  0.10887892869E+03  0.47000000000E+01 0.  1.
         25    2    1    2    0    0 -0.52786009080E+02  0.30301997416E+02  0.26450426020E+02  0.14152700556E+03  0.12500277783E+03 0.  0.
         25    2    1    2    0    0  0.52786009080E+02 -0.30301997416E+02  0.42818922962E+02  0.14546073400E+03  0.12498316355E+03 0.  0.
          5    1    3    3  502    0 -0.69719305628E+02  0.13793827205E+02  0.64757502902E+02  0.96263572697E+02  0.47000000000E+01 0. -1.
         -5    1    3    3    0  502  0.16933296548E+02  0.16508170210E+02 -0.38307076882E+02  0.45263432867E+02  0.47000000000E+01 0. -1.
          5    1    4    4  503    0  0.65079507098E+02 -0.68145723444E+02  0.12406425127E+02  0.95158768656E+02  0.47000000000E+01 0.  1.
         -5    1    4    4    0  503 -0.12293498017E+02  0.37843726028E+02  0.30412497835E+02  0.50301965347E+02  0.47000000000E+01 0.  1.
<mgrwt>
<rscale>  0 0.13902893E+03</rscale>
<asrwt>0</asrwt>
<pdfrwt beam="1">  1        5 0.27404391E-01 0.13903334E+03</pdfrwt>
<pdfrwt beam="2">  1       -5 0.16747569E-01 0.13903334E+03</pdfrwt>
<totfact> 0.29877482E+02</totfact>
</mgrwt>
</event>
<event>
 8    1  0.1865596E-007  0.1254344E+03  0.7546771E-02  0.1234397E+00
          5   -1    0    0  501    0  0.00000000000E+00  0.00000000000E+00  0.53340523967E+03  0.53342594585E+03  0.47000000000E+01 0.  1.
         -5   -1    0    0    0  501 -0.00000000000E+00 -0.00000000000E+00 -0.29335919347E+02  0.29710034734E+02  0.47000000000E+01 0.  1.
         25    2    1    2    0    0  0.10285212325E+02  0.15671389394E+01  0.24035283203E+03  0.27110828619E+03  0.12498790925E+03 0.  0.
         25    2    1    2    0    0 -0.10285212325E+02 -0.15671389394E+01  0.26371648829E+03  0.29202769440E+03  0.12500218630E+03 0.  0.
          5    1    3    3  502    0 -0.24670867889E+02  0.31609198110E+02  0.18392399478E+02  0.44363988618E+02  0.47000000000E+01 0. -1.
         -5    1    3    3    0  502  0.34956080214E+02 -0.30042059170E+02  0.22196043255E+03  0.22674429757E+03  0.47000000000E+01 0. -1.
          5    1    4    4  503    0 -0.58721366933E+02  0.20795875745E+02  0.19586432842E+03  0.20558597358E+03  0.47000000000E+01 0.  1.
         -5    1    4    4    0  503  0.48436154608E+02 -0.22363014685E+02  0.67852159871E+02  0.86441720819E+02  0.47000000000E+01 0.  1.
<mgrwt>
<rscale>  0 0.12543084E+03</rscale>
<asrwt>0</asrwt>
<pdfrwt beam="1">  1        5 0.82092710E-01 0.12543440E+03</pdfrwt>
<pdfrwt beam="2">  1       -5 0.45435895E-02 0.12543440E+03</pdfrwt>
<totfact> 0.27186598E+02</totfact>
</mgrwt>
</event>
<event>
 8    1  0.1865596E-007  0.1361546E+03  0.7546771E-02  0.1218604E+00
         -5   -1    0    0    0  501 -0.00000000000E+00  0.00000000000E+00  0.31936111773E+03  0.31939570053E+03  0.47000000000E+01 0. -1.
          5   -1    0    0  501    0  0.00000000000E+00 -0.00000000000E+00 -0.63461182901E+02  0.63634988295E+02  0.47000000000E+01 0. -1.
         25    2    1    2    0    0 -0.51091286230E+02 -0.17296464514E+02  0.18451047639E+03  0.22930805594E+03  0.12501432481E+03 0.  0.
         25    2    1    2    0    0  0.51091286230E+02  0.17296464514E+02  0.71389458443E+02  0.15372263289E+03  0.12499882348E+03 0.  0.
          5    1    3    3  502    0 -0.43447157895E+02 -0.43958958979E+02  0.19068480095E+03  0.20050643111E+03  0.47000000000E+01 0.  1.
         -5    1    3    3    0  502 -0.76441283346E+01  0.26662494465E+02 -0.61743245606E+01  0.28801624830E+02  0.47000000000E+01 0.  1.
          5    1    4    4  503    0  0.28745760989E+02  0.46437065892E+02  0.95094420722E+02  0.10976228276E+03  0.47000000000E+01 0. -1.
         -5    1    4    4    0  503  0.22345525241E+02 -0.29140601378E+02 -0.23704962279E+02  0.43960350131E+02  0.47000000000E+01 0. -1.
<mgrwt>
<rscale>  0 0.13615102E+03</rscale>
<asrwt>0</asrwt>
<pdfrwt beam="2">  1        5 0.97792887E-02 0.13615458E+03</pdfrwt>
<pdfrwt beam="1">  1       -5 0.49148510E-01 0.13615458E+03</pdfrwt>
<totfact> 0.23785457E+02</totfact>
</mgrwt>
</event>
<event>
 8    1  0.1865596E-007  0.1293632E+03  0.7546771E-02  0.1228407E+00
          5   -1    0    0  501    0  0.00000000000E+00  0.00000000000E+00  0.21320716881E+03  0.21325896659E+03  0.47000000000E+01 0.  1.
         -5   -1    0    0    0  501 -0.00000000000E+00 -0.00000000000E+00 -0.80348305213E+02  0.80485651830E+02  0.47000000000E+01 0.  1.
         25    2    1    2    0    0  0.24700134659E+02  0.22313989547E+02  0.89538583226E+02  0.15732070275E+03  0.12499853938E+03 0.  0.
         25    2    1    2    0    0 -0.24700134659E+02 -0.22313989547E+02  0.43320280369E+02  0.13642391567E+03  0.12500730896E+03 0.  0.
          5    1    3    3  502    0  0.40230104626E+02 -0.13138528534E+02  0.10657897755E+03  0.11477042609E+03  0.47000000000E+01 0.  1.
         -5    1    3    3    0  502 -0.15529969967E+02  0.35452518081E+02 -0.17040394321E+02  0.42550276663E+02  0.47000000000E+01 0.  1.
          5    1    4    4  503    0  0.11545689964E+02 -0.39585131225E+02 -0.31013360541E+02  0.51809305177E+02  0.47000000000E+01 0.  1.
         -5    1    4    4    0  503 -0.36245824623E+02  0.17271141678E+02  0.74333640910E+02  0.84614610490E+02  0.47000000000E+01 0.  1.
<mgrwt>
<rscale>  0 0.12936108E+03</rscale>
<asrwt>0</asrwt>
<pdfrwt beam="1">  1        5 0.32815652E-01 0.12936320E+03</pdfrwt>
<pdfrwt beam="2">  1       -5 0.12375827E-01 0.12936320E+03</pdfrwt>
<totfact> 0.35288558E+02</totfact>
</mgrwt>
</event>
<event>
 8    1  0.1865596E-007  0.1394561E+03  0.7546771E-02  0.1214063E+00
          5   -1    0    0  501    0  0.00000000000E+00  0.00000000000E+00  0.22760363265E+02  0.23240570904E+02  0.47000000000E+01 0. -1.
         -5   -1    0    0    0  501 -0.00000000000E+00 -0.00000000000E+00 -0.87367032883E+03  0.87368297081E+03  0.47000000000E+01 0. -1.
         25    2    1    2    0    0  0.48604846644E+02  0.38217067619E+02 -0.34430535855E+03  0.37147495188E+03  0.12499793829E+03 0.  0.
         25    2    1    2    0    0 -0.48604846644E+02 -0.38217067619E+02 -0.50660460702E+03  0.52544858983E+03  0.12500006931E+03 0.  0.
          5    1    4    4  502    0  0.40745071222E+02 -0.25128502575E+02 -0.20579194824E+03  0.21133863449E+03  0.47000000000E+01 0. -1.
         -5    1    4    4    0  502 -0.89349917866E+02 -0.13088565044E+02 -0.30081265879E+03  0.31410995534E+03  0.47000000000E+01 0. -1.
          5    1    3    3  503    0 -0.12982619279E+02 -0.33635308702E+02 -0.46913935447E+02  0.59353936129E+02  0.47000000000E+01 0. -1.
         -5    1    3    3    0  503  0.61587465923E+02  0.71852376321E+02 -0.29739142310E+03  0.31212101575E+03  0.47000000000E+01 0. -1.
<mgrwt>
<rscale>  0 0.13945558E+03</rscale>
<asrwt>0</asrwt>
<pdfrwt beam="1">  1        5 0.35395065E-02 0.13945606E+03</pdfrwt>
<pdfrwt beam="2">  1       -5 0.13444871E+00 0.13945606E+03</pdfrwt>
<totfact> 0.12583582E+02</totfact>
</mgrwt>
</event>
<event>
 8    1  0.1865596E-007  0.1402562E+03  0.7546771E-02  0.1212987E+00
         -5   -1    0    0    0  501 -0.00000000000E+00  0.00000000000E+00  0.26521850090E+03  0.26526014254E+03  0.47000000000E+01 0.  1.
          5   -1    0    0  501    0  0.00000000000E+00 -0.00000000000E+00 -0.75546193110E+02  0.75692253854E+02  0.47000000000E+01 0.  1.
         25    2    1    2    0    0  0.62640017131E+02  0.11115991637E+02  0.70847955749E+02  0.15712901176E+03  0.12499102562E+03 0.  0.
         25    2    1    2    0    0 -0.62640017131E+02 -0.11115991637E+02  0.11882435204E+03  0.18382338464E+03  0.12499789232E+03 0.  0.
          5    1    4    4  502    0 -0.42884726674E+02 -0.51328273744E+02  0.12141641243E+03  0.13870013221E+03  0.47000000000E+01 0.  1.
         -5    1    4    4    0  502 -0.19755290457E+02  0.40212282106E+02 -0.25920603820E+01  0.45123252435E+02  0.47000000000E+01 0.  1.
          5    1    3    3  503    0  0.56332953790E+02  0.30056549460E+01  0.10602028558E+03  0.12018663236E+03  0.47000000000E+01 0.  1.
         -5    1    3    3    0  503  0.63070633407E+01  0.81103366914E+01 -0.35172329833E+02  0.36942379391E+02  0.47000000000E+01 0.  1.
<mgrwt>
<rscale>  0 0.14025470E+03</rscale>
<asrwt>0</asrwt>
<pdfrwt beam="2">  1        5 0.11636930E-01 0.14025623E+03</pdfrwt>
<pdfrwt beam="1">  1       -5 0.40817284E-01 0.14025623E+03</pdfrwt>
<totfact> 0.26067173E+02</totfact>
</mgrwt>
</event>
<event>
 8    1  0.1865596E-007  0.1602546E+03  0.7546771E-02  0.1188411E+00
          5   -1    0    0  501    0  0.00000000000E+00  0.00000000000E+00  0.19266023772E+03  0.19271755810E+03  0.47000000000E+01 0.  1.
         -5   -1    0    0    0  501 -0.00000000000E+00 -0.00000000000E+00 -0.13943633508E+03  0.13951552437E+03  0.47000000000E+01 0.  1.
         25    2    1    2    0    0  0.42392354934E+02 -0.90879462077E+02 -0.85632449818E+01  0.16047980338E+03  0.12499699893E+03 0.  0.
         25    2    1    2    0    0 -0.42392354934E+02  0.90879462077E+02  0.61787147627E+02  0.17175327909E+03  0.12500139552E+03 0.  0.
          5    1    4    4  502    0  0.30638537464E+02  0.47837417264E+02  0.65425676523E+02  0.86774118359E+02  0.47000000000E+01 0. -1.
         -5    1    4    4    0  502 -0.73030892397E+02  0.43042044813E+02 -0.36385288961E+01  0.84979160731E+02  0.47000000000E+01 0. -1.
          5    1    3    3  503    0 -0.19809051674E+01 -0.35785429453E+02  0.54630671882E+02  0.65506650477E+02  0.47000000000E+01 0. -1.
         -5    1    3    3    0  503  0.44373260101E+02 -0.55094032624E+02 -0.63193916864E+02  0.94973152898E+02  0.47000000000E+01 0. -1.
<mgrwt>
<rscale>  0 0.16025374E+03</rscale>
<asrwt>0</asrwt>
<pdfrwt beam="1">  1        5 0.29650537E-01 0.16025460E+03</pdfrwt>
<pdfrwt beam="2">  1       -5 0.21462245E-01 0.16025460E+03</pdfrwt>
<totfact> 0.16938758E+02</totfact>
</mgrwt>
</event>
<event>
 8    1  0.1865596E-007  0.1253958E+03  0.7546771E-02  0.1234453E+00
          5   -1    0    0  501    0  0.00000000000E+00  0.00000000000E+00  0.60629895710E+03  0.60631717391E+03  0.47000000000E+01 0.  1.
         -5   -1    0    0    0  501 -0.00000000000E+00 -0.00000000000E+00 -0.28517058019E+02  0.28901774998E+02  0.47000000000E+01 0.  1.
         25    2    1    2    0    0 -0.32688476186E+01  0.94058195126E+01  0.18984371177E+03  0.22751863982E+03  0.12499976706E+03 0.  0.
         25    2    1    2    0    0  0.32688476186E+01 -0.94058195126E+01  0.38793818732E+03  0.40770030909E+03  0.12499740016E+03 0.  0.
          5    1    3    3  502    0  0.43185888601E+01 -0.53870135416E+02  0.12603383554E+03  0.13721246081E+03  0.47000000000E+01 0. -1.
         -5    1    3    3    0  502 -0.75874364788E+01  0.63275954929E+02  0.63809876222E+02  0.90306179013E+02  0.47000000000E+01 0. -1.
          5    1    4    4  503    0 -0.29707686865E+02  0.29304590464E+02  0.31981640475E+03  0.32256151107E+03  0.47000000000E+01 0. -1.
         -5    1    4    4    0  503  0.32976534484E+02 -0.38710409976E+02  0.68121782571E+02  0.85138798017E+02  0.47000000000E+01 0. -1.
<mgrwt>
<rscale>  0 0.12539517E+03</rscale>
<asrwt>0</asrwt>
<pdfrwt beam="1">  1        5 0.93307757E-01 0.12539576E+03</pdfrwt>
<pdfrwt beam="2">  1       -5 0.44182346E-02 0.12539576E+03</pdfrwt>
<totfact> 0.21061254E+02</totfact>
</mgrwt>
</event>
<event>
 8    1  0.1865596E-007  0.1357997E+03  0.7546771E-02  0.1219096E+00
         -5   -1    0    0    0  501 -0.00000000000E+00  0.00000000000E+00  0.48109295056E+03  0.48111590815E+03  0.47000000000E+01 0.  1.
          5   -1    0    0  501    0  0.00000000000E+00 -0.00000000000E+00 -0.42715040447E+02  0.42972836541E+02  0.47000000000E+01 0.  1.
         25    2    1    2    0    0  0.10481181481E+02  0.52020927570E+02  0.30443192155E+03  0.33334720424E+03  0.12500212657E+03 0.  0.
         25    2    1    2    0    0 -0.10481181481E+02 -0.52020927570E+02  0.13394598856E+03  0.19074154045E+03  0.12499910132E+03 0.  0.
          5    1    4    4  502    0  0.22631644596E+02 -0.70826579109E+02  0.13289947855E+03  0.15235798976E+03  0.47000000000E+01 0.  1.
         -5    1    4    4    0  502 -0.33112826077E+02  0.18805651538E+02  0.10465100159E+01  0.38383550693E+02  0.47000000000E+01 0.  1.
          5    1    3    3  503    0  0.43206681229E+02 -0.26277892560E+02  0.11118995078E+03  0.12224009201E+03  0.47000000000E+01 0.  1.
         -5    1    3    3    0  503 -0.32725499748E+02  0.78298820131E+02  0.19324197077E+03  0.21110711223E+03  0.47000000000E+01 0.  1.
<mgrwt>
<rscale>  0 0.13579902E+03</rscale>
<asrwt>0</asrwt>
<pdfrwt beam="2">  1        5 0.65931411E-02 0.13579972E+03</pdfrwt>
<pdfrwt beam="1">  1       -5 0.74035897E-01 0.13579972E+03</pdfrwt>
<totfact> 0.19039673E+02</totfact>
</mgrwt>
</event>
<event>
 8    1  0.1865596E-007  0.1606808E+03  0.7546771E-02  0.1187930E+00
         -5   -1    0    0    0  501 -0.00000000000E+00  0.00000000000E+00  0.64525823313E+03  0.64527535009E+03  0.47000000000E+01 0. -1.
          5   -1    0    0  501    0  0.00000000000E+00 -0.00000000000E+00 -0.40629786129E+02  0.40900727633E+02  0.47000000000E+01 0. -1.
         25    2    1    2    0    0 -0.76753105081E+02 -0.65588247015E+02  0.34947840246E+03  0.38464685797E+03  0.12500077708E+03 0.  0.
         25    2    1    2    0    0  0.76753105081E+02  0.65588247015E+02  0.25515004454E+03  0.30152921975E+03  0.12500187137E+03 0.  0.
          5    1    4    4  502    0  0.42867873059E+02  0.55889259149E+02  0.35494114942E+02  0.79013834386E+02  0.47000000000E+01 0. -1.
         -5    1    4    4    0  502  0.33885232021E+02  0.96989878660E+01  0.21965592960E+03  0.22251538536E+03  0.47000000000E+01 0. -1.
          5    1    3    3  503    0  0.28537561200E+02 -0.40720445102E+02  0.81119902198E+02  0.95263191114E+02  0.47000000000E+01 0.  1.
         -5    1    3    3    0  503 -0.10529066628E+03 -0.24867801913E+02  0.26835850026E+03  0.28938366685E+03  0.47000000000E+01 0.  1.
<mgrwt>
<rscale>  0 0.16068060E+03</rscale>
<asrwt>0</asrwt>
<pdfrwt beam="2">  1        5 0.62728947E-02 0.16068082E+03</pdfrwt>
<pdfrwt beam="1">  1       -5 0.99292655E-01 0.16068082E+03</pdfrwt>
<totfact> 0.10958575E+02</totfact>
</mgrwt>
</event>
<event>
 8    1  0.1865596E-007  0.1371087E+03  0.7546771E-02  0.1217274E+00
         -5   -1    0    0    0  501 -0.00000000000E+00  0.00000000000E+00  0.46506573551E+03  0.46508948424E+03  0.47000000000E+01 0. -1.
          5   -1    0    0  501    0  0.00000000000E+00 -0.00000000000E+00 -0.40428652696E+02  0.40700933145E+02  0.47000000000E+01 0. -1.
         25    2    1    2    0    0  0.45470410083E+02  0.33255152462E+02  0.22862429429E+03  0.26658381243E+03  0.12499759100E+03 0.  0.
         25    2    1    2    0    0 -0.45470410083E+02 -0.33255152462E+02  0.19601278853E+03  0.23920660495E+03  0.12500129289E+03 0.  0.
          5    1    4    4  502    0 -0.54229479335E+02 -0.68154622187E+02  0.82592600652E+02  0.12012292303E+03  0.47000000000E+01 0.  1.
         -5    1    4    4    0  502  0.87590692515E+01  0.34899469725E+02  0.11342018788E+03  0.11908368192E+03  0.47000000000E+01 0.  1.
          5    1    3    3  503    0 -0.31814268091E+02  0.29750916260E+02  0.14964658900E+03  0.15592772772E+03  0.47000000000E+01 0.  1.
         -5    1    3    3    0  503  0.77284678174E+02  0.35042362024E+01  0.78977705282E+02  0.11065608471E+03  0.47000000000E+01 0.  1.
<mgrwt>
<rscale>  0 0.13710782E+03</rscale>
<asrwt>0</asrwt>
<pdfrwt beam="2">  1        5 0.62425644E-02 0.13710867E+03</pdfrwt>
<pdfrwt beam="1">  1       -5 0.71571344E-01 0.13710867E+03</pdfrwt>
<totfact> 0.22618899E+02</totfact>
</mgrwt>
</event>
<event>
 8    1  0.1865596E-007  0.2589827E+03  0.7546771E-02  0.1107757E+00
         -5   -1    0    0    0  501 -0.00000000000E+00  0.00000000000E+00  0.36613132153E+03  0.36616148706E+03  0.47000000000E+01 0.  1.
          5   -1    0    0  501    0  0.00000000000E+00 -0.00000000000E+00 -0.22096791470E+03  0.22101789368E+03  0.47000000000E+01 0.  1.
         25    2    1    2    0    0  0.22403349541E+03 -0.35404920790E+02  0.19406514971E+03  0.32362023365E+03  0.12499703122E+03 0.  0.
         25    2    1    2    0    0 -0.22403349541E+03  0.35404920790E+02 -0.48901742885E+02  0.26355914709E+03  0.12501011188E+03 0.  0.
          5    1    3    3  502    0  0.15727231054E+03 -0.54343841382E+02  0.19189115561E+03  0.25403176644E+03  0.47000000000E+01 0.  1.
         -5    1    3    3    0  502  0.66761184868E+02  0.18938920592E+02  0.21739940978E+01  0.69588467209E+02  0.47000000000E+01 0.  1.
          5    1    4    4  503    0 -0.65993923496E+02 -0.41440931408E+02 -0.39551949259E+02  0.87515686734E+02  0.47000000000E+01 0.  1.
         -5    1    4    4    0  503 -0.15803957192E+03  0.76845852198E+02 -0.93497936253E+01  0.17604346035E+03  0.47000000000E+01 0.  1.
<mgrwt>
<rscale>  0 0.25898113E+03</rscale>
<asrwt>0</asrwt>
<pdfrwt beam="2">  1        5 0.34001229E-01 0.25898271E+03</pdfrwt>
<pdfrwt beam="1">  1       -5 0.56334060E-01 0.25898271E+03</pdfrwt>
<totfact> 0.20765323E+01</totfact>
</mgrwt>
</event>
<event>
 8    1  0.1865596E-007  0.1281991E+03  0.7546771E-02  0.1230154E+00
         -5   -1    0    0    0  501 -0.00000000000E+00  0.00000000000E+00  0.27373529964E+03  0.27377564587E+03  0.47000000000E+01 0.  1.
          5   -1    0    0  501    0  0.00000000000E+00 -0.00000000000E+00 -0.60648129613E+02  0.60829973086E+02  0.47000000000E+01 0.  1.
         25    2    1    2    0    0 -0.16859179651E+01 -0.28402400040E+02  0.12507026189E+03  0.17910213610E+03  0.12500186438E+03 0.  0.
         25    2    1    2    0    0  0.16859179651E+01  0.28402400040E+02  0.88016908136E+02  0.15550348285E+03  0.12499927366E+03 0.  0.
          5    1    4    4  502    0 -0.49301329337E+01 -0.31243993250E+02  0.89756069814E+02  0.95282398130E+02  0.47000000000E+01 0. -1.
         -5    1    4    4    0  502  0.66160508988E+01  0.59646393290E+02 -0.17391616785E+01  0.60221084724E+02  0.47000000000E+01 0. -1.
          5    1    3    3  503    0 -0.59789299375E+02 -0.35042558612E+02  0.64891305333E+02  0.95056366130E+02  0.47000000000E+01 0. -1.
         -5    1    3    3    0  503  0.58103381410E+02  0.66401585722E+01  0.60178956560E+02  0.84045769970E+02  0.47000000000E+01 0. -1.
<mgrwt>
<rscale>  0 0.12819845E+03</rscale>
<asrwt>0</asrwt>
<pdfrwt beam="2">  1        5 0.93475729E-02 0.12819908E+03</pdfrwt>
<pdfrwt beam="1">  1       -5 0.42130215E-01 0.12819908E+03</pdfrwt>
<totfact> 0.34729162E+02</totfact>
</mgrwt>
</event>
<event>
 8    1  0.1865596E-007  0.1337319E+03  0.7546771E-02  0.1222022E+00
          5   -1    0    0  501    0  0.00000000000E+00  0.00000000000E+00  0.12071609687E+03  0.12080755789E+03  0.47000000000E+01 0.  1.
         -5   -1    0    0    0  501 -0.00000000000E+00 -0.00000000000E+00 -0.19422909000E+03  0.19428594752E+03  0.47000000000E+01 0.  1.
         25    2    1    2    0    0  0.47497366145E+02  0.12640842429E+01 -0.11361696867E+03  0.17547946007E+03  0.12500651039E+03 0.  0.
         25    2    1    2    0    0 -0.47497366145E+02 -0.12640842429E+01  0.40103975535E+02  0.13961404533E+03  0.12500462032E+03 0.  0.
          5    1    3    3  502    0  0.30262339985E+01 -0.55941171210E+02 -0.73461792173E+02  0.92505662734E+02  0.47000000000E+01 0.  1.
         -5    1    3    3    0  502  0.44471132146E+02  0.57205255453E+02 -0.40155176493E+02  0.82973797340E+02  0.47000000000E+01 0.  1.
          5    1    4    4  503    0 -0.76890633394E+02 -0.34132845895E+01 -0.13480448788E+02  0.78279195927E+02  0.47000000000E+01 0.  1.
         -5    1    4    4    0  503  0.29393267249E+02  0.21492003466E+01  0.53584424323E+02  0.61334849407E+02  0.47000000000E+01 0.  1.
<mgrwt>
<rscale>  0 0.13373147E+03</rscale>
<asrwt>0</asrwt>
<pdfrwt beam="1">  1        5 0.18583116E-01 0.13373192E+03</pdfrwt>
<pdfrwt beam="2">  1       -5 0.29892808E-01 0.13373192E+03</pdfrwt>
<totfact> 0.20554264E+02</totfact>
</mgrwt>
</event>
<event>
 8    1  0.1865596E-007  0.1270439E+03  0.7546771E-02  0.1231910E+00
          5   -1    0    0  501    0  0.00000000000E+00  0.00000000000E+00  0.30332206073E+03  0.30335847199E+03  0.47000000000E+01 0.  1.
         -5   -1    0    0    0  501 -0.00000000000E+00 -0.00000000000E+00 -0.54995733866E+02  0.55196202256E+02  0.47000000000E+01 0.  1.
         25    2    1    2    0    0  0.18310235198E+02  0.13403268104E+02  0.90658403678E+02  0.15607176729E+03  0.12499815230E+03 0.  0.
         25    2    1    2    0    0 -0.18310235198E+02 -0.13403268104E+02  0.15766792319E+03  0.20248290695E+03  0.12500096518E+03 0.  0.
          5    1    4    4  502    0 -0.58404878158E+02 -0.39144152147E+01  0.14894841122E+03  0.16010675078E+03  0.47000000000E+01 0. -1.
         -5    1    4    4    0  502  0.40094642960E+02 -0.94888528895E+01  0.87195119665E+01  0.42376156176E+02  0.47000000000E+01 0. -1.
          5    1    3    3  503    0 -0.22707644470E+02  0.51764280836E+01 -0.24095543052E+02  0.33839588060E+02  0.47000000000E+01 0. -1.
         -5    1    3    3    0  503  0.41017879668E+02  0.82268400205E+01  0.11475394673E+03  0.12223217923E+03  0.47000000000E+01 0. -1.
<mgrwt>
<rscale>  0 0.12704321E+03</rscale>
<asrwt>0</asrwt>
<pdfrwt beam="1">  1        5 0.46683153E-01 0.12704390E+03</pdfrwt>
<pdfrwt beam="2">  1       -5 0.84791038E-02 0.12704390E+03</pdfrwt>
<totfact> 0.33103027E+02</totfact>
</mgrwt>
</event>
<event>
 8    1  0.1865596E-007  0.1274552E+03  0.7546771E-02  0.1231282E+00
         -5   -1    0    0    0  501 -0.00000000000E+00  0.00000000000E+00  0.13172768432E+03  0.13181150487E+03  0.47000000000E+01 0.  1.
          5   -1    0    0  501    0  0.00000000000E+00 -0.00000000000E+00 -0.12317333072E+03  0.12326296849E+03  0.47000000000E+01 0.  1.
         25    2    1    2    0    0  0.21082851483E+02 -0.13212286034E+02  0.59888465078E+01  0.12759580781E+03  0.12500309100E+03 0.  0.
         25    2    1    2    0    0 -0.21082851483E+02  0.13212286034E+02  0.25655070903E+01  0.12747866555E+03  0.12500070885E+03 0.  0.
          5    1    4    4  502    0  0.32342636501E+01 -0.47407082911E+02 -0.27848368297E+02  0.55276700229E+02  0.47000000000E+01 0. -1.
         -5    1    4    4    0  502 -0.24317115133E+02  0.60619368944E+02  0.30413875387E+02  0.72201965317E+02  0.47000000000E+01 0. -1.
          5    1    3    3  503    0  0.76408977694E+01 -0.68009146200E+02 -0.85847813241E+01  0.69133318710E+02  0.47000000000E+01 0. -1.
         -5    1    3    3    0  503  0.13441953713E+02  0.54796860166E+02  0.14573627832E+02  0.58462489101E+02  0.47000000000E+01 0. -1.
<mgrwt>
<rscale>  0 0.12745460E+03</rscale>
<asrwt>0</asrwt>
<pdfrwt beam="2">  1        5 0.18963086E-01 0.12745518E+03</pdfrwt>
<pdfrwt beam="1">  1       -5 0.20279141E-01 0.12745518E+03</pdfrwt>
<totfact> 0.40854533E+02</totfact>
</mgrwt>
</event>
<event>
 8    1  0.1865596E-007  0.1313817E+03  0.7546771E-02  0.1225428E+00
         -5   -1    0    0    0  501 -0.00000000000E+00  0.00000000000E+00  0.21173077659E+03  0.21178293547E+03  0.47000000000E+01 0.  1.
          5   -1    0    0  501    0  0.00000000000E+00 -0.00000000000E+00 -0.81641382175E+02  0.81776557053E+02  0.47000000000E+01 0.  1.
         25    2    1    2    0    0  0.33990689298E+02 -0.21792980316E+02  0.73320602517E+02  0.15043774177E+03  0.12500120978E+03 0.  0.
         25    2    1    2    0    0 -0.33990689298E+02  0.21792980316E+02  0.56768791902E+02  0.14312175075E+03  0.12502335323E+03 0.  0.
          5    1    4    4  502    0  0.21925420744E+02  0.55407665747E+02  0.55248519630E+01  0.60027889248E+02  0.47000000000E+01 0.  1.
         -5    1    4    4    0  502 -0.55916110042E+02 -0.33614685432E+02  0.51243939939E+02  0.83093861503E+02  0.47000000000E+01 0.  1.
          5    1    3    3  503    0  0.66641138140E+00  0.17358027316E+02 -0.29973232930E+02  0.34960404870E+02  0.47000000000E+01 0. -1.
         -5    1    3    3    0  503  0.33324277917E+02 -0.39151007632E+02  0.10329383545E+03  0.11547733690E+03  0.47000000000E+01 0. -1.
<mgrwt>
<rscale>  0 0.13137639E+03</rscale>
<asrwt>0</asrwt>
<pdfrwt beam="2">  1        5 0.12574623E-01 0.13138166E+03</pdfrwt>
<pdfrwt beam="1">  1       -5 0.32588376E-01 0.13138166E+03</pdfrwt>
<totfact> 0.34977632E+02</totfact>
</mgrwt>
</event>
<event>
 8    1  0.1865596E-007  0.1649195E+03  0.7546771E-02  0.1183253E+00
         -5   -1    0    0    0  501 -0.00000000000E+00  0.00000000000E+00  0.70359216434E+02  0.70516021847E+02  0.47000000000E+01 0. -1.
          5   -1    0    0  501    0  0.00000000000E+00 -0.00000000000E+00 -0.38616520697E+03  0.38619380766E+03  0.47000000000E+01 0. -1.
         25    2    1    2    0    0  0.10444452207E+03 -0.25774989992E+02 -0.15261832726E+03  0.22469978721E+03  0.12499852903E+03 0.  0.
         25    2    1    2    0    0 -0.10444452207E+03  0.25774989992E+02 -0.16318766328E+03  0.23201004229E+03  0.12500175189E+03 0.  0.
          5    1    4    4  502    0 -0.95709282111E+02 -0.11257416889E+02 -0.16763186036E+03  0.19341542525E+03  0.47000000000E+01 0.  1.
         -5    1    4    4    0  502 -0.87352399636E+01  0.37032406881E+02  0.44441970820E+01  0.38594617039E+02  0.47000000000E+01 0.  1.
          5    1    3    3  503    0  0.71547249135E+02  0.46378826514E+02 -0.82661114571E+02  0.11884845085E+03  0.47000000000E+01 0.  1.
         -5    1    3    3    0  503  0.32897272940E+02 -0.72153816506E+02 -0.69957212684E+02  0.10585133636E+03  0.47000000000E+01 0.  1.
<mgrwt>
<rscale>  0 0.16491890E+03</rscale>
<asrwt>0</asrwt>
<pdfrwt beam="2">  1        5 0.59424292E-01 0.16491951E+03</pdfrwt>
<pdfrwt beam="1">  1       -5 0.10838757E-01 0.16491951E+03</pdfrwt>
<totfact> 0.14048694E+02</totfact>
</mgrwt>
</event>
<event>
 8    1  0.1865596E-007  0.1535449E+03  0.7546771E-02  0.1196186E+00
         -5   -1    0    0    0  501 -0.00000000000E+00  0.00000000000E+00  0.19598206087E+03  0.19603840997E+03  0.47000000000E+01 0.  1.
          5   -1    0    0  501    0  0.00000000000E+00 -0.00000000000E+00 -0.13367925565E+03  0.13376185327E+03  0.47000000000E+01 0.  1.
         25    2    1    2    0    0 -0.39147325634E+02 -0.80095021036E+02  0.83543195883E+02  0.17479320594E+03  0.12500189505E+03 0.  0.
         25    2    1    2    0    0  0.39147325634E+02  0.80095021036E+02 -0.21240390665E+02  0.15500705729E+03  0.12501323177E+03 0.  0.
          5    1    4    4  502    0 -0.20776232917E+02 -0.24711753080E+02 -0.68125462892E+01  0.33329017109E+02  0.47000000000E+01 0.  1.
         -5    1    4    4    0  502  0.59923558551E+02  0.10480677412E+03 -0.14427844376E+02  0.12167804019E+03  0.47000000000E+01 0.  1.
          5    1    3    3  503    0 -0.47902223807E+02 -0.36539574748E+01  0.84938318296E+02  0.97696378468E+02  0.47000000000E+01 0. -1.
         -5    1    3    3    0  503  0.87548981734E+01 -0.76441063561E+02 -0.13951224134E+01  0.77096827476E+02  0.47000000000E+01 0. -1.
<mgrwt>
<rscale>  0 0.15354258E+03</rscale>
<asrwt>0</asrwt>
<pdfrwt beam="2">  1        5 0.20576728E-01 0.15354489E+03</pdfrwt>
<pdfrwt beam="1">  1       -5 0.30161774E-01 0.15354489E+03</pdfrwt>
<totfact> 0.17486280E+02</totfact>
</mgrwt>
</event>
<event>
 8    1  0.1865596E-007  0.1722230E+03  0.7546771E-02  0.1175566E+00
          5   -1    0    0  501    0  0.00000000000E+00  0.00000000000E+00  0.20956283074E+02  0.21476866630E+02  0.47000000000E+01 0. -1.
         -5   -1    0    0    0  501 -0.00000000000E+00 -0.00000000000E+00 -0.14168234866E+04  0.14168312822E+04  0.47000000000E+01 0. -1.
         25    2    1    2    0    0  0.88770387315E+02  0.78440688480E+02 -0.78322601602E+03  0.80193749996E+03  0.12501055318E+03 0.  0.
         25    2    1    2    0    0 -0.88770387315E+02 -0.78440688480E+02 -0.61264118755E+03  0.63637064890E+03  0.12492099431E+03 0.  0.
          5    1    3    3  502    0  0.10616988406E+03  0.59159763740E+02 -0.40697406780E+03  0.42476099608E+03  0.47000000000E+01 0.  1.
         -5    1    3    3    0  502 -0.17399496742E+02  0.19280924740E+02 -0.37625194821E+03  0.37717650388E+03  0.47000000000E+01 0.  1.
          5    1    4    4  503    0  0.21339402949E+01 -0.60585434926E+01  0.39656559377E+01  0.88924730784E+01  0.47000000000E+01 0. -1.
         -5    1    4    4    0  503 -0.90904327610E+02 -0.72382144988E+02 -0.61660684349E+03  0.62747817582E+03  0.47000000000E+01 0. -1.
<mgrwt>
<rscale>  0 0.17220675E+03</rscale>
<asrwt>0</asrwt>
<pdfrwt beam="1">  1        5 0.32646892E-02 0.17222300E+03</pdfrwt>
<pdfrwt beam="2">  1       -5 0.21801341E+00 0.17222300E+03</pdfrwt>
<totfact> 0.37222919E+01</totfact>
</mgrwt>
</event>
<event>
 8    1  0.1865596E-007  0.1402347E+03  0.7546771E-02  0.1213015E+00
          5   -1    0    0  501    0  0.00000000000E+00  0.00000000000E+00  0.27450449786E+02  0.27849904730E+02  0.47000000000E+01 0. -1.
         -5   -1    0    0    0  501 -0.00000000000E+00 -0.00000000000E+00 -0.71223230121E+03  0.71224780863E+03  0.47000000000E+01 0. -1.
         25    2    1    2    0    0 -0.63127787014E+02 -0.74681778176E+01 -0.32583834832E+03  0.35473266753E+03  0.12499497992E+03 0.  0.
         25    2    1    2    0    0  0.63127787014E+02  0.74681778176E+01 -0.35894350311E+03  0.38536504582E+03  0.12499955578E+03 0.  0.
          5    1    4    4  502    0  0.92234220537E+02 -0.11027086377E+02 -0.31949348892E+03  0.33275655896E+03  0.47000000000E+01 0. -1.
         -5    1    4    4    0  502 -0.29106433523E+02  0.18495264195E+02 -0.39450014194E+02  0.52608486863E+02  0.47000000000E+01 0. -1.
          5    1    3    3  503    0 -0.90652228670E+02 -0.36128637745E+02 -0.19824074149E+03  0.22100811436E+03  0.47000000000E+01 0.  1.
         -5    1    3    3    0  503  0.27524441656E+02  0.28660459927E+02 -0.12759760683E+03  0.13372455317E+03  0.47000000000E+01 0.  1.
<mgrwt>
<rscale>  0 0.14023371E+03</rscale>
<asrwt>0</asrwt>
<pdfrwt beam="1">  1        5 0.42550668E-02 0.14023473E+03</pdfrwt>
<pdfrwt beam="2">  1       -5 0.10960611E+00 0.14023473E+03</pdfrwt>
<totfact> 0.15714322E+02</totfact>
</mgrwt>
</event>
<event>
 8    1  0.1865596E-007  0.1606777E+03  0.7546771E-02  0.1187934E+00
          5   -1    0    0  501    0  0.00000000000E+00  0.00000000000E+00  0.13017688196E+02  0.13840166400E+02  0.47000000000E+01 0. -1.
         -5   -1    0    0    0  501 -0.00000000000E+00 -0.00000000000E+00 -0.22144859278E+04  0.22144909155E+04  0.47000000000E+01 0. -1.
         25    2    1    2    0    0  0.71292018842E+02  0.71482284012E+02 -0.15057988802E+04  0.15143472521E+04  0.12500025397E+03 0.  0.
         25    2    1    2    0    0 -0.71292018842E+02 -0.71482284012E+02 -0.69566935946E+03  0.71398382975E+03  0.12499913031E+03 0.  0.
          5    1    3    3  502    0 -0.31866520292E+02  0.31830956783E+02 -0.28846909838E+03  0.29200204733E+03  0.47000000000E+01 0. -1.
         -5    1    3    3    0  502  0.10315853913E+03  0.39651327229E+02 -0.12173297818E+04  0.12223452048E+04  0.47000000000E+01 0. -1.
          5    1    4    4  503    0 -0.88914743158E+02 -0.25287289282E+01 -0.40702451989E+03  0.41665726421E+03  0.47000000000E+01 0.  1.
         -5    1    4    4    0  503  0.17622724315E+02 -0.68953555084E+02 -0.28864483957E+03  0.29732656555E+03  0.47000000000E+01 0.  1.
<mgrwt>
<rscale>  0 0.16067751E+03</rscale>
<asrwt>0</asrwt>
<pdfrwt beam="1">  1        5 0.20663742E-02 0.16067773E+03</pdfrwt>
<pdfrwt beam="2">  1       -5 0.34075350E+00 0.16067773E+03</pdfrwt>
<totfact> 0.12500296E+01</totfact>
</mgrwt>
</event>
<event>
 8    1  0.1865596E-007  0.1587074E+03  0.7546771E-02  0.1190167E+00
          5   -1    0    0  501    0  0.00000000000E+00  0.00000000000E+00  0.93371031170E+02  0.93489247840E+02  0.47000000000E+01 0.  1.
         -5   -1    0    0    0  501 -0.00000000000E+00 -0.00000000000E+00 -0.28523144859E+03  0.28527016890E+03  0.47000000000E+01 0.  1.
         25    2    1    2    0    0  0.96204699234E+02  0.17493384456E+02 -0.14048586401E+03  0.21195359908E+03  0.12500674991E+03 0.  0.
         25    2    1    2    0    0 -0.96204699234E+02 -0.17493384456E+02 -0.51374553405E+02  0.16680581765E+03  0.12499389349E+03 0.  0.
          5    1    3    3  502    0  0.53058895808E+02 -0.37266411264E+02 -0.12423439304E+03  0.14021521404E+03  0.47000000000E+01 0.  1.
         -5    1    3    3    0  502  0.43145803426E+02  0.54759795720E+02 -0.16251470967E+02  0.71738385047E+02  0.47000000000E+01 0.  1.
          5    1    4    4  503    0  0.15731932274E+02 -0.35746836162E+00 -0.50881864657E+02  0.53466584215E+02  0.47000000000E+01 0. -1.
         -5    1    4    4    0  503 -0.11193663151E+03 -0.17135916094E+02 -0.49268874804E+00  0.11333923344E+03  0.47000000000E+01 0. -1.
<mgrwt>
<rscale>  0 0.15870490E+03</rscale>
<asrwt>0</asrwt>
<pdfrwt beam="1">  1        5 0.14376846E-01 0.15870744E+03</pdfrwt>
<pdfrwt beam="2">  1       -5 0.43893833E-01 0.15870744E+03</pdfrwt>
<totfact> 0.16012352E+02</totfact>
</mgrwt>
</event>
<event>
 8    1  0.1865596E-007  0.1966733E+03  0.7546771E-02  0.1152577E+00
         -5   -1    0    0    0  501 -0.00000000000E+00  0.00000000000E+00  0.21632288086E+04  0.21632339143E+04  0.47000000000E+01 0.  1.
          5   -1    0    0  501    0  0.00000000000E+00 -0.00000000000E+00 -0.26997682668E+02  0.27403738239E+02  0.47000000000E+01 0.  1.
         25    2    1    2    0    0  0.44937073638E+02 -0.14503511064E+03  0.17093783511E+04  0.17206550174E+04  0.12499927055E+03 0.  0.
         25    2    1    2    0    0 -0.44937073638E+02  0.14503511064E+03  0.42685277476E+03  0.46998263519E+03  0.12500344860E+03 0.  0.
          5    1    4    4  502    0 -0.35056334954E+02  0.12447031576E+03  0.17811470690E+03  0.22015618306E+03  0.47000000000E+01 0. -1.
         -5    1    4    4    0  502 -0.98807386837E+01  0.20564794880E+02  0.24873806785E+03  0.24982645213E+03  0.47000000000E+01 0. -1.
          5    1    3    3  503    0 -0.43215189931E+02 -0.37781186755E+02  0.53373181585E+03  0.53683024501E+03  0.47000000000E+01 0.  1.
         -5    1    3    3    0  503  0.88152263568E+02 -0.10725392389E+03  0.11756465353E+04  0.11838247724E+04  0.47000000000E+01 0.  1.
<mgrwt>
<rscale>  0 0.19667263E+03</rscale>
<asrwt>0</asrwt>
<pdfrwt beam="2">  1        5 0.41851184E-02 0.19667330E+03</pdfrwt>
<pdfrwt beam="1">  1       -5 0.33283599E+00 0.19667330E+03</pdfrwt>
<totfact> 0.46535343E+00</totfact>
</mgrwt>
</event>
<event>
 8    1  0.1865596E-007  0.1464535E+03  0.7546771E-02  0.1204900E+00
          5   -1    0    0  501    0  0.00000000000E+00  0.00000000000E+00  0.32084711439E+02  0.32427129200E+02  0.47000000000E+01 0. -1.
         -5   -1    0    0    0  501 -0.00000000000E+00 -0.00000000000E+00 -0.66475174370E+03  0.66476835872E+03  0.47000000000E+01 0. -1.
         25    2    1    2    0    0 -0.74810927212E+02  0.15049089955E+02 -0.31093968217E+03  0.34370275048E+03  0.12499977921E+03 0.  0.
         25    2    1    2    0    0  0.74810927212E+02 -0.15049089955E+02 -0.32172735009E+03  0.35349273744E+03  0.12500191072E+03 0.  0.
          5    1    3    3  502    0 -0.85483731726E+02  0.99030868704E+01 -0.31776412099E+03  0.32924408287E+03  0.47000000000E+01 0. -1.
         -5    1    3    3    0  502  0.10672804514E+02  0.51460030849E+01  0.68244388163E+01  0.14458667612E+02  0.47000000000E+01 0. -1.
          5    1    4    4  503    0 -0.33627144125E+02 -0.16658910543E+02 -0.88366741424E+02  0.96120107742E+02  0.47000000000E+01 0. -1.
         -5    1    4    4    0  503  0.10843807134E+03  0.16098205881E+01 -0.23336060867E+03  0.25737262969E+03  0.47000000000E+01 0. -1.
<mgrwt>
<rscale>  0 0.14645305E+03</rscale>
<asrwt>0</asrwt>
<pdfrwt beam="1">  1        5 0.49637278E-02 0.14645350E+03</pdfrwt>
<pdfrwt beam="2">  1       -5 0.10229711E+00 0.14645350E+03</pdfrwt>
<totfact> 0.14648122E+02</totfact>
</mgrwt>
</event>
<event>
 8    1  0.1865596E-007  0.1318348E+03  0.7546771E-02  0.1224766E+00
         -5   -1    0    0    0  501 -0.00000000000E+00  0.00000000000E+00  0.66748941452E+02  0.66914207647E+02  0.47000000000E+01 0. -1.
          5   -1    0    0  501    0  0.00000000000E+00 -0.00000000000E+00 -0.26464590821E+03  0.26468763993E+03  0.47000000000E+01 0. -1.
         25    2    1    2    0    0  0.10379035775E+02 -0.40589973958E+02 -0.76609831626E+02  0.15247776492E+03  0.12500052850E+03 0.  0.
         25    2    1    2    0    0 -0.10379035775E+02  0.40589973958E+02 -0.12128713514E+03  0.17912408266E+03  0.12497838801E+03 0.  0.
          5    1    4    4  502    0  0.43399540227E+02  0.24095933176E+02 -0.53154313725E+01  0.50144569977E+02  0.47000000000E+01 0. -1.
         -5    1    4    4    0  502 -0.53778576002E+02  0.16494040782E+02 -0.11597170376E+03  0.12897951268E+03  0.47000000000E+01 0. -1.
          5    1    3    3  503    0  0.57217663097E+02 -0.51866510935E+02 -0.68623041254E+02  0.10341763736E+03  0.47000000000E+01 0. -1.
         -5    1    3    3    0  503 -0.46838627322E+02  0.11276536977E+02 -0.79867903716E+01  0.49060127558E+02  0.47000000000E+01 0. -1.
<mgrwt>
<rscale>  0 0.13182951E+03</rscale>
<asrwt>0</asrwt>
<pdfrwt beam="2">  1        5 0.40730678E-01 0.13183475E+03</pdfrwt>
<pdfrwt beam="1">  1       -5 0.10284991E-01 0.13183475E+03</pdfrwt>
<totfact> 0.31843964E+02</totfact>
</mgrwt>
</event>
<event>
 8    1  0.1865596E-007  0.1607436E+03  0.7546771E-02  0.1187860E+00
          5   -1    0    0  501    0  0.00000000000E+00  0.00000000000E+00  0.21431267041E+03  0.21436420107E+03  0.47000000000E+01 0.  1.
         -5   -1    0    0    0  501 -0.00000000000E+00 -0.00000000000E+00 -0.12572105738E+03  0.12580887992E+03  0.47000000000E+01 0.  1.
         25    2    1    2    0    0  0.99323682266E+02  0.18637062178E+02  0.94942301110E+01  0.16102254428E+03  0.12500234164E+03 0.  0.
         25    2    1    2    0    0 -0.99323682266E+02 -0.18637062178E+02  0.79097382926E+02  0.17915053671E+03  0.12500393943E+03 0.  0.
          5    1    3    3  502    0  0.63819793817E+02  0.62716337383E+02 -0.26918951152E+02  0.93557602517E+02  0.47000000000E+01 0. -1.
         -5    1    3    3    0  502  0.35503888449E+02 -0.44079275206E+02  0.36413181263E+02  0.67464941765E+02  0.47000000000E+01 0. -1.
          5    1    4    4  503    0 -0.67850220536E+02  0.19750685889E+02 -0.15242223096E+02  0.72444167362E+02  0.47000000000E+01 0.  1.
         -5    1    4    4    0  503 -0.31473461730E+02 -0.38387748067E+02  0.94339606022E+02  0.10670636935E+03  0.47000000000E+01 0.  1.
<mgrwt>
<rscale>  0 0.16074333E+03</rscale>
<asrwt>0</asrwt>
<pdfrwt beam="1">  1        5 0.32981900E-01 0.16074364E+03</pdfrwt>
<pdfrwt beam="2">  1       -5 0.19352420E-01 0.16074364E+03</pdfrwt>
<totfact> 0.16674696E+02</totfact>
</mgrwt>
</event>
<event>
 8    1  0.1865596E-007  0.1366507E+03  0.7546771E-02  0.1217914E+00
         -5   -1    0    0    0  501 -0.00000000000E+00  0.00000000000E+00  0.10944450516E+03  0.10954537740E+03  0.47000000000E+01 0.  1.
          5   -1    0    0  501    0  0.00000000000E+00 -0.00000000000E+00 -0.17099436112E+03  0.17105894170E+03  0.47000000000E+01 0.  1.
         25    2    1    2    0    0 -0.42456233613E+01  0.55054134290E+02 -0.22405975198E+02  0.13845775344E+03  0.12497815306E+03 0.  0.
         25    2    1    2    0    0  0.42456233613E+01 -0.55054134290E+02 -0.39143880762E+02  0.14214656566E+03  0.12499767881E+03 0.  0.
          5    1    3    3  502    0 -0.54789828674E+02  0.62787003323E+02 -0.24750564103E+02  0.87056381362E+02  0.47000000000E+01 0.  1.
         -5    1    3    3    0  502  0.50544205313E+02 -0.77328690324E+01  0.23445889050E+01  0.51401372076E+02  0.47000000000E+01 0.  1.
          5    1    4    4  503    0  0.53233909956E+02 -0.15609699347E+02 -0.53772876384E+02  0.77402352145E+02  0.47000000000E+01 0. -1.
         -5    1    4    4    0  503 -0.48988286595E+02 -0.39444434943E+02  0.14628995621E+02  0.64744213520E+02  0.47000000000E+01 0. -1.
<mgrwt>
<rscale>  0 0.13664619E+03</rscale>
<asrwt>0</asrwt>
<pdfrwt beam="2">  1        5 0.26319552E-01 0.13665066E+03</pdfrwt>
<pdfrwt beam="1">  1       -5 0.16850343E-01 0.13665066E+03</pdfrwt>
<totfact> 0.31755676E+02</totfact>
</mgrwt>
</event>
<event>
 8    1  0.1865596E-007  0.1363598E+03  0.7546771E-02  0.1218314E+00
          5   -1    0    0  501    0  0.00000000000E+00  0.00000000000E+00  0.92319735166E+02  0.92439296304E+02  0.47000000000E+01 0. -1.
         -5   -1    0    0    0  501 -0.00000000000E+00 -0.00000000000E+00 -0.21643876887E+03  0.21648979345E+03  0.47000000000E+01 0. -1.
         25    2    1    2    0    0 -0.34431362588E+02 -0.42239666801E+02 -0.10312540016E+03  0.17096264982E+03  0.12499468506E+03 0.  0.
         25    2    1    2    0    0  0.34431362588E+02  0.42239666801E+02 -0.20993633536E+02  0.13796643994E+03  0.12499719084E+03 0.  0.
          5    1    3    3  502    0  0.87075834136E+01 -0.42826980544E+02 -0.11733458554E+03  0.12529751488E+03  0.47000000000E+01 0.  1.
         -5    1    3    3    0  502 -0.43138946002E+02  0.58731374277E+00  0.14209185377E+02  0.45665134935E+02  0.47000000000E+01 0.  1.
          5    1    4    4  503    0  0.74501462989E+02  0.56161938084E+02 -0.10416312887E+02  0.93995855499E+02  0.47000000000E+01 0. -1.
         -5    1    4    4    0  503 -0.40070100401E+02 -0.13922271283E+02 -0.10577320649E+02  0.43970584439E+02  0.47000000000E+01 0. -1.
<mgrwt>
<rscale>  0 0.13635927E+03</rscale>
<asrwt>0</asrwt>
<pdfrwt beam="1">  1        5 0.14216158E-01 0.13635984E+03</pdfrwt>
<pdfrwt beam="2">  1       -5 0.33311394E-01 0.13635984E+03</pdfrwt>
<totfact> 0.27235638E+02</totfact>
</mgrwt>
</event>
<event>
 8    1  0.1865596E-007  0.1326546E+03  0.7546771E-02  0.1223576E+00
         -5   -1    0    0    0  501 -0.00000000000E+00  0.00000000000E+00  0.51194869307E+02  0.51410160896E+02  0.47000000000E+01 0.  1.
          5   -1    0    0  501    0  0.00000000000E+00 -0.00000000000E+00 -0.35808457098E+03  0.35811541432E+03  0.47000000000E+01 0.  1.
         25    2    1    2    0    0  0.10742936792E+02  0.43062612825E+02 -0.11106847872E+03  0.17301283962E+03  0.12500974520E+03 0.  0.
         25    2    1    2    0    0 -0.10742936792E+02 -0.43062612825E+02 -0.19582122295E+03  0.23651273559E+03  0.12499009331E+03 0.  0.
          5    1    4    4  502    0  0.35934444833E+02 -0.36582718537E+02 -0.21378751662E+02  0.55755902321E+02  0.47000000000E+01 0.  1.
         -5    1    4    4    0  502 -0.46677381625E+02 -0.64798942886E+01 -0.17444247129E+03  0.18075683327E+03  0.47000000000E+01 0.  1.
          5    1    3    3  503    0 -0.37607251095E+02  0.54322616287E+02 -0.10305681624E+03  0.12250734406E+03  0.47000000000E+01 0.  1.
         -5    1    3    3    0  503  0.48350187887E+02 -0.11260003462E+02 -0.80116624873E+01  0.50505495567E+02  0.47000000000E+01 0.  1.
<mgrwt>
<rscale>  0 0.13264994E+03</rscale>
<asrwt>0</asrwt>
<pdfrwt beam="2">  1        5 0.55108866E-01 0.13265457E+03</pdfrwt>
<pdfrwt beam="1">  1       -5 0.78950674E-02 0.13265457E+03</pdfrwt>
<totfact> 0.26724285E+02</totfact>
</mgrwt>
</event>
<event>
 8    1  0.1865596E-007  0.1322673E+03  0.7546771E-02  0.1224150E+00
         -5   -1    0    0    0  501 -0.00000000000E+00  0.00000000000E+00  0.15318736065E+02  0.16023535023E+02  0.47000000000E+01 0.  1.
          5   -1    0    0  501    0  0.00000000000E+00 -0.00000000000E+00 -0.15976271611E+04  0.15976340744E+04  0.47000000000E+01 0.  1.
         25    2    1    2    0    0 -0.13816329051E+02 -0.40826870035E+02 -0.34776113492E+03  0.37204508766E+03  0.12498806354E+03 0.  0.
         25    2    1    2    0    0  0.13816329051E+02  0.40826870035E+02 -0.12345472901E+04  0.12416125218E+04  0.12504766514E+03 0.  0.
          5    1    4    4  502    0  0.65035141339E+02  0.34947458440E+02 -0.90557620085E+03  0.90859300020E+03  0.47000000000E+01 0.  1.
         -5    1    4    4    0  502 -0.51218812288E+02  0.58794115944E+01 -0.32897108922E+03  0.33301952159E+03  0.47000000000E+01 0.  1.
          5    1    3    3  503    0 -0.27956382831E+02 -0.44873084395E+02 -0.47024194574E+02  0.70912043543E+02  0.47000000000E+01 0.  1.
         -5    1    3    3    0  503  0.14140053780E+02  0.40462143606E+01 -0.30073694034E+03  0.30113304412E+03  0.47000000000E+01 0.  1.
<mgrwt>
<rscale>  0 0.13225323E+03</rscale>
<asrwt>0</asrwt>
<pdfrwt beam="2">  1        5 0.24584341E+00 0.13226732E+03</pdfrwt>
<pdfrwt beam="1">  1       -5 0.24114770E-02 0.13226732E+03</pdfrwt>
<totfact> 0.37488816E+01</totfact>
</mgrwt>
</event>
<event>
 8    1  0.1865596E-007  0.1400822E+03  0.7546771E-02  0.1213219E+00
          5   -1    0    0  501    0  0.00000000000E+00  0.00000000000E+00  0.66784500485E+02  0.66949678901E+02  0.47000000000E+01 0. -1.
         -5   -1    0    0    0  501 -0.00000000000E+00 -0.00000000000E+00 -0.32835752992E+03  0.32839116531E+03  0.47000000000E+01 0. -1.
         25    2    1    2    0    0  0.54183028590E+02  0.32584140365E+02 -0.19537783450E+03  0.24040698264E+03  0.12500196918E+03 0.  0.
         25    2    1    2    0    0 -0.54183028590E+02 -0.32584140365E+02 -0.66195194932E+02  0.15493386157E+03  0.12500068335E+03 0.  0.
          5    1    4    4  502    0 -0.67283692572E+02 -0.26463154852E+02  0.13586538451E+02  0.73716198205E+02  0.47000000000E+01 0. -1.
         -5    1    4    4    0  502  0.13100663981E+02 -0.61209855135E+01 -0.79781733383E+02  0.81217663362E+02  0.47000000000E+01 0. -1.
          5    1    3    3  503    0  0.59312129303E+02  0.75013713500E+02 -0.11874953379E+03  0.15254024935E+03  0.47000000000E+01 0. -1.
         -5    1    3    3    0  503 -0.51291007129E+01 -0.42429573134E+02 -0.76628300711E+02  0.87866733297E+02  0.47000000000E+01 0. -1.
<mgrwt>
<rscale>  0 0.14008190E+03</rscale>
<asrwt>0</asrwt>
<pdfrwt beam="1">  1        5 0.10289832E-01 0.14008219E+03</pdfrwt>
<pdfrwt beam="2">  1       -5 0.50531835E-01 0.14008219E+03</pdfrwt>
<totfact> 0.20717591E+02</totfact>
</mgrwt>
</event>
<event>
 8    1  0.1865596E-007  0.1250297E+03  0.7546771E-02  0.1235024E+00
          5   -1    0    0  501    0  0.00000000000E+00  0.00000000000E+00  0.37081750130E+03  0.37084728565E+03  0.47000000000E+01 0.  1.
         -5   -1    0    0    0  501 -0.00000000000E+00 -0.00000000000E+00 -0.51072063316E+02  0.51287870411E+02  0.47000000000E+01 0.  1.
         25    2    1    2    0    0  0.25581903196E+01  0.84927389914E+00  0.71115822787E+02  0.14383979873E+03  0.12500064738E+03 0.  0.
         25    2    1    2    0    0 -0.25581903196E+01 -0.84927389914E+00  0.24862961520E+03  0.27829535733E+03  0.12499741898E+03 0.  0.
          5    1    4    4  502    0  0.56228556543E+02 -0.59791099860E+01  0.69975742064E+02  0.90089371208E+02  0.47000000000E+01 0. -1.
         -5    1    4    4    0  502 -0.58786746862E+02  0.51298360869E+01  0.17865387314E+03  0.18820598612E+03  0.47000000000E+01 0. -1.
          5    1    3    3  503    0 -0.27597863402E+02 -0.52940679264E+02  0.18609271886E+02  0.62711662276E+02  0.47000000000E+01 0. -1.
         -5    1    3    3    0  503  0.30156053722E+02  0.53789953163E+02  0.52506550901E+02  0.81128136456E+02  0.47000000000E+01 0. -1.
<mgrwt>
<rscale>  0 0.12502890E+03</rscale>
<asrwt>0</asrwt>
<pdfrwt beam="1">  1        5 0.57067740E-01 0.12502971E+03</pdfrwt>
<pdfrwt beam="2">  1       -5 0.78761320E-02 0.12502971E+03</pdfrwt>
<totfact> 0.24360284E+02</totfact>
</mgrwt>
</event>
<event>
 8    1  0.1865596E-007  0.2276114E+03  0.7546771E-02  0.1128333E+00
         -5   -1    0    0    0  501 -0.00000000000E+00  0.00000000000E+00  0.13276124119E+03  0.13284440960E+03  0.47000000000E+01 0.  1.
          5   -1    0    0  501    0  0.00000000000E+00 -0.00000000000E+00 -0.51149693686E+03  0.51151852988E+03  0.47000000000E+01 0.  1.
         25    2    1    2    0    0  0.14103251174E+02 -0.18969090639E+03 -0.32365458882E+02  0.22990104036E+03  0.12500169507E+03 0.  0.
         25    2    1    2    0    0 -0.14103251174E+02  0.18969090639E+03 -0.34637023678E+03  0.41446189913E+03  0.12499913295E+03 0.  0.
          5    1    4    4  502    0 -0.43373222642E+01 -0.27234704004E+01  0.82924188080E+01  0.10820529799E+02  0.47000000000E+01 0. -1.
         -5    1    4    4    0  502 -0.97659289095E+01  0.19241437679E+03 -0.35466265559E+03  0.40364136933E+03  0.47000000000E+01 0. -1.
          5    1    3    3  503    0  0.18032476563E+02 -0.63005922643E+02  0.46548844252E+02  0.80522055366E+02  0.47000000000E+01 0. -1.
         -5    1    3    3    0  503 -0.39292253897E+01 -0.12668498374E+03 -0.78914303134E+02  0.14937898499E+03  0.47000000000E+01 0. -1.
<mgrwt>
<rscale>  0 0.22761108E+03</rscale>
<asrwt>0</asrwt>
<pdfrwt beam="2">  1        5 0.78699894E-01 0.22761144E+03</pdfrwt>
<pdfrwt beam="1">  1       -5 0.20432865E-01 0.22761144E+03</pdfrwt>
<totfact> 0.25599202E+01</totfact>
</mgrwt>
</event>
<event>
 8    1  0.1865596E-007  0.1276517E+03  0.7546771E-02  0.1230984E+00
         -5   -1    0    0    0  501 -0.00000000000E+00  0.00000000000E+00  0.18044285272E+02  0.18646346317E+02  0.47000000000E+01 0.  1.
          5   -1    0    0  501    0  0.00000000000E+00 -0.00000000000E+00 -0.94606836366E+03  0.94608003822E+03  0.47000000000E+01 0.  1.
         25    2    1    2    0    0  0.25352632377E+02  0.51654812878E+01 -0.34411378435E+03  0.36702562392E+03  0.12499629544E+03 0.  0.
         25    2    1    2    0    0 -0.25352632377E+02 -0.51654812878E+01 -0.58391029404E+03  0.59770076062E+03  0.12500211832E+03 0.  0.
          5    1    3    3  502    0  0.48590041110E+02  0.38838558318E+01 -0.43576915671E+02  0.65552376087E+02  0.47000000000E+01 0. -1.
         -5    1    3    3    0  502 -0.23237408733E+02  0.12816254560E+01 -0.30053686867E+03  0.30147324784E+03  0.47000000000E+01 0. -1.
          5    1    4    4  503    0  0.10742491193E+02 -0.27201765626E+02 -0.30003520286E+02  0.42162049284E+02  0.47000000000E+01 0.  1.
         -5    1    4    4    0  503 -0.36095123570E+02  0.22036284339E+02 -0.55390677376E+03  0.55553871133E+03  0.47000000000E+01 0.  1.
<mgrwt>
<rscale>  0 0.12765032E+03</rscale>
<asrwt>0</asrwt>
<pdfrwt beam="2">  1        5 0.14559615E+00 0.12765174E+03</pdfrwt>
<pdfrwt beam="1">  1       -5 0.28232551E-02 0.12765174E+03</pdfrwt>
<totfact> 0.14259219E+02</totfact>
</mgrwt>
</event>
<event>
 8    1  0.1865596E-007  0.1412519E+03  0.7546771E-02  0.1211659E+00
         -5   -1    0    0    0  501 -0.00000000000E+00  0.00000000000E+00  0.10141544447E+03  0.10152429452E+03  0.47000000000E+01 0. -1.
          5   -1    0    0  501    0  0.00000000000E+00 -0.00000000000E+00 -0.19899728078E+03  0.19905277631E+03  0.47000000000E+01 0. -1.
         25    2    1    2    0    0 -0.61021903643E+02  0.24567310708E+02 -0.31879594313E+02  0.14480469176E+03  0.12499945897E+03 0.  0.
         25    2    1    2    0    0  0.61021903643E+02 -0.24567310708E+02 -0.65702241998E+02  0.15577237907E+03  0.12498409498E+03 0.  0.
          5    1    3    3  502    0 -0.85804440071E+01 -0.26530442349E+01  0.45905128369E+02  0.47010993115E+02  0.47000000000E+01 0. -1.
         -5    1    3    3    0  502 -0.52441459636E+02  0.27220354943E+02 -0.77784722682E+02  0.97793698646E+02  0.47000000000E+01 0. -1.
          5    1    4    4  503    0  0.65455294378E+01  0.31963842032E+02 -0.69616893106E+02  0.77026832719E+02  0.47000000000E+01 0.  1.
         -5    1    4    4    0  503  0.54476374205E+02 -0.56531152740E+02  0.39146511081E+01  0.78745546350E+02  0.47000000000E+01 0.  1.
<mgrwt>
<rscale>  0 0.14124847E+03</rscale>
<asrwt>0</asrwt>
<pdfrwt beam="2">  1        5 0.30627608E-01 0.14125187E+03</pdfrwt>
<pdfrwt beam="1">  1       -5 0.15615018E-01 0.14125187E+03</pdfrwt>
<totfact> 0.27466534E+02</totfact>
</mgrwt>
</event>
<event>
 8    1  0.1865596E-007  0.1507701E+03  0.7546771E-02  0.1199530E+00
          5   -1    0    0  501    0  0.00000000000E+00  0.00000000000E+00  0.20388814287E+03  0.20394230753E+03  0.47000000000E+01 0.  1.
         -5   -1    0    0    0  501 -0.00000000000E+00 -0.00000000000E+00 -0.11496113352E+03  0.11505716936E+03  0.47000000000E+01 0.  1.
         25    2    1    2    0    0 -0.80121602605E+02 -0.26184883869E+02  0.16296262839E+02  0.15164703119E+03  0.12500453808E+03 0.  0.
         25    2    1    2    0    0  0.80121602605E+02  0.26184883869E+02  0.72630746502E+02  0.16735244570E+03  0.12500598545E+03 0.  0.
          5    1    3    3  502    0  0.80760927088E+01  0.26452995077E+02  0.37332078555E+02  0.46698590034E+02  0.47000000000E+01 0. -1.
         -5    1    3    3    0  502 -0.88197695314E+02 -0.52637878946E+02 -0.21035815715E+02  0.10494844116E+03  0.47000000000E+01 0. -1.
          5    1    4    4  503    0  0.31073510910E+02  0.72307343603E+02  0.59062210169E+02  0.98510657744E+02  0.47000000000E+01 0. -1.
         -5    1    4    4    0  503  0.49048091695E+02 -0.46122459733E+02  0.13568536333E+02  0.68841787956E+02  0.47000000000E+01 0. -1.
<mgrwt>
<rscale>  0 0.15076978E+03</rscale>
<asrwt>0</asrwt>
<pdfrwt beam="1">  1        5 0.31378960E-01 0.15077008E+03</pdfrwt>
<pdfrwt beam="2">  1       -5 0.17697882E-01 0.15077008E+03</pdfrwt>
<totfact> 0.21278727E+02</totfact>
</mgrwt>
</event>
<event>
 8    1  0.1865596E-007  0.1257871E+03  0.7546771E-02  0.1233846E+00
          5   -1    0    0  501    0  0.00000000000E+00  0.00000000000E+00  0.96128702094E+02  0.96243531555E+02  0.47000000000E+01 0.  1.
         -5   -1    0    0    0  501 -0.00000000000E+00 -0.00000000000E+00 -0.16925094829E+03  0.16931619385E+03  0.47000000000E+01 0.  1.
         25    2    1    2    0    0 -0.29789172297E+01 -0.13730944048E+02 -0.59159074421E+02  0.13900427942E+03  0.12499992335E+03 0.  0.
         25    2    1    2    0    0  0.29789172297E+01  0.13730944048E+02 -0.13963171779E+02  0.12655544598E+03  0.12499559180E+03 0.  0.
          5    1    3    3  502    0 -0.59048396791E+02  0.15774546703E+02 -0.37602598480E+02  0.71913801872E+02  0.47000000000E+01 0.  1.
         -5    1    3    3    0  502  0.56069479561E+02 -0.29505490751E+02 -0.21556475942E+02  0.67090477549E+02  0.47000000000E+01 0.  1.
          5    1    4    4  503    0 -0.72512468272E+01 -0.37969013490E+02  0.36548031735E+02  0.53404823655E+02  0.47000000000E+01 0. -1.
         -5    1    4    4    0  503  0.10230164057E+02  0.51699957538E+02 -0.50511203514E+02  0.73150622325E+02  0.47000000000E+01 0. -1.
<mgrwt>
<rscale>  0 0.12578602E+03</rscale>
<asrwt>0</asrwt>
<pdfrwt beam="1">  1        5 0.14802883E-01 0.12578710E+03</pdfrwt>
<pdfrwt beam="2">  1       -5 0.26052459E-01 0.12578710E+03</pdfrwt>
<totfact> 0.39780828E+02</totfact>
</mgrwt>
</event>
<event>
 8    1  0.1865596E-007  0.1278041E+03  0.7546771E-02  0.1230754E+00
          5   -1    0    0  501    0  0.00000000000E+00  0.00000000000E+00  0.39764330312E+03  0.39767107830E+03  0.47000000000E+01 0.  1.
         -5   -1    0    0    0  501 -0.00000000000E+00 -0.00000000000E+00 -0.42553303497E+02  0.42812073514E+02  0.47000000000E+01 0.  1.
         25    2    1    2    0    0  0.22336758511E+02 -0.14448995230E+02  0.13440987794E+03  0.18546627523E+03  0.12499607879E+03 0.  0.
         25    2    1    2    0    0 -0.22336758511E+02  0.14448995230E+02  0.22068012168E+03  0.25501687659E+03  0.12500474789E+03 0.  0.
          5    1    3    3  502    0 -0.30407363716E+01  0.52939207583E+02  0.75128035421E+02  0.92076693487E+02  0.47000000000E+01 0.  1.
         -5    1    3    3    0  502  0.25377494883E+02 -0.67388202813E+02  0.59281842522E+02  0.93389581740E+02  0.47000000000E+01 0.  1.
          5    1    4    4  503    0 -0.61572151347E+02  0.44185563730E+02  0.10861642455E+03  0.13252589009E+03  0.47000000000E+01 0.  1.
         -5    1    4    4    0  503  0.39235392836E+02 -0.29736568500E+02  0.11206369713E+03  0.12249098650E+03  0.47000000000E+01 0.  1.
<mgrwt>
<rscale>  0 0.12780199E+03</rscale>
<asrwt>0</asrwt>
<pdfrwt beam="1">  1        5 0.61197939E-01 0.12780411E+03</pdfrwt>
<pdfrwt beam="2">  1       -5 0.65687036E-02 0.12780411E+03</pdfrwt>
<totfact> 0.28704875E+02</totfact>
</mgrwt>
</event>
<event>
 8    1  0.1865596E-007  0.1529874E+03  0.7546771E-02  0.1196851E+00
         -5   -1    0    0    0  501 -0.00000000000E+00  0.00000000000E+00  0.37649046589E+03  0.37651980148E+03  0.47000000000E+01 0. -1.
          5   -1    0    0  501    0  0.00000000000E+00 -0.00000000000E+00 -0.64267400666E+02  0.64439031559E+02  0.47000000000E+01 0. -1.
         25    2    1    2    0    0 -0.54088435560E+02 -0.69667046526E+02  0.19705644903E+03  0.24947222622E+03  0.12500436520E+03 0.  0.
         25    2    1    2    0    0  0.54088435560E+02  0.69667046526E+02  0.11516661620E+03  0.19148660682E+03  0.12499885949E+03 0.  0.
          5    1    4    4  502    0  0.61924857673E+02  0.88945626528E+02  0.43783187470E+02  0.11698320384E+03  0.47000000000E+01 0. -1.
         -5    1    4    4    0  502 -0.78364221125E+01 -0.19278580002E+02  0.71383428731E+02  0.74503402981E+02  0.47000000000E+01 0. -1.
          5    1    3    3  503    0 -0.10938878076E+02  0.26994586223E+02  0.10513901136E+03  0.10920013026E+03  0.47000000000E+01 0. -1.
         -5    1    3    3    0  503 -0.43149557484E+02 -0.96661632749E+02  0.91917437662E+02  0.14027209595E+03  0.47000000000E+01 0. -1.
<mgrwt>
<rscale>  0 0.15298629E+03</rscale>
<asrwt>0</asrwt>
<pdfrwt beam="2">  1        5 0.99027512E-02 0.15298741E+03</pdfrwt>
<pdfrwt beam="1">  1       -5 0.57937070E-01 0.15298741E+03</pdfrwt>
<totfact> 0.16993859E+02</totfact>
</mgrwt>
</event>
<event>
 8    1  0.1865596E-007  0.1675410E+03  0.7546771E-02  0.1180437E+00
          5   -1    0    0  501    0  0.00000000000E+00  0.00000000000E+00  0.14513111014E+03  0.14520719380E+03  0.47000000000E+01 0. -1.
         -5   -1    0    0    0  501 -0.00000000000E+00 -0.00000000000E+00 -0.22675822657E+03  0.22680692961E+03  0.47000000000E+01 0. -1.
         25    2    1    2    0    0  0.10998268776E+03 -0.18665218680E+02 -0.11229323704E+03  0.20169220053E+03  0.12500156269E+03 0.  0.
         25    2    1    2    0    0 -0.10998268776E+03  0.18665218680E+02  0.30666120607E+02  0.17032192288E+03  0.12499825786E+03 0.  0.
          5    1    4    4  502    0 -0.88295755881E+02 -0.20194646448E+02 -0.29467865128E+02  0.95364612550E+02  0.47000000000E+01 0.  1.
         -5    1    4    4    0  502 -0.21686931875E+02  0.38859865128E+02  0.60133985735E+02  0.74957310333E+02  0.47000000000E+01 0.  1.
          5    1    3    3  503    0  0.11654821553E+01 -0.20647316972E+02  0.20797059469E+02  0.29703160258E+02  0.47000000000E+01 0. -1.
         -5    1    3    3    0  503  0.10881720560E+03  0.19820982922E+01 -0.13309029651E+03  0.17198904027E+03  0.47000000000E+01 0. -1.
<mgrwt>
<rscale>  0 0.16754034E+03</rscale>
<asrwt>0</asrwt>
<pdfrwt beam="1">  1        5 0.22337462E-01 0.16754096E+03</pdfrwt>
<pdfrwt beam="2">  1       -5 0.34895480E-01 0.16754096E+03</pdfrwt>
<totfact> 0.11515145E+02</totfact>
</mgrwt>
</event>
<event>
 8    1  0.1865596E-007  0.1541329E+03  0.7546771E-02  0.1195485E+00
          5   -1    0    0  501    0  0.00000000000E+00  0.00000000000E+00  0.56221097940E+02  0.56417212387E+02  0.47000000000E+01 0.  1.
         -5   -1    0    0    0  501 -0.00000000000E+00 -0.00000000000E+00 -0.58343697580E+03  0.58345590641E+03  0.47000000000E+01 0.  1.
         25    2    1    2    0    0 -0.69061354805E+01 -0.89905502147E+02 -0.43207043109E+03  0.45873889442E+03  0.12500328716E+03 0.  0.
         25    2    1    2    0    0  0.69061354805E+01  0.89905502147E+02 -0.95145446764E+02  0.18113422438E+03  0.12500502862E+03 0.  0.
          5    1    3    3  502    0  0.36931539239E+02 -0.92870289680E+02 -0.21397877074E+03  0.23621565068E+03  0.47000000000E+01 0.  1.
         -5    1    3    3    0  502 -0.43837674719E+02  0.29647875327E+01 -0.21809166035E+03  0.22252324374E+03  0.47000000000E+01 0.  1.
          5    1    4    4  503    0  0.21153517683E+02  0.11922269429E+03 -0.73492770978E+02  0.14172085072E+03  0.47000000000E+01 0. -1.
         -5    1    4    4    0  503 -0.14247382203E+02 -0.29317192141E+02 -0.21652675786E+02  0.39413373661E+02  0.47000000000E+01 0. -1.
<mgrwt>
<rscale>  0 0.15413255E+03</rscale>
<asrwt>0</asrwt>
<pdfrwt beam="1">  1        5 0.86659420E-02 0.15413290E+03</pdfrwt>
<pdfrwt beam="2">  1       -5 0.89776072E-01 0.15413290E+03</pdfrwt>
<totfact> 0.79365771E+01</totfact>
</mgrwt>
</event>
<event>
 8    1  0.1865596E-007  0.1404280E+03  0.7546771E-02  0.1212757E+00
         -5   -1    0    0    0  501 -0.00000000000E+00  0.00000000000E+00  0.37174134675E+02  0.37470071908E+02  0.47000000000E+01 0. -1.
          5   -1    0    0  501    0  0.00000000000E+00 -0.00000000000E+00 -0.60851368715E+03  0.60853183767E+03  0.47000000000E+01 0. -1.
         25    2    1    2    0    0 -0.96957842256E+01 -0.63249937767E+02 -0.16823125897E+03  0.21913386283E+03  0.12499332175E+03 0.  0.
         25    2    1    2    0    0  0.96957842256E+01  0.63249937767E+02 -0.40310829350E+03  0.42686804675E+03  0.12500188072E+03 0.  0.
          5    1    4    4  502    0  0.42283259666E+02  0.21109930812E+02 -0.47178505848E+02  0.66943294219E+02  0.47000000000E+01 0. -1.
         -5    1    4    4    0  502 -0.32587475440E+02  0.42140006955E+02 -0.35592978766E+03  0.35992475253E+03  0.47000000000E+01 0. -1.
          5    1    3    3  503    0  0.44516670081E+02 -0.56608013879E+02 -0.47108236825E+02  0.86182812250E+02  0.47000000000E+01 0. -1.
         -5    1    3    3    0  503 -0.54212454307E+02 -0.66419238876E+01 -0.12112302215E+03  0.13295105058E+03  0.47000000000E+01 0. -1.
<mgrwt>
<rscale>  0 0.14042613E+03</rscale>
<asrwt>0</asrwt>
<pdfrwt beam="2">  1        5 0.93641644E-01 0.14042804E+03</pdfrwt>
<pdfrwt beam="1">  1       -5 0.57432587E-02 0.14042804E+03</pdfrwt>
<totfact> 0.14035258E+02</totfact>
</mgrwt>
</event>
<event>
 8    1  0.1865596E-007  0.1293805E+03  0.7546771E-02  0.1228382E+00
         -5   -1    0    0    0  501 -0.00000000000E+00  0.00000000000E+00  0.34469232109E+03  0.34472436267E+03  0.47000000000E+01 0.  1.
          5   -1    0    0  501    0  0.00000000000E+00 -0.00000000000E+00 -0.48887520848E+02  0.49112927979E+02  0.47000000000E+01 0.  1.
         25    2    1    2    0    0  0.10732161706E+02  0.31581274332E+02  0.16729471779E+03  0.21148006495E+03  0.12499495625E+03 0.  0.
         25    2    1    2    0    0 -0.10732161706E+02 -0.31581274332E+02  0.12851008244E+03  0.18235722569E+03  0.12500704096E+03 0.  0.
          5    1    3    3  502    0  0.16550192942E+02 -0.10539881241E+02  0.16748869923E+03  0.16869959203E+03  0.47000000000E+01 0. -1.
         -5    1    3    3    0  502 -0.58180312359E+01  0.42121155573E+02 -0.19398143484E+00  0.42780472917E+02  0.47000000000E+01 0. -1.
          5    1    4    4  503    0 -0.19457058701E+02 -0.56680068742E+02  0.14050772152E+03  0.15282577379E+03  0.47000000000E+01 0.  1.
         -5    1    4    4    0  503  0.87248969955E+01  0.25098794411E+02 -0.11997639077E+02  0.29531451909E+02  0.47000000000E+01 0.  1.
<mgrwt>
<rscale>  0 0.12937759E+03</rscale>
<asrwt>0</asrwt>
<pdfrwt beam="2">  1        5 0.75409610E-02 0.12938051E+03</pdfrwt>
<pdfrwt beam="1">  1       -5 0.53049391E-01 0.12938051E+03</pdfrwt>
<totfact> 0.31083621E+02</totfact>
</mgrwt>
</event>
<event>
 8    1  0.1865596E-007  0.1251171E+03  0.7546771E-02  0.1234888E+00
          5   -1    0    0  501    0  0.00000000000E+00  0.00000000000E+00  0.62947171160E+02  0.63122391883E+02  0.47000000000E+01 0.  1.
         -5   -1    0    0    0  501 -0.00000000000E+00 -0.00000000000E+00 -0.26938772963E+03  0.26942872689E+03  0.47000000000E+01 0.  1.
         25    2    1    2    0    0 -0.37168896398E+00 -0.54580590216E+01 -0.14990011145E+03  0.19525179652E+03  0.12499316811E+03 0.  0.
         25    2    1    2    0    0  0.37168896398E+00  0.54580590216E+01 -0.56540447022E+02  0.13729932225E+03  0.12499741269E+03 0.  0.
          5    1    4    4  502    0 -0.39768380999E+02 -0.44414713774E+02 -0.18115340633E+02  0.62485570280E+02  0.47000000000E+01 0. -1.
         -5    1    4    4    0  502  0.40140069963E+02  0.49872772796E+02 -0.38425106389E+02  0.74813751971E+02  0.47000000000E+01 0. -1.
          5    1    3    3  503    0  0.37590951794E+02 -0.50923416890E+02 -0.59007711621E+02  0.86661837480E+02  0.47000000000E+01 0. -1.
         -5    1    3    3    0  503 -0.37962640758E+02  0.45465357868E+02 -0.90892399824E+02  0.10858995904E+03  0.47000000000E+01 0. -1.
<mgrwt>
<rscale>  0 0.12511601E+03</rscale>
<asrwt>0</asrwt>
<pdfrwt beam="1">  1        5 0.97008125E-02 0.12511707E+03</pdfrwt>
<pdfrwt beam="2">  1       -5 0.41460898E-01 0.12511707E+03</pdfrwt>
<totfact> 0.33353790E+02</totfact>
</mgrwt>
</event>
<event>
 8    1  0.1865596E-007  0.1485708E+03  0.7546771E-02  0.1202241E+00
          5   -1    0    0  501    0  0.00000000000E+00  0.00000000000E+00  0.64489981341E+02  0.64661021437E+02  0.47000000000E+01 0.  1.
         -5   -1    0    0    0  501 -0.00000000000E+00 -0.00000000000E+00 -0.37673739101E+03  0.37676670737E+03  0.47000000000E+01 0.  1.
         25    2    1    2    0    0 -0.25920873742E+02  0.75999498660E+02 -0.22348073264E+03  0.26835897689E+03  0.12500034850E+03 0.  0.
         25    2    1    2    0    0  0.25920873742E+02 -0.75999498660E+02 -0.88766677030E+02  0.17306875192E+03  0.12500181778E+03 0.  0.
          5    1    3    3  502    0  0.10271761874E+02  0.40035243959E+02 -0.21174615302E+03  0.21579354293E+03  0.47000000000E+01 0. -1.
         -5    1    3    3    0  502 -0.36192635616E+02  0.35964254701E+02 -0.11734579620E+02  0.52565433964E+02  0.47000000000E+01 0. -1.
          5    1    4    4  503    0  0.41440057593E+02 -0.82010669310E+02 -0.11146556123E+03  0.14453265927E+03  0.47000000000E+01 0.  1.
         -5    1    4    4    0  503 -0.15519183851E+02  0.60111706503E+01  0.22698884200E+02  0.28536092653E+02  0.47000000000E+01 0.  1.
<mgrwt>
<rscale>  0 0.14857045E+03</rscale>
<asrwt>0</asrwt>
<pdfrwt beam="1">  1        5 0.99369479E-02 0.14857076E+03</pdfrwt>
<pdfrwt beam="2">  1       -5 0.57975009E-01 0.14857076E+03</pdfrwt>
<totfact> 0.16707970E+02</totfact>
</mgrwt>
</event>
<event>
 8    1  0.1865596E-007  0.1302465E+03  0.7546771E-02  0.1227091E+00
          5   -1    0    0  501    0  0.00000000000E+00  0.00000000000E+00  0.81789166886E+03  0.81790517298E+03  0.47000000000E+01 0. -1.
         -5   -1    0    0    0  501 -0.00000000000E+00 -0.00000000000E+00 -0.20469842985E+02  0.21002487277E+02  0.47000000000E+01 0. -1.
         25    2    1    2    0    0  0.36554463483E+02 -0.16665085073E+01  0.40735909696E+03  0.42767462590E+03  0.12500058287E+03 0.  0.
         25    2    1    2    0    0 -0.36554463483E+02  0.16665085073E+01  0.39006272892E+03  0.41123303436E+03  0.12499868001E+03 0.  0.
          5    1    4    4  502    0 -0.19872629537E+01  0.56623526678E+02  0.25554879916E+03  0.26179658466E+03  0.47000000000E+01 0.  1.
         -5    1    4    4    0  502 -0.34567200530E+02 -0.54957018171E+02  0.13451392976E+03  0.14943644970E+03  0.47000000000E+01 0.  1.
          5    1    3    3  503    0  0.46386755917E+01 -0.61041212480E+02  0.22394829327E+03  0.23221213360E+03  0.47000000000E+01 0.  1.
         -5    1    3    3    0  503  0.31915787892E+02  0.59374703973E+02  0.18341080368E+03  0.19546249230E+03  0.47000000000E+01 0.  1.
<mgrwt>
<rscale>  0 0.13024605E+03</rscale>
<asrwt>0</asrwt>
<pdfrwt beam="1">  1        5 0.12587150E+00 0.13024650E+03</pdfrwt>
<pdfrwt beam="2">  1       -5 0.31912180E-02 0.13024650E+03</pdfrwt>
<totfact> 0.17285660E+02</totfact>
</mgrwt>
</event>
<event>
 8    1  0.1865596E-007  0.1428907E+03  0.7546771E-02  0.1209514E+00
         -5   -1    0    0    0  501 -0.00000000000E+00  0.00000000000E+00  0.90682589953E+02  0.90804306730E+02  0.47000000000E+01 0.  1.
          5   -1    0    0  501    0  0.00000000000E+00 -0.00000000000E+00 -0.24490424016E+03  0.24494933527E+03  0.47000000000E+01 0.  1.
         25    2    1    2    0    0  0.60886243088E+02 -0.32644300783E+02 -0.28985826527E+02  0.14580097893E+03  0.12507982390E+03 0.  0.
         25    2    1    2    0    0 -0.60886243088E+02  0.32644300783E+02 -0.12523582368E+03  0.18995266306E+03  0.12500087080E+03 0.  0.
          5    1    3    3  502    0  0.53507338052E+02 -0.20439269898E+02 -0.76664128795E+02  0.95813765312E+02  0.47000000000E+01 0. -1.
         -5    1    3    3    0  502  0.73789050362E+01 -0.12205030885E+02  0.47678302268E+02  0.49987213621E+02  0.47000000000E+01 0. -1.
          5    1    4    4  503    0  0.21267906718E+02 -0.26006355368E+02 -0.62210446135E+02  0.70858196308E+02  0.47000000000E+01 0.  1.
         -5    1    4    4    0  503 -0.82154149807E+02  0.58650656151E+02 -0.63025377546E+02  0.11909446676E+03  0.47000000000E+01 0.  1.
<mgrwt>
<rscale>  0 0.14287340E+03</rscale>
<asrwt>0</asrwt>
<pdfrwt beam="2">  1        5 0.37690407E-01 0.14289068E+03</pdfrwt>
<pdfrwt beam="1">  1       -5 0.13963999E-01 0.14289068E+03</pdfrwt>
<totfact> 0.22296416E+02</totfact>
</mgrwt>
</event>
<event>
 8    1  0.1865596E-007  0.1299377E+03  0.7546771E-02  0.1227551E+00
         -5   -1    0    0    0  501 -0.00000000000E+00  0.00000000000E+00  0.15385248426E+03  0.15392425707E+03  0.47000000000E+01 0.  1.
          5   -1    0    0  501    0  0.00000000000E+00 -0.00000000000E+00 -0.11060633305E+03  0.11070614667E+03  0.47000000000E+01 0.  1.
         25    2    1    2    0    0  0.18777749283E+02 -0.30067795568E+02  0.34318593606E+02  0.13439336105E+03  0.12500853342E+03 0.  0.
         25    2    1    2    0    0 -0.18777749283E+02  0.30067795568E+02  0.89275576069E+01  0.13023704269E+03  0.12500123921E+03 0.  0.
          5    1    3    3  502    0 -0.25756705225E+01  0.36533684382E+02  0.50395168217E+02  0.62474852163E+02  0.47000000000E+01 0. -1.
         -5    1    3    3    0  502  0.21353419805E+02 -0.66601479950E+02 -0.16076574612E+02  0.71918508884E+02  0.47000000000E+01 0. -1.
          5    1    4    4  503    0 -0.56484116017E+02  0.37909927683E+02 -0.30697357092E+02  0.74779915162E+02  0.47000000000E+01 0. -1.
         -5    1    4    4    0  503  0.37706366734E+02 -0.78421321155E+01  0.39624914699E+02  0.55457127525E+02  0.47000000000E+01 0. -1.
<mgrwt>
<rscale>  0 0.12993596E+03</rscale>
<asrwt>0</asrwt>
<pdfrwt beam="2">  1        5 0.17029558E-01 0.12993771E+03</pdfrwt>
<pdfrwt beam="1">  1       -5 0.23682812E-01 0.12993771E+03</pdfrwt>
<totfact> 0.37447904E+02</totfact>
</mgrwt>
</event>
<event>
 8    1  0.1865596E-007  0.1378585E+03  0.7546771E-02  0.1216242E+00
          5   -1    0    0  501    0  0.00000000000E+00  0.00000000000E+00  0.24860781873E+02  0.25301155613E+02  0.47000000000E+01 0.  1.
         -5   -1    0    0    0  501 -0.00000000000E+00 -0.00000000000E+00 -0.77255322850E+03  0.77256752511E+03  0.47000000000E+01 0.  1.
         25    2    1    2    0    0  0.44791624685E+02 -0.37058848375E+02 -0.42994096578E+03  0.45150040863E+03  0.12499494810E+03 0.  0.
         25    2    1    2    0    0 -0.44791624685E+02  0.37058848375E+02 -0.31775148085E+03  0.34636827210E+03  0.12500131381E+03 0.  0.
          5    1    4    4  502    0 -0.61259987590E+02  0.48457957375E+02 -0.96850223364E+02  0.12451110584E+03  0.47000000000E+01 0.  1.
         -5    1    4    4    0  502  0.16468362905E+02 -0.11399109000E+02 -0.22090125748E+03  0.22185716626E+03  0.47000000000E+01 0.  1.
          5    1    3    3  503    0 -0.22131495235E+01  0.43806361660E+02 -0.14526448238E+03  0.15181487145E+03  0.47000000000E+01 0. -1.
         -5    1    3    3    0  503  0.47004774209E+02 -0.80865210035E+02 -0.28467648340E+03  0.29968553717E+03  0.47000000000E+01 0. -1.
<mgrwt>
<rscale>  0 0.13785709E+03</rscale>
<asrwt>0</asrwt>
<pdfrwt beam="1">  1        5 0.38597109E-02 0.13785854E+03</pdfrwt>
<pdfrwt beam="2">  1       -5 0.11888930E+00 0.13785854E+03</pdfrwt>
<totfact> 0.14959707E+02</totfact>
</mgrwt>
</event>
<event>
 8    1  0.1865596E-007  0.1270293E+03  0.7546771E-02  0.1231957E+00
          5   -1    0    0  501    0  0.00000000000E+00  0.00000000000E+00  0.49109009360E+02  0.49333404507E+02  0.47000000000E+01 0. -1.
         -5   -1    0    0    0  501 -0.00000000000E+00 -0.00000000000E+00 -0.34722840204E+03  0.34726020961E+03  0.47000000000E+01 0. -1.
         25    2    1    2    0    0  0.20363802211E+02 -0.97517378298E+01 -0.19636370207E+03  0.23383407218E+03  0.12493954133E+03 0.  0.
         25    2    1    2    0    0 -0.20363802211E+02  0.97517378298E+01 -0.10175569060E+03  0.16275954194E+03  0.12500666819E+03 0.  0.
          5    1    4    4  502    0  0.22120898760E+02  0.57164218707E+02 -0.63284588202E+02  0.88227609999E+02  0.47000000000E+01 0. -1.
         -5    1    4    4    0  502 -0.42484700970E+02 -0.47412480877E+02 -0.38471102402E+02  0.74531931945E+02  0.47000000000E+01 0. -1.
          5    1    3    3  503    0  0.31529158375E+02 -0.62287261720E+02 -0.13568227911E+03  0.15266159198E+03  0.47000000000E+01 0. -1.
         -5    1    3    3    0  503 -0.11165356165E+02  0.52535523891E+02 -0.60681422960E+02  0.81172480196E+02  0.47000000000E+01 0. -1.
<mgrwt>
<rscale>  0 0.12701280E+03</rscale>
<asrwt>0</asrwt>
<pdfrwt beam="1">  1        5 0.75749403E-02 0.12702932E+03</pdfrwt>
<pdfrwt beam="2">  1       -5 0.53439460E-01 0.12702932E+03</pdfrwt>
<totfact> 0.30164407E+02</totfact>
</mgrwt>
</event>
<event>
 8    1  0.1865596E-007  0.1500370E+03  0.7546771E-02  0.1200430E+00
          5   -1    0    0  501    0  0.00000000000E+00  0.00000000000E+00  0.27900602232E+03  0.27904560647E+03  0.47000000000E+01 0. -1.
         -5   -1    0    0    0  501 -0.00000000000E+00 -0.00000000000E+00 -0.10978494068E+03  0.10988550041E+03  0.47000000000E+01 0. -1.
         25    2    1    2    0    0 -0.51920672036E+02 -0.64731384030E+02 -0.15640908671E+02  0.15085009464E+03  0.12500081906E+03 0.  0.
         25    2    1    2    0    0  0.51920672036E+02  0.64731384030E+02  0.18486199032E+03  0.23808101224E+03  0.12499081831E+03 0.  0.
          5    1    4    4  502    0  0.24516737797E+02  0.20785899414E+02  0.18319390060E+03  0.18605165751E+03  0.47000000000E+01 0.  1.
         -5    1    4    4    0  502  0.27403934238E+02  0.43945484616E+02  0.16680897160E+01  0.52029354725E+02  0.47000000000E+01 0.  1.
          5    1    3    3  503    0 -0.21783759603E+02 -0.35556310628E+02 -0.70251281622E+02  0.81829798835E+02  0.47000000000E+01 0.  1.
         -5    1    3    3    0  503 -0.30136912433E+02 -0.29175073402E+02  0.54610372950E+02  0.69020295803E+02  0.47000000000E+01 0.  1.
<mgrwt>
<rscale>  0 0.15003496E+03</rscale>
<asrwt>0</asrwt>
<pdfrwt beam="1">  1        5 0.42934783E-01 0.15003704E+03</pdfrwt>
<pdfrwt beam="2">  1       -5 0.16900771E-01 0.15003704E+03</pdfrwt>
<totfact> 0.12263692E+02</totfact>
</mgrwt>
</event>
<event>
 8    1  0.1865596E-007  0.1496714E+03  0.7546771E-02  0.1200879E+00
          5   -1    0    0  501    0  0.00000000000E+00  0.00000000000E+00  0.39418546038E+03  0.39421347919E+03  0.47000000000E+01 0. -1.
         -5   -1    0    0    0  501 -0.00000000000E+00 -0.00000000000E+00 -0.60583992477E+02  0.60766027881E+02  0.47000000000E+01 0. -1.
         25    2    1    2    0    0 -0.65263915773E+02  0.50160860515E+02  0.10930891184E+03  0.18533745647E+03  0.12500417567E+03 0.  0.
         25    2    1    2    0    0  0.65263915773E+02 -0.50160860515E+02  0.22429255606E+03  0.26964205060E+03  0.12499677642E+03 0.  0.
          5    1    3    3  502    0 -0.42763546249E+02  0.92194723781E+02  0.75884168264E+02  0.12692157017E+03  0.47000000000E+01 0.  1.
         -5    1    3    3    0  502 -0.22500369524E+02 -0.42033863266E+02  0.33424743576E+02  0.58415886306E+02  0.47000000000E+01 0.  1.
          5    1    4    4  503    0  0.79312388644E+01  0.28575679258E+02  0.60833083477E+01  0.30636100200E+02  0.47000000000E+01 0.  1.
         -5    1    4    4    0  503  0.57332676909E+02 -0.78736539773E+02  0.21820924772E+03  0.23900595040E+03  0.47000000000E+01 0.  1.
<mgrwt>
<rscale>  0 0.14966988E+03</rscale>
<asrwt>0</asrwt>
<pdfrwt beam="1">  1        5 0.60660077E-01 0.14967142E+03</pdfrwt>
<pdfrwt beam="2">  1       -5 0.93367719E-02 0.14967142E+03</pdfrwt>
<totfact> 0.16908370E+02</totfact>
</mgrwt>
</event>
<event>
 8    1  0.1865596E-007  0.1382295E+03  0.7546771E-02  0.1215732E+00
         -5   -1    0    0    0  501 -0.00000000000E+00  0.00000000000E+00  0.41872836367E+03  0.41875474032E+03  0.47000000000E+01 0.  1.
          5   -1    0    0  501    0  0.00000000000E+00 -0.00000000000E+00 -0.52511205067E+02  0.52721121551E+02  0.47000000000E+01 0.  1.
         25    2    1    2    0    0 -0.54476058331E+02  0.22679264741E+02  0.26914642765E+03  0.30256766449E+03  0.12500160838E+03 0.  0.
         25    2    1    2    0    0  0.54476058331E+02 -0.22679264741E+02  0.97070730948E+02  0.16890819738E+03  0.12500104941E+03 0.  0.
          5    1    4    4  502    0  0.44008089391E+01 -0.57042733153E+02  0.91132997697E+02  0.10770586704E+03  0.47000000000E+01 0.  1.
         -5    1    4    4    0  502  0.50075249392E+02  0.34363468412E+02  0.59377332513E+01  0.61202330340E+02  0.47000000000E+01 0.  1.
          5    1    3    3  503    0 -0.32792966862E+02  0.56274412990E+02  0.57136661267E+02  0.86769097574E+02  0.47000000000E+01 0.  1.
         -5    1    3    3    0  503 -0.21683091469E+02 -0.33595148249E+02  0.21200976638E+03  0.21579856692E+03  0.47000000000E+01 0.  1.
<mgrwt>
<rscale>  0 0.13822936E+03</rscale>
<asrwt>0</asrwt>
<pdfrwt beam="2">  1        5 0.80968236E-02 0.13822949E+03</pdfrwt>
<pdfrwt beam="1">  1       -5 0.64437923E-01 0.13822949E+03</pdfrwt>
<totfact> 0.18438413E+02</totfact>
</mgrwt>
</event>
<event>
 8    1  0.1865596E-007  0.1462440E+03  0.7546771E-02  0.1205175E+00
          5   -1    0    0  501    0  0.00000000000E+00  0.00000000000E+00  0.26454904452E+03  0.26459079152E+03  0.47000000000E+01 0. -1.
         -5   -1    0    0    0  501 -0.00000000000E+00 -0.00000000000E+00 -0.80831452046E+02  0.80967979102E+02  0.47000000000E+01 0. -1.
         25    2    1    2    0    0  0.95272564695E+01 -0.75253104792E+02  0.85230884870E+02  0.16924387398E+03  0.12500154699E+03 0.  0.
         25    2    1    2    0    0 -0.95272564695E+01  0.75253104792E+02  0.98486707605E+02  0.17631489664E+03  0.12503404658E+03 0.  0.
          5    1    3    3  502    0  0.33312588733E+02 -0.32161053786E+02 -0.21762138416E+02  0.51378425601E+02  0.47000000000E+01 0. -1.
         -5    1    3    3    0  502 -0.23785332264E+02 -0.43092051005E+02  0.10699302329E+03  0.11786544838E+03  0.47000000000E+01 0. -1.
          5    1    4    4  503    0  0.19853111213E+02  0.10208912455E+03  0.83783057140E+02  0.13363392548E+03  0.47000000000E+01 0. -1.
         -5    1    4    4    0  503 -0.29380367683E+02 -0.26836019759E+02  0.14703650465E+02  0.42680971154E+02  0.47000000000E+01 0. -1.
<mgrwt>
<rscale>  0 0.14623707E+03</rscale>
<asrwt>0</asrwt>
<pdfrwt beam="1">  1        5 0.40713567E-01 0.14624401E+03</pdfrwt>
<pdfrwt beam="2">  1       -5 0.12449321E-01 0.14624401E+03</pdfrwt>
<totfact> 0.23575899E+02</totfact>
</mgrwt>
</event>
<event>
 8    1  0.1865596E-007  0.1347933E+03  0.7546771E-02  0.1220530E+00
         -5   -1    0    0    0  501 -0.00000000000E+00  0.00000000000E+00  0.27775634179E+02  0.28170478413E+02  0.47000000000E+01 0. -1.
          5   -1    0    0  501    0  0.00000000000E+00 -0.00000000000E+00 -0.10387900669E+04  0.10388006994E+04  0.47000000000E+01 0. -1.
         25    2    1    2    0    0 -0.40253749638E+02 -0.30166073804E+02 -0.17866634442E+03  0.22377927974E+03  0.12500058817E+03 0.  0.
         25    2    1    2    0    0  0.40253749638E+02  0.30166073804E+02 -0.83234808825E+03  0.84319189803E+03  0.12505550977E+03 0.  0.
          5    1    4    4  502    0  0.77715076469E+02  0.19850450957E+02 -0.34317067678E+03  0.35245124048E+03  0.47000000000E+01 0.  1.
         -5    1    4    4    0  502 -0.37461326830E+02  0.10315622847E+02 -0.48917741147E+03  0.49074065755E+03  0.47000000000E+01 0.  1.
          5    1    3    3  503    0  0.36619249488E+01  0.37271344841E+02 -0.11506401076E+03  0.12109657061E+03  0.47000000000E+01 0.  1.
         -5    1    3    3    0  503 -0.43915674587E+02 -0.67437418645E+02 -0.63602333665E+02  0.10268270914E+03  0.47000000000E+01 0.  1.
<mgrwt>
<rscale>  0 0.13478057E+03</rscale>
<asrwt>0</asrwt>
<pdfrwt beam="2">  1        5 0.15984502E+00 0.13479331E+03</pdfrwt>
<pdfrwt beam="1">  1       -5 0.43043658E-02 0.13479331E+03</pdfrwt>
<totfact> 0.56569548E+01</totfact>
</mgrwt>
</event>
<event>
 8    1  0.1865596E-007  0.1259394E+03  0.7546771E-02  0.1233611E+00
          5   -1    0    0  501    0  0.00000000000E+00  0.00000000000E+00  0.42859368081E+02  0.43116301236E+02  0.47000000000E+01 0. -1.
         -5   -1    0    0    0  501 -0.00000000000E+00 -0.00000000000E+00 -0.40403420534E+03  0.40406154121E+03  0.47000000000E+01 0. -1.
         25    2    1    2    0    0  0.50360647284E+01  0.14461410780E+02 -0.24671646960E+03  0.27700133148E+03  0.12500490759E+03 0.  0.
         25    2    1    2    0    0 -0.50360647284E+01 -0.14461410780E+02 -0.11445836766E+03  0.17017651097E+03  0.12499933043E+03 0.  0.
          5    1    3    3  502    0  0.28276733909E+02 -0.27640021303E+02 -0.18828504781E+02  0.44047100364E+02  0.47000000000E+01 0.  1.
         -5    1    3    3    0  502 -0.23240669181E+02  0.42101432082E+02 -0.22788796482E+03  0.23295423112E+03  0.47000000000E+01 0.  1.
          5    1    4    4  503    0 -0.37013526794E+01 -0.42279880359E+02  0.89062394234E+01  0.43619942635E+02  0.47000000000E+01 0. -1.
         -5    1    4    4    0  503 -0.13347120490E+01  0.27818469579E+02 -0.12336460709E+03  0.12655656833E+03  0.47000000000E+01 0. -1.
<mgrwt>
<rscale>  0 0.12593797E+03</rscale>
<asrwt>0</asrwt>
<pdfrwt beam="1">  1        5 0.66156160E-02 0.12593936E+03</pdfrwt>
<pdfrwt beam="2">  1       -5 0.62180973E-01 0.12593936E+03</pdfrwt>
<totfact> 0.27241042E+02</totfact>
</mgrwt>
</event>
<event>
 8    1  0.1865596E-007  0.1883220E+03  0.7546771E-02  0.1159984E+00
         -5   -1    0    0    0  501 -0.00000000000E+00  0.00000000000E+00  0.77716365952E+02  0.77858355600E+02  0.47000000000E+01 0.  1.
          5   -1    0    0  501    0  0.00000000000E+00 -0.00000000000E+00 -0.58715830484E+03  0.58717711548E+03  0.47000000000E+01 0.  1.
         25    2    1    2    0    0  0.57131179754E+02 -0.12874876803E+03 -0.97445984788E+02  0.21203895279E+03  0.12499832231E+03 0.  0.
         25    2    1    2    0    0 -0.57131179754E+02  0.12874876803E+03 -0.41199595410E+03  0.45299651829E+03  0.12499984966E+03 0.  0.
          5    1    3    3  502    0 -0.23021433771E+02 -0.41740945757E+02  0.13521541172E+02  0.49771628878E+02  0.47000000000E+01 0. -1.
         -5    1    3    3    0  502  0.80152613525E+02 -0.87007822278E+02 -0.11096752596E+03  0.16226732391E+03  0.47000000000E+01 0. -1.
          5    1    4    4  503    0 -0.61397918134E+02  0.10974072325E+03 -0.41414606603E+03  0.43284152377E+03  0.47000000000E+01 0.  1.
         -5    1    4    4    0  503  0.42667383801E+01  0.19008044786E+02  0.21501119247E+01  0.20154994524E+02  0.47000000000E+01 0.  1.
<mgrwt>
<rscale>  0 0.18832176E+03</rscale>
<asrwt>0</asrwt>
<pdfrwt beam="2">  1        5 0.90344413E-01 0.18832201E+03</pdfrwt>
<pdfrwt beam="1">  1       -5 0.11968734E-01 0.18832201E+03</pdfrwt>
<totfact> 0.46965914E+01</totfact>
</mgrwt>
</event>
<event>
 8    1  0.1865596E-007  0.1261696E+03  0.7546771E-02  0.1233255E+00
         -5   -1    0    0    0  501 -0.00000000000E+00  0.00000000000E+00  0.12530958962E+03  0.12539770034E+03  0.47000000000E+01 0.  1.
          5   -1    0    0  501    0  0.00000000000E+00 -0.00000000000E+00 -0.12796209932E+03  0.12804838485E+03  0.47000000000E+01 0.  1.
         25    2    1    2    0    0  0.56974325695E+01 -0.16156714257E+02 -0.13119356107E+02  0.12684308179E+03  0.12499419882E+03 0.  0.
         25    2    1    2    0    0 -0.56974325695E+01  0.16156714257E+02  0.10466846408E+02  0.12660300341E+03  0.12500106177E+03 0.  0.
          5    1    3    3  502    0  0.11344092252E+02  0.51255226689E+02 -0.24435108796E+02  0.58094330479E+02  0.47000000000E+01 0.  1.
         -5    1    3    3    0  502 -0.56466596821E+01 -0.67411940946E+02  0.11315752689E+02  0.68748751309E+02  0.47000000000E+01 0.  1.
          5    1    4    4  503    0 -0.32766533940E+02  0.62987139169E+02  0.12618071143E+02  0.72265698409E+02  0.47000000000E+01 0. -1.
         -5    1    4    4    0  503  0.27069101370E+02 -0.46830424913E+02 -0.21512247353E+01  0.54337304997E+02  0.47000000000E+01 0. -1.
<mgrwt>
<rscale>  0 0.12616789E+03</rscale>
<asrwt>0</asrwt>
<pdfrwt beam="2">  1        5 0.19699892E-01 0.12616959E+03</pdfrwt>
<pdfrwt beam="1">  1       -5 0.19291813E-01 0.12616959E+03</pdfrwt>
<totfact> 0.41611555E+02</totfact>
</mgrwt>
</event>
<event>
 8    1  0.1865596E-007  0.1611401E+03  0.7546771E-02  0.1187419E+00
          5   -1    0    0  501    0  0.00000000000E+00  0.00000000000E+00  0.40502139420E+03  0.40504866345E+03  0.47000000000E+01 0.  1.
         -5   -1    0    0    0  501 -0.00000000000E+00 -0.00000000000E+00 -0.64198664547E+02  0.64370478712E+02  0.47000000000E+01 0.  1.
         25    2    1    2    0    0  0.11167399259E+02  0.10106291181E+03  0.15703693020E+03  0.22499462871E+03  0.12499425008E+03 0.  0.
         25    2    1    2    0    0 -0.11167399259E+02 -0.10106291181E+03  0.18378579945E+03  0.24442451344E+03  0.12501079850E+03 0.  0.
          5    1    4    4  502    0  0.73416725435E+01 -0.42005754278E+02  0.17683976402E+03  0.18196916137E+03  0.47000000000E+01 0.  1.
         -5    1    4    4    0  502 -0.18509071803E+02 -0.59057157534E+02  0.69460354292E+01  0.62455352078E+02  0.47000000000E+01 0.  1.
          5    1    3    3  503    0  0.19698173575E+02  0.73460377671E+02  0.12128838206E+02  0.77159859033E+02  0.47000000000E+01 0.  1.
         -5    1    3    3    0  503 -0.85307743160E+01  0.27602534141E+02  0.14490809199E+03  0.14783476968E+03  0.47000000000E+01 0.  1.
<mgrwt>
<rscale>  0 0.16113686E+03</rscale>
<asrwt>0</asrwt>
<pdfrwt beam="1">  1        5 0.62326298E-01 0.16114007E+03</pdfrwt>
<pdfrwt beam="2">  1       -5 0.98920317E-02 0.16114007E+03</pdfrwt>
<totfact> 0.14746808E+02</totfact>
</mgrwt>
</event>
<event>
 8    1  0.1865596E-007  0.1482440E+03  0.7546771E-02  0.1202648E+00
          5   -1    0    0  501    0  0.00000000000E+00  0.00000000000E+00  0.52613715788E+02  0.52823224902E+02  0.47000000000E+01 0.  1.
         -5   -1    0    0    0  501 -0.00000000000E+00 -0.00000000000E+00 -0.49859271926E+03  0.49861487112E+03  0.47000000000E+01 0.  1.
         25    2    1    2    0    0 -0.52218729844E+02  0.60198097619E+02 -0.33475089165E+03  0.36610603088E+03  0.12499943875E+03 0.  0.
         25    2    1    2    0    0  0.52218729844E+02 -0.60198097619E+02 -0.11122811183E+03  0.18533206514E+03  0.12500269919E+03 0.  0.
          5    1    3    3  502    0  0.40959395870E+02  0.11656960546E+02 -0.10632091727E+03  0.11462889814E+03  0.47000000000E+01 0. -1.
         -5    1    3    3    0  502 -0.93178125715E+02  0.48541137073E+02 -0.22842997437E+03  0.25147713274E+03  0.47000000000E+01 0. -1.
          5    1    4    4  503    0  0.86392224500E+02 -0.39248513207E+02 -0.10945266845E+03  0.14493460206E+03  0.47000000000E+01 0.  1.
         -5    1    4    4    0  503 -0.34173494655E+02 -0.20949584411E+02 -0.17754433755E+01  0.40397463078E+02  0.47000000000E+01 0.  1.
<mgrwt>
<rscale>  0 0.14824331E+03</rscale>
<asrwt>0</asrwt>
<pdfrwt beam="1">  1        5 0.81122382E-02 0.14824399E+03</pdfrwt>
<pdfrwt beam="2">  1       -5 0.76724389E-01 0.14824399E+03</pdfrwt>
<totfact> 0.12680655E+02</totfact>
</mgrwt>
</event>
<event>
 8    1  0.1865596E-007  0.1546116E+03  0.7546771E-02  0.1194919E+00
         -5   -1    0    0    0  501 -0.00000000000E+00  0.00000000000E+00  0.16076947525E+03  0.16083816143E+03  0.47000000000E+01 0.  1.
          5   -1    0    0  501    0  0.00000000000E+00 -0.00000000000E+00 -0.17678201001E+03  0.17684447705E+03  0.47000000000E+01 0.  1.
         25    2    1    2    0    0  0.17376067515E+01 -0.90978288185E+02  0.59441619685E+02  0.16564437632E+03  0.12499874022E+03 0.  0.
         25    2    1    2    0    0 -0.17376067515E+01  0.90978288185E+02 -0.75454154440E+02  0.17203826216E+03  0.12499506401E+03 0.  0.
          5    1    4    4  502    0 -0.15055817571E+02 -0.78773314593E+01 -0.69829394554E+02  0.72020582734E+02  0.47000000000E+01 0.  1.
         -5    1    4    4    0  502  0.13318210819E+02  0.98855619645E+02 -0.56247598861E+01  0.10001767943E+03  0.47000000000E+01 0.  1.
          5    1    3    3  503    0 -0.20020384158E+02 -0.75404771576E+02  0.93637703636E+02  0.12197050832E+03  0.47000000000E+01 0. -1.
         -5    1    3    3    0  503  0.21757990910E+02 -0.15573516610E+02 -0.34196083951E+02  0.43673867995E+02  0.47000000000E+01 0. -1.
<mgrwt>
<rscale>  0 0.15461088E+03</rscale>
<asrwt>0</asrwt>
<pdfrwt beam="2">  1        5 0.27207321E-01 0.15461162E+03</pdfrwt>
<pdfrwt beam="1">  1       -5 0.24743854E-01 0.15461162E+03</pdfrwt>
<totfact> 0.15110590E+02</totfact>
</mgrwt>
</event>
<event>
 8    1  0.1865596E-007  0.1322135E+03  0.7546771E-02  0.1224210E+00
         -5   -1    0    0    0  501 -0.00000000000E+00  0.00000000000E+00  0.78348293769E+02  0.78489140246E+02  0.47000000000E+01 0. -1.
          5   -1    0    0  501    0  0.00000000000E+00 -0.00000000000E+00 -0.51129371744E+03  0.51131531905E+03  0.47000000000E+01 0. -1.
         25    2    1    2    0    0  0.20921708070E+02  0.37635758943E+02  0.50304543628E+01  0.13230918057E+03  0.12500498219E+03 0.  0.
         25    2    1    2    0    0 -0.20921708070E+02 -0.37635758943E+02 -0.43797587804E+03  0.45749527872E+03  0.12499956836E+03 0.  0.
          5    1    3    3  502    0 -0.68728144891E+01  0.48296081529E+01  0.60898403040E+02  0.61654409304E+02  0.47000000000E+01 0. -1.
         -5    1    3    3    0  502  0.27794522560E+02  0.32806150790E+02 -0.55867948677E+02  0.70654771271E+02  0.47000000000E+01 0. -1.
          5    1    4    4  503    0 -0.65768237761E+00 -0.14808197170E+02  0.26620994198E+01  0.15776312080E+02  0.47000000000E+01 0.  1.
         -5    1    4    4    0  503 -0.20264025693E+02 -0.22827561773E+02 -0.44063797745E+03  0.44171896664E+03  0.47000000000E+01 0.  1.
<mgrwt>
<rscale>  0 0.13221224E+03</rscale>
<asrwt>0</asrwt>
<pdfrwt beam="2">  1        5 0.78673066E-01 0.13221352E+03</pdfrwt>
<pdfrwt beam="1">  1       -5 0.12066080E-01 0.13221352E+03</pdfrwt>
<totfact> 0.57754092E+01</totfact>
</mgrwt>
</event>
<event>
 8    1  0.1865596E-007  0.1345251E+03  0.7546771E-02  0.1220895E+00
         -5   -1    0    0    0  501 -0.00000000000E+00  0.00000000000E+00  0.15037915173E+03  0.15045258149E+03  0.47000000000E+01 0.  1.
          5   -1    0    0  501    0  0.00000000000E+00 -0.00000000000E+00 -0.13771486342E+03  0.13779504202E+03  0.47000000000E+01 0.  1.
         25    2    1    2    0    0 -0.27828595541E+02 -0.41170717179E+02  0.57720878027E+02  0.14638543236E+03  0.12501014504E+03 0.  0.
         25    2    1    2    0    0  0.27828595541E+02  0.41170717179E+02 -0.45056589708E+02  0.14186219115E+03  0.12500130527E+03 0.  0.
          5    1    4    4  502    0 -0.38158985134E+01  0.68447223847E+02  0.13249183623E+02  0.69980100032E+02  0.47000000000E+01 0. -1.
         -5    1    4    4    0  502  0.31644494054E+02 -0.27276506668E+02 -0.58305773331E+02  0.71882091119E+02  0.47000000000E+01 0. -1.
          5    1    3    3  503    0  0.45710295475E+02 -0.18808182968E+02  0.47481028570E+02  0.68700196019E+02  0.47000000000E+01 0.  1.
         -5    1    3    3    0  503 -0.73538891016E+02 -0.22362534212E+02  0.10239849457E+02  0.77685236339E+02  0.47000000000E+01 0.  1.
<mgrwt>
<rscale>  0 0.13452302E+03</rscale>
<asrwt>0</asrwt>
<pdfrwt beam="2">  1        5 0.21198718E-01 0.13452507E+03</pdfrwt>
<pdfrwt beam="1">  1       -5 0.23147070E-01 0.13452507E+03</pdfrwt>
<totfact> 0.26382236E+02</totfact>
</mgrwt>
</event>
<event>
 8    1  0.1865596E-007  0.1265268E+03  0.7546771E-02  0.1232707E+00
         -5   -1    0    0    0  501 -0.00000000000E+00  0.00000000000E+00  0.72029386523E+03  0.72030919908E+03  0.47000000000E+01 0.  1.
          5   -1    0    0  501    0  0.00000000000E+00 -0.00000000000E+00 -0.29135510528E+02  0.29512166538E+02  0.47000000000E+01 0.  1.
         25    2    1    2    0    0  0.16794228790E+02  0.10066435144E+02  0.53022890870E+03  0.54511624001E+03  0.12500256102E+03 0.  0.
         25    2    1    2    0    0 -0.16794228790E+02 -0.10066435144E+02  0.16092944599E+03  0.20470512561E+03  0.12499009011E+03 0.  0.
          5    1    3    3  502    0  0.44695431992E+02  0.34328546720E+02  0.11434695843E+03  0.12756742399E+03  0.47000000000E+01 0.  1.
         -5    1    3    3    0  502 -0.27901203201E+02 -0.24262111577E+02  0.41588195028E+03  0.41754881602E+03  0.47000000000E+01 0.  1.
          5    1    4    4  503    0  0.17940129382E+02  0.51985162063E+02  0.73196178986E+02  0.91673747251E+02  0.47000000000E+01 0.  1.
         -5    1    4    4    0  503 -0.34734358173E+02 -0.62051597207E+02  0.87733267009E+02  0.11303137836E+03  0.47000000000E+01 0.  1.
<mgrwt>
<rscale>  0 0.12652367E+03</rscale>
<asrwt>0</asrwt>
<pdfrwt beam="2">  1        5 0.45125395E-02 0.12652675E+03</pdfrwt>
<pdfrwt beam="1">  1       -5 0.11084459E+00 0.12652675E+03</pdfrwt>
<totfact> 0.13406271E+02</totfact>
</mgrwt>
</event>
<event>
 8    1  0.1865596E-007  0.1261836E+03  0.7546771E-02  0.1233235E+00
          5   -1    0    0  501    0  0.00000000000E+00  0.00000000000E+00  0.14775458462E+03  0.14782931805E+03  0.47000000000E+01 0. -1.
         -5   -1    0    0    0  501 -0.00000000000E+00 -0.00000000000E+00 -0.11169130246E+03  0.11179014735E+03  0.47000000000E+01 0. -1.
         25    2    1    2    0    0 -0.11207052009E+02  0.13103072589E+02 -0.67950736580E+01  0.12636641208E+03  0.12500003420E+03 0.  0.
         25    2    1    2    0    0  0.11207052009E+02 -0.13103072589E+02  0.42858355817E+02  0.13325305332E+03  0.12498899563E+03 0.  0.
          5    1    4    4  502    0  0.28906533857E+02  0.31128584702E+02  0.67128541488E+02  0.79579567525E+02  0.47000000000E+01 0. -1.
         -5    1    4    4    0  502 -0.17699481848E+02 -0.44231657291E+02 -0.24270185671E+02  0.53673485790E+02  0.47000000000E+01 0. -1.
          5    1    3    3  503    0 -0.30794616105E+02  0.97980881184E+01  0.53517055510E+02  0.62693509571E+02  0.47000000000E+01 0.  1.
         -5    1    3    3    0  503  0.19587564097E+02  0.33049844705E+01 -0.60312129168E+02  0.63672902513E+02  0.47000000000E+01 0.  1.
<mgrwt>
<rscale>  0 0.12618085E+03</rscale>
<asrwt>0</asrwt>
<pdfrwt beam="1">  1        5 0.22744827E-01 0.12618358E+03</pdfrwt>
<pdfrwt beam="2">  1       -5 0.17196629E-01 0.12618358E+03</pdfrwt>
<totfact> 0.39285245E+02</totfact>
</mgrwt>
</event>
<event>
 8    1  0.1865596E-007  0.3512629E+03  0.7546771E-02  0.1062099E+00
         -5   -1    0    0    0  501 -0.00000000000E+00  0.00000000000E+00  0.13099904676E+03  0.13108333324E+03  0.47000000000E+01 0.  1.
          5   -1    0    0  501    0  0.00000000000E+00 -0.00000000000E+00 -0.97694001041E+03  0.97695131606E+03  0.47000000000E+01 0.  1.
         25    2    1    2    0    0 -0.10334272505E+03 -0.31157954804E+03 -0.31740875124E+03  0.47342303179E+03  0.12497807042E+03 0.  0.
         25    2    1    2    0    0  0.10334272505E+03  0.31157954804E+03 -0.52853221241E+03  0.63461161751E+03  0.12499628773E+03 0.  0.
          5    1    4    4  502    0  0.79757980231E+01  0.21243120884E+03 -0.29737275373E+03  0.36557253249E+03  0.47000000000E+01 0.  1.
         -5    1    4    4    0  502  0.95366927022E+02  0.99148339198E+02 -0.23115945868E+03  0.26903908503E+03  0.47000000000E+01 0.  1.
          5    1    3    3  503    0  0.59220524077E+01 -0.99319371951E+01 -0.62208003430E+02  0.63447929611E+02  0.47000000000E+01 0. -1.
         -5    1    3    3    0  503 -0.10926477745E+03 -0.30164761085E+03 -0.25520074781E+03  0.40997510217E+03  0.47000000000E+01 0. -1.
<mgrwt>
<rscale>  0 0.35126125E+03</rscale>
<asrwt>0</asrwt>
<pdfrwt beam="2">  1        5 0.15030581E+00 0.35126287E+03</pdfrwt>
<pdfrwt beam="1">  1       -5 0.20161053E-01 0.35126287E+03</pdfrwt>
<totfact> 0.55378427E+00</totfact>
</mgrwt>
</event>
<event>
 8    1  0.1865596E-007  0.1459723E+03  0.7546771E-02  0.1205513E+00
          5   -1    0    0  501    0  0.00000000000E+00  0.00000000000E+00  0.53099900293E+02  0.53307498639E+02  0.47000000000E+01 0. -1.
         -5   -1    0    0    0  501 -0.00000000000E+00 -0.00000000000E+00 -0.43545766316E+03  0.43548302654E+03  0.47000000000E+01 0. -1.
         25    2    1    2    0    0 -0.55662061738E+02  0.50819389389E+02 -0.26064066568E+03  0.29873013399E+03  0.12500104358E+03 0.  0.
         25    2    1    2    0    0  0.55662061738E+02 -0.50819389389E+02 -0.12171709719E+03  0.19006039119E+03  0.12500810012E+03 0.  0.
          5    1    3    3  502    0 -0.72327523194E+02  0.61760740672E+02 -0.10500570080E+03  0.14175311955E+03  0.47000000000E+01 0. -1.
         -5    1    3    3    0  502  0.16665461455E+02 -0.10941351283E+02 -0.15563496487E+03  0.15697701445E+03  0.47000000000E+01 0. -1.
          5    1    4    4  503    0  0.18393046447E+02 -0.89699965679E+02 -0.71449984522E+02  0.11623931473E+03  0.47000000000E+01 0.  1.
         -5    1    4    4    0  503  0.37269015291E+02  0.38880576290E+02 -0.50267112667E+02  0.73821076457E+02  0.47000000000E+01 0.  1.
<mgrwt>
<rscale>  0 0.14597075E+03</rscale>
<asrwt>0</asrwt>
<pdfrwt beam="1">  1        5 0.81871359E-02 0.14597226E+03</pdfrwt>
<pdfrwt beam="2">  1       -5 0.67011404E-01 0.14597226E+03</pdfrwt>
<totfact> 0.16879314E+02</totfact>
</mgrwt>
</event>
<event>
 8    1  0.1865596E-007  0.1289853E+03  0.7546771E-02  0.1228973E+00
          5   -1    0    0  501    0  0.00000000000E+00  0.00000000000E+00  0.43442322556E+03  0.43444864933E+03  0.47000000000E+01 0. -1.
         -5   -1    0    0    0  501 -0.00000000000E+00 -0.00000000000E+00 -0.38965722017E+02  0.39248152725E+02  0.47000000000E+01 0. -1.
         25    2    1    2    0    0  0.29889693023E+02  0.10716294109E+02  0.16304097749E+03  0.20788736380E+03  0.12500625175E+03 0.  0.
         25    2    1    2    0    0 -0.29889693023E+02 -0.10716294109E+02  0.23241652606E+03  0.26580943826E+03  0.12501593170E+03 0.  0.
          5    1    4    4  502    0  0.41708123159E+02  0.92287749681E+01  0.14364941840E+03  0.14993993207E+03  0.47000000000E+01 0.  1.
         -5    1    4    4    0  502 -0.71597816182E+02 -0.19945069077E+02  0.88767107659E+02  0.11586950619E+03  0.47000000000E+01 0.  1.
          5    1    3    3  503    0 -0.35072082555E+02  0.27596401221E+01  0.38469401274E+01  0.35700917869E+02  0.47000000000E+01 0. -1.
         -5    1    3    3    0  503  0.64961775578E+02  0.79566539865E+01  0.15919403736E+03  0.17218644593E+03  0.47000000000E+01 0. -1.
<mgrwt>
<rscale>  0 0.12898299E+03</rscale>
<asrwt>0</asrwt>
<pdfrwt beam="1">  1        5 0.66858023E-01 0.12898533E+03</pdfrwt>
<pdfrwt beam="2">  1       -5 0.60184076E-02 0.12898533E+03</pdfrwt>
<totfact> 0.27442702E+02</totfact>
</mgrwt>
</event>
<event>
 8    1  0.1865596E-007  0.1414355E+03  0.7546771E-02  0.1211412E+00
          5   -1    0    0  501    0  0.00000000000E+00  0.00000000000E+00  0.10849043702E+02  0.11823356090E+02  0.47000000000E+01 0.  1.
         -5   -1    0    0    0  501 -0.00000000000E+00 -0.00000000000E+00 -0.19556055525E+04  0.19556112003E+04  0.47000000000E+01 0.  1.
         25    2    1    2    0    0 -0.64944864491E+02 -0.12772469296E+02 -0.12805472783E+04  0.12883337576E+04  0.12498627028E+03 0.  0.
         25    2    1    2    0    0  0.64944864491E+02  0.12772469296E+02 -0.66420923048E+03  0.67910079878E+03  0.12499208633E+03 0.  0.
          5    1    3    3  502    0 -0.47453059137E+01 -0.61482720502E+02 -0.67746017029E+03  0.68027716056E+03  0.47000000000E+01 0.  1.
         -5    1    3    3    0  502 -0.60199558577E+02  0.48710251206E+02 -0.60308710799E+03  0.60805659708E+03  0.47000000000E+01 0.  1.
          5    1    4    4  503    0  0.50380626891E+02  0.29689033717E+02 -0.11212472488E+03  0.12654521018E+03  0.47000000000E+01 0.  1.
         -5    1    4    4    0  503  0.14564237599E+02 -0.16916564421E+02 -0.55208450560E+03  0.55255558860E+03  0.47000000000E+01 0.  1.
<mgrwt>
<rscale>  0 0.14143419E+03</rscale>
<asrwt>0</asrwt>
<pdfrwt beam="1">  1        5 0.17444668E-02 0.14143547E+03</pdfrwt>
<pdfrwt beam="2">  1       -5 0.30093751E+00 0.14143547E+03</pdfrwt>
<totfact> 0.28658711E+01</totfact>
</mgrwt>
</event>
<event>
 8    1  0.1865596E-007  0.1272147E+03  0.7546771E-02  0.1231651E+00
         -5   -1    0    0    0  501 -0.00000000000E+00  0.00000000000E+00  0.73011898581E+02  0.73163018899E+02  0.47000000000E+01 0. -1.
          5   -1    0    0  501    0  0.00000000000E+00 -0.00000000000E+00 -0.23112197969E+03  0.23116976336E+03  0.47000000000E+01 0. -1.
         25    2    1    2    0    0  0.34650442959E+01  0.23335586207E+02 -0.47595983168E+02  0.13581886721E+03  0.12499932384E+03 0.  0.
         25    2    1    2    0    0 -0.34650442959E+01 -0.23335586207E+02 -0.11051409794E+03  0.16851391505E+03  0.12500807017E+03 0.  0.
          5    1    4    4  502    0  0.33767624607E+02  0.15995942002E+01  0.13396537384E+02  0.36665629506E+02  0.47000000000E+01 0. -1.
         -5    1    4    4    0  502 -0.37232668903E+02 -0.24935180407E+02 -0.12391063532E+03  0.13184828555E+03  0.47000000000E+01 0. -1.
          5    1    3    3  503    0 -0.55608316171E+02  0.24731615884E+02 -0.46152123161E+02  0.76524807245E+02  0.47000000000E+01 0.  1.
         -5    1    3    3    0  503  0.59073360467E+02 -0.13960296769E+01 -0.14438600072E+01  0.59294059967E+02  0.47000000000E+01 0.  1.
<mgrwt>
<rscale>  0 0.12721253E+03</rscale>
<asrwt>0</asrwt>
<pdfrwt beam="2">  1        5 0.35572528E-01 0.12721468E+03</pdfrwt>
<pdfrwt beam="1">  1       -5 0.11247900E-01 0.12721468E+03</pdfrwt>
<totfact> 0.35351885E+02</totfact>
</mgrwt>
</event>
<event>
 8    1  0.1865596E-007  0.2793188E+03  0.7546771E-02  0.1096063E+00
          5   -1    0    0  501    0  0.00000000000E+00  0.00000000000E+00  0.51748976334E+03  0.51751110631E+03  0.47000000000E+01 0. -1.
         -5   -1    0    0    0  501 -0.00000000000E+00 -0.00000000000E+00 -0.15829905703E+03  0.15836881466E+03  0.47000000000E+01 0. -1.
         25    2    1    2    0    0 -0.16957093755E+03 -0.18341160815E+03  0.10556834711E+03  0.29860287478E+03  0.12499952019E+03 0.  0.
         25    2    1    2    0    0  0.16957093755E+03  0.18341160815E+03  0.25362235919E+03  0.37727704620E+03  0.12497818863E+03 0.  0.
          5    1    4    4  502    0  0.29298200896E+02  0.12253824677E+03  0.10673515712E+03  0.16519228269E+03  0.47000000000E+01 0. -1.
         -5    1    4    4    0  502  0.14027273666E+03  0.60873361387E+02  0.14688720208E+03  0.21208476350E+03  0.47000000000E+01 0. -1.
          5    1    3    3  503    0 -0.80613371029E+02 -0.73992153412E+02  0.11292704481E+03  0.15731484928E+03  0.47000000000E+01 0. -1.
         -5    1    3    3    0  503 -0.88957566525E+02 -0.10941945474E+03 -0.73586977010E+01  0.14128802550E+03  0.47000000000E+01 0. -1.
<mgrwt>
<rscale>  0 0.27931643E+03</rscale>
<asrwt>0</asrwt>
<pdfrwt beam="1">  1        5 0.79620818E-01 0.27931882E+03</pdfrwt>
<pdfrwt beam="2">  1       -5 0.24360709E-01 0.27931882E+03</pdfrwt>
<totfact> 0.18631927E+01</totfact>
</mgrwt>
</event>
<event>
 8    1  0.1865596E-007  0.1369979E+03  0.7546771E-02  0.1217427E+00
         -5   -1    0    0    0  501 -0.00000000000E+00  0.00000000000E+00  0.33640047907E+03  0.33643331036E+03  0.47000000000E+01 0.  1.
          5   -1    0    0  501    0  0.00000000000E+00 -0.00000000000E+00 -0.76918891877E+02  0.77062350909E+02  0.47000000000E+01 0.  1.
         25    2    1    2    0    0 -0.55008375812E+02  0.10832538010E+02  0.23829630878E+03  0.27487005040E+03  0.12500059417E+03 0.  0.
         25    2    1    2    0    0  0.55008375812E+02 -0.10832538010E+02  0.21185278418E+02  0.13862561086E+03  0.12499991471E+03 0.  0.
          5    1    3    3  502    0 -0.86823014796E+01 -0.41122295622E+02  0.17705883151E+03  0.18203940610E+03  0.47000000000E+01 0. -1.
         -5    1    3    3    0  502 -0.46326074332E+02  0.51954833632E+02  0.61237477266E+02  0.92830644308E+02  0.47000000000E+01 0. -1.
          5    1    4    4  503    0  0.59705964396E+02 -0.41987751798E+02 -0.29412336825E+02  0.78834948107E+02  0.47000000000E+01 0. -1.
         -5    1    4    4    0  503 -0.46975885837E+01  0.31155213788E+02  0.50597615243E+02  0.59790662757E+02  0.47000000000E+01 0. -1.
<mgrwt>
<rscale>  0 0.13699771E+03</rscale>
<asrwt>0</asrwt>
<pdfrwt beam="2">  1        5 0.11847237E-01 0.13699786E+03</pdfrwt>
<pdfrwt beam="1">  1       -5 0.51767480E-01 0.13699786E+03</pdfrwt>
<totfact> 0.15243636E+02</totfact>
</mgrwt>
</event>
<event>
 8    1  0.1865596E-007  0.1635367E+03  0.7546771E-02  0.1184761E+00
         -5   -1    0    0    0  501 -0.00000000000E+00  0.00000000000E+00  0.10417807431E+03  0.10428404081E+03  0.47000000000E+01 0. -1.
          5   -1    0    0  501    0  0.00000000000E+00 -0.00000000000E+00 -0.28899089241E+03  0.28902910908E+03  0.47000000000E+01 0. -1.
         25    2    1    2    0    0  0.98987181426E+02  0.36336648438E+02 -0.26438696493E+02  0.16566006184E+03  0.12500174923E+03 0.  0.
         25    2    1    2    0    0 -0.98987181426E+02 -0.36336648438E+02 -0.15837412160E+03  0.22765308805E+03  0.12499900799E+03 0.  0.
          5    1    3    3  502    0 -0.21448499320E+02 -0.64130229210E+01 -0.30000239507E+02  0.37726242280E+02  0.47000000000E+01 0. -1.
         -5    1    3    3    0  502  0.12043568075E+03  0.42749671359E+02  0.35615430140E+01  0.12793381956E+03  0.47000000000E+01 0. -1.
          5    1    4    4  503    0 -0.12824804079E+03 -0.20657102463E+02 -0.12734157423E+03  0.18196769597E+03  0.47000000000E+01 0. -1.
         -5    1    4    4    0  503  0.29260859367E+02 -0.15679545975E+02 -0.31032547376E+02  0.45685392080E+02  0.47000000000E+01 0. -1.
<mgrwt>
<rscale>  0 0.16353617E+03</rscale>
<asrwt>0</asrwt>
<pdfrwt beam="2">  1        5 0.44471228E-01 0.16353670E+03</pdfrwt>
<pdfrwt beam="1">  1       -5 0.16038487E-01 0.16353670E+03</pdfrwt>
<totfact> 0.12891090E+02</totfact>
</mgrwt>
</event>
<event>
 8    1  0.1865596E-007  0.1255400E+03  0.7546771E-02  0.1234249E+00
          5   -1    0    0  501    0  0.00000000000E+00  0.00000000000E+00  0.56920242004E+03  0.56922182405E+03  0.47000000000E+01 0.  1.
         -5   -1    0    0    0  501 -0.00000000000E+00 -0.00000000000E+00 -0.27517501702E+02  0.27915997204E+02  0.47000000000E+01 0.  1.
         25    2    1    2    0    0  0.11277071528E+02 -0.18959349876E+01  0.28471126356E+03  0.31113826911E+03  0.12496300251E+03 0.  0.
         25    2    1    2    0    0 -0.11277071528E+02  0.18959349876E+01  0.25697365478E+03  0.28599955214E+03  0.12501806935E+03 0.  0.
          5    1    4    4  502    0  0.43611177354E+02  0.38906551332E+02  0.13383537530E+03  0.14611520184E+03  0.47000000000E+01 0. -1.
         -5    1    4    4    0  502 -0.54888248882E+02 -0.37010616344E+02  0.12313827947E+03  0.13988435030E+03  0.47000000000E+01 0. -1.
          5    1    3    3  503    0  0.11618942456E+01  0.58705623777E+02  0.18269710313E+03  0.19195838548E+03  0.47000000000E+01 0. -1.
         -5    1    3    3    0  503  0.10115177283E+02 -0.60601558764E+02  0.10201416042E+03  0.11917988363E+03  0.47000000000E+01 0. -1.
<mgrwt>
<rscale>  0 0.12552626E+03</rscale>
<asrwt>0</asrwt>
<pdfrwt beam="1">  1        5 0.87601744E-01 0.12553997E+03</pdfrwt>
<pdfrwt beam="2">  1       -5 0.42656082E-02 0.12553997E+03</pdfrwt>
<totfact> 0.25924064E+02</totfact>
</mgrwt>
</event>
<event>
 8    1  0.1865596E-007  0.1395070E+03  0.7546771E-02  0.1213994E+00
         -5   -1    0    0    0  501 -0.00000000000E+00  0.00000000000E+00  0.52437548578E+03  0.52439654851E+03  0.47000000000E+01 0. -1.
          5   -1    0    0  501    0  0.00000000000E+00 -0.00000000000E+00 -0.53860634202E+02  0.54065311584E+02  0.47000000000E+01 0. -1.
         25    2    1    2    0    0 -0.61792376819E+02 -0.43835031593E+01  0.39694202469E+03  0.42074325791E+03  0.12499762071E+03 0.  0.
         25    2    1    2    0    0  0.61792376819E+02  0.43835031593E+01  0.73572826891E+02  0.15771860218E+03  0.12499873473E+03 0.  0.
          5    1    3    3  502    0 -0.99143494341E+02  0.26533353429E+01  0.31531594568E+03  0.33057935244E+03  0.47000000000E+01 0. -1.
         -5    1    3    3    0  502  0.37351117522E+02 -0.70368385022E+01  0.81626079005E+02  0.90163905472E+02  0.47000000000E+01 0. -1.
          5    1    4    4  503    0 -0.73124473877E+01 -0.47244018317E+02  0.67647033736E+01  0.48511033438E+02  0.47000000000E+01 0. -1.
         -5    1    4    4    0  503  0.69104824207E+02  0.51627521476E+02  0.66808123517E+02  0.10920756874E+03  0.47000000000E+01 0. -1.
<mgrwt>
<rscale>  0 0.13950673E+03</rscale>
<asrwt>0</asrwt>
<pdfrwt beam="2">  1        5 0.83036161E-02 0.13950698E+03</pdfrwt>
<pdfrwt beam="1">  1       -5 0.80690516E-01 0.13950698E+03</pdfrwt>
<totfact> 0.10636304E+02</totfact>
</mgrwt>
</event>
<event>
 8    1  0.1865596E-007  0.1331596E+03  0.7546771E-02  0.1222860E+00
         -5   -1    0    0    0  501 -0.00000000000E+00  0.00000000000E+00  0.19354672920E+03  0.19360378711E+03  0.47000000000E+01 0. -1.
          5   -1    0    0  501    0  0.00000000000E+00 -0.00000000000E+00 -0.93063719692E+02  0.93182326237E+02  0.47000000000E+01 0. -1.
         25    2    1    2    0    0  0.45384253658E+02 -0.58957751255E+01  0.69112828329E+02  0.14998129045E+03  0.12499325502E+03 0.  0.
         25    2    1    2    0    0 -0.45384253658E+02  0.58957751255E+01  0.31370181177E+02  0.13680482290E+03  0.12504791344E+03 0.  0.
          5    1    4    4  502    0 -0.30050177786E+02  0.64712133640E+02  0.23863537477E+02  0.75380580033E+02  0.47000000000E+01 0. -1.
         -5    1    4    4    0  502 -0.15334075872E+02 -0.58816358515E+02  0.75066436998E+01  0.61424242864E+02  0.47000000000E+01 0. -1.
          5    1    3    3  503    0  0.16195013198E+02 -0.66039405838E+01 -0.36263230200E+02  0.40533965365E+02  0.47000000000E+01 0.  1.
         -5    1    3    3    0  503  0.29189240460E+02  0.70816545831E+00  0.10537605853E+03  0.10944732508E+03  0.47000000000E+01 0.  1.
<mgrwt>
<rscale>  0 0.13314674E+03</rscale>
<asrwt>0</asrwt>
<pdfrwt beam="2">  1        5 0.14331008E-01 0.13315957E+03</pdfrwt>
<pdfrwt beam="1">  1       -5 0.29789933E-01 0.13315957E+03</pdfrwt>
<totfact> 0.33198277E+02</totfact>
</mgrwt>
</event>
<event>
 8    1  0.1865596E-007  0.1289970E+03  0.7546771E-02  0.1228953E+00
         -5   -1    0    0    0  501 -0.00000000000E+00  0.00000000000E+00  0.47094394196E+03  0.47096739427E+03  0.47000000000E+01 0.  1.
          5   -1    0    0  501    0  0.00000000000E+00 -0.00000000000E+00 -0.37301917459E+02  0.37596848885E+02  0.47000000000E+01 0.  1.
         25    2    1    2    0    0 -0.86673255576E+01  0.30641184994E+02  0.27760079353E+03  0.30610660702E+03  0.12500019817E+03 0.  0.
         25    2    1    2    0    0  0.86673255576E+01 -0.30641184994E+02  0.15604123097E+03  0.20245763614E+03  0.12500489557E+03 0.  0.
          5    1    3    3  502    0 -0.13382126441E+01 -0.71807089660E+01 -0.11500405605E+02  0.14411895206E+02  0.47000000000E+01 0. -1.
         -5    1    3    3    0  502 -0.73291129135E+01  0.37821893959E+02  0.28910119914E+03  0.29169471182E+03  0.47000000000E+01 0. -1.
          5    1    4    4  503    0  0.44203019487E+02 -0.50265654636E+02  0.37063173153E+02  0.76657105163E+02  0.47000000000E+01 0.  1.
         -5    1    4    4    0  503 -0.35535693929E+02  0.19624469643E+02  0.11897805782E+03  0.12580053097E+03  0.47000000000E+01 0.  1.
<mgrwt>
<rscale>  0 0.12899587E+03</rscale>
<asrwt>0</asrwt>
<pdfrwt beam="2">  1        5 0.57632476E-02 0.12899701E+03</pdfrwt>
<pdfrwt beam="1">  1       -5 0.72477405E-01 0.12899701E+03</pdfrwt>
<totfact> 0.24615804E+02</totfact>
</mgrwt>
</event>
<event>
 8    1  0.1865596E-007  0.1736454E+03  0.7546771E-02  0.1174101E+00
         -5   -1    0    0    0  501 -0.00000000000E+00  0.00000000000E+00  0.55208847141E+03  0.55210847690E+03  0.47000000000E+01 0. -1.
          5   -1    0    0  501    0  0.00000000000E+00 -0.00000000000E+00 -0.95754281981E+02  0.95869559912E+02  0.47000000000E+01 0. -1.
         25    2    1    2    0    0  0.10517552235E+03 -0.58853625743E+02  0.44064959895E+03  0.47362568331E+03  0.12499431615E+03 0.  0.
         25    2    1    2    0    0 -0.10517552235E+03  0.58853625743E+02  0.15684590472E+02  0.17435235350E+03  0.12500838783E+03 0.  0.
          5    1    3    3  502    0  0.53244799597E+02  0.11554095094E+02  0.52844832684E+02  0.76047170486E+02  0.47000000000E+01 0.  1.
         -5    1    3    3    0  502  0.51930722750E+02 -0.70407720837E+02  0.38780476627E+03  0.39757851283E+03  0.47000000000E+01 0.  1.
          5    1    4    4  503    0 -0.72140742378E+02  0.84303047001E+02 -0.27213578916E+02  0.11434141560E+03  0.47000000000E+01 0. -1.
         -5    1    4    4    0  503 -0.33034779969E+02 -0.25449421258E+02  0.42898169387E+02  0.60010937893E+02  0.47000000000E+01 0. -1.
<mgrwt>
<rscale>  0 0.17364290E+03</rscale>
<asrwt>0</asrwt>
<pdfrwt beam="2">  1        5 0.14741834E-01 0.17364543E+03</pdfrwt>
<pdfrwt beam="1">  1       -5 0.84947094E-01 0.17364543E+03</pdfrwt>
<totfact> 0.36554037E+01</totfact>
</mgrwt>
</event>
<event>
 8    1  0.1865596E-007  0.1379948E+03  0.7546771E-02  0.1216057E+00
         -5   -1    0    0    0  501 -0.00000000000E+00  0.00000000000E+00  0.53646601402E+03  0.53648660207E+03  0.47000000000E+01 0.  1.
          5   -1    0    0  501    0  0.00000000000E+00 -0.00000000000E+00 -0.43341047228E+02  0.43595141642E+02  0.47000000000E+01 0.  1.
         25    2    1    2    0    0 -0.41735607180E+02 -0.40871450083E+02  0.37092416241E+03  0.39575704889E+03  0.12500628442E+03 0.  0.
         25    2    1    2    0    0  0.41735607180E+02  0.40871450083E+02  0.12220080438E+03  0.18432469482E+03  0.12502087902E+03 0.  0.
          5    1    4    4  502    0 -0.12143860507E+02 -0.36836211207E+02  0.16468553390E+02  0.42399092619E+02  0.47000000000E+01 0.  1.
         -5    1    4    4    0  502  0.53879467687E+02  0.77707661290E+02  0.10573225099E+03  0.14192560220E+03  0.47000000000E+01 0.  1.
          5    1    3    3  503    0  0.19445092230E+01 -0.32203239153E+02  0.13090333718E+02  0.35132272413E+02  0.47000000000E+01 0.  1.
         -5    1    3    3    0  503 -0.43680116403E+02 -0.86682109298E+01  0.35783382870E+03  0.36062477648E+03  0.47000000000E+01 0.  1.
<mgrwt>
<rscale>  0 0.13799146E+03</rscale>
<asrwt>0</asrwt>
<pdfrwt beam="2">  1        5 0.66889831E-02 0.13799477E+03</pdfrwt>
<pdfrwt beam="1">  1       -5 0.82554359E-01 0.13799477E+03</pdfrwt>
<totfact> 0.14535866E+02</totfact>
</mgrwt>
</event>
<event>
 8    1  0.1865596E-007  0.1597410E+03  0.7546771E-02  0.1188992E+00
          5   -1    0    0  501    0  0.00000000000E+00  0.00000000000E+00  0.51459992273E+03  0.51462138556E+03  0.47000000000E+01 0. -1.
         -5   -1    0    0    0  501 -0.00000000000E+00 -0.00000000000E+00 -0.53295404082E+02  0.53502243844E+02  0.47000000000E+01 0. -1.
         25    2    1    2    0    0 -0.96027291515E+02  0.25862029672E+02  0.15451604799E+03  0.22223873090E+03  0.12499903653E+03 0.  0.
         25    2    1    2    0    0  0.96027291515E+02 -0.25862029672E+02  0.30678847066E+03  0.34588489850E+03  0.12500844766E+03 0.  0.
          5    1    4    4  502    0  0.52714034161E+02  0.41086405076E+02  0.74249313934E+02  0.10000956304E+03  0.47000000000E+01 0. -1.
         -5    1    4    4    0  502  0.43313257354E+02 -0.66948434749E+02  0.23253915672E+03  0.24587533546E+03  0.47000000000E+01 0. -1.
          5    1    3    3  503    0 -0.74476109536E+02  0.75040132389E+02  0.10330204139E+03  0.14788885731E+03  0.47000000000E+01 0.  1.
         -5    1    3    3    0  503 -0.21551181979E+02 -0.49178102717E+02  0.51214006597E+02  0.74349873593E+02  0.47000000000E+01 0.  1.
<mgrwt>
<rscale>  0 0.15973919E+03</rscale>
<asrwt>0</asrwt>
<pdfrwt beam="1">  1        5 0.79186779E-01 0.15974103E+03</pdfrwt>
<pdfrwt beam="2">  1       -5 0.82168548E-02 0.15974103E+03</pdfrwt>
<totfact> 0.11808184E+02</totfact>
</mgrwt>
</event>
<event>
 8    1  0.1865596E-007  0.1808007E+03  0.7546771E-02  0.1167032E+00
          5   -1    0    0  501    0  0.00000000000E+00  0.00000000000E+00  0.86050758462E+02  0.86179017353E+02  0.47000000000E+01 0. -1.
         -5   -1    0    0    0  501 -0.00000000000E+00 -0.00000000000E+00 -0.40434807500E+03  0.40437538966E+03  0.47000000000E+01 0. -1.
         25    2    1    2    0    0  0.34079368386E+02  0.12610633843E+03 -0.22001444199E+03  0.28476713741E+03  0.12498702300E+03 0.  0.
         25    2    1    2    0    0 -0.34079368386E+02 -0.12610633843E+03 -0.98282874548E+02  0.20578726960E+03  0.12499865982E+03 0.  0.
          5    1    3    3  502    0  0.81272164565E+02  0.71976129301E+02 -0.13820334547E+03  0.17580666262E+03  0.47000000000E+01 0. -1.
         -5    1    3    3    0  502 -0.47192796178E+02  0.54130209131E+02 -0.81811096529E+02  0.10896047479E+03  0.47000000000E+01 0. -1.
          5    1    4    4  503    0 -0.18493618649E+02 -0.11376280609E+03 -0.12634114980E+03  0.17107941464E+03  0.47000000000E+01 0.  1.
         -5    1    4    4    0  503 -0.15585749737E+02 -0.12343532341E+02  0.28058275256E+02  0.34707854959E+02  0.47000000000E+01 0.  1.
<mgrwt>
<rscale>  0 0.18079864E+03</rscale>
<asrwt>0</asrwt>
<pdfrwt beam="1">  1        5 0.13250546E-01 0.18080066E+03</pdfrwt>
<pdfrwt beam="2">  1       -5 0.62219363E-01 0.18080066E+03</pdfrwt>
<totfact> 0.91225355E+01</totfact>
</mgrwt>
</event>
<event>
 8    1  0.1865596E-007  0.1265535E+03  0.7546771E-02  0.1232670E+00
         -5   -1    0    0    0  501 -0.00000000000E+00  0.00000000000E+00  0.54165085371E+02  0.54368616620E+02  0.47000000000E+01 0. -1.
          5   -1    0    0  501    0  0.00000000000E+00 -0.00000000000E+00 -0.32718509982E+03  0.32721885573E+03  0.47000000000E+01 0. -1.
         25    2    1    2    0    0  0.13605500293E+02 -0.14360192592E+02 -0.76569631369E+02  0.14791452312E+03  0.12499789172E+03 0.  0.
         25    2    1    2    0    0 -0.13605500293E+02  0.14360192592E+02 -0.19645038308E+03  0.23367294922E+03  0.12497587534E+03 0.  0.
          5    1    3    3  502    0  0.67073044279E+02 -0.24450405092E+02 -0.37608397509E+02  0.80827576613E+02  0.47000000000E+01 0. -1.
         -5    1    3    3    0  502 -0.53467543987E+02  0.10090212500E+02 -0.38961233861E+02  0.67086946511E+02  0.47000000000E+01 0. -1.
          5    1    4    4  503    0 -0.63334092762E+02  0.32469226377E+02 -0.91274241436E+02  0.11583840087E+03  0.47000000000E+01 0. -1.
         -5    1    4    4    0  503  0.49728592469E+02 -0.18109033785E+02 -0.10517614164E+03  0.11783454835E+03  0.47000000000E+01 0. -1.
<mgrwt>
<rscale>  0 0.12654810E+03</rscale>
<asrwt>0</asrwt>
<pdfrwt beam="2">  1        5 0.50354421E-01 0.12655354E+03</pdfrwt>
<pdfrwt beam="1">  1       -5 0.83513431E-02 0.12655354E+03</pdfrwt>
<totfact> 0.28931173E+02</totfact>
</mgrwt>
</event>
<event>
 8    1  0.1865596E-007  0.1836224E+03  0.7546771E-02  0.1164345E+00
          5   -1    0    0  501    0  0.00000000000E+00  0.00000000000E+00  0.10145549530E+04  0.10145658395E+04  0.47000000000E+01 0. -1.
         -5   -1    0    0    0  501 -0.00000000000E+00 -0.00000000000E+00 -0.34013923106E+02  0.34337107697E+02  0.47000000000E+01 0. -1.
         25    2    1    2    0    0  0.13318913994E+03  0.18797431499E+02  0.40264166107E+03  0.44253530805E+03  0.12499800484E+03 0.  0.
         25    2    1    2    0    0 -0.13318913994E+03 -0.18797431499E+02  0.57789936884E+03  0.60636763915E+03  0.12498537062E+03 0.  0.
          5    1    4    4  502    0 -0.31973319569E+01 -0.33251526004E+02  0.37917477096E+02  0.50751472713E+02  0.47000000000E+01 0. -1.
         -5    1    4    4    0  502 -0.12999180799E+03  0.14454094505E+02  0.53998189174E+03  0.55561616643E+03  0.47000000000E+01 0. -1.
          5    1    3    3  503    0 -0.16600728514E+02  0.22214221579E+02  0.11243589411E+03  0.11590071661E+03  0.47000000000E+01 0. -1.
         -5    1    3    3    0  503  0.14978986846E+03 -0.34167900800E+01  0.29020576696E+03  0.32663459144E+03  0.47000000000E+01 0. -1.
<mgrwt>
<rscale>  0 0.18362027E+03</rscale>
<asrwt>0</asrwt>
<pdfrwt beam="1">  1        5 0.15611106E+00 0.18362242E+03</pdfrwt>
<pdfrwt beam="2">  1       -5 0.52586096E-02 0.18362242E+03</pdfrwt>
<totfact> 0.47256117E+01</totfact>
</mgrwt>
</event>
<event>
 8    1  0.1865596E-007  0.1306152E+03  0.7546771E-02  0.1226546E+00
          5   -1    0    0  501    0  0.00000000000E+00  0.00000000000E+00  0.10326892896E+03  0.10337582739E+03  0.47000000000E+01 0.  1.
         -5   -1    0    0    0  501 -0.00000000000E+00 -0.00000000000E+00 -0.17154455647E+03  0.17160893000E+03  0.47000000000E+01 0.  1.
         25    2    1    2    0    0 -0.38179207914E+01 -0.37681312887E+02 -0.61031037116E+02  0.14417047268E+03  0.12500351932E+03 0.  0.
         25    2    1    2    0    0  0.38179207914E+01  0.37681312887E+02 -0.72445903954E+01  0.13081428471E+03  0.12500174052E+03 0.  0.
          5    1    4    4  502    0  0.53686070717E+02  0.25228071634E+02 -0.38122821955E+02  0.70668871090E+02  0.47000000000E+01 0.  1.
         -5    1    4    4    0  502 -0.49868149925E+02  0.12453241252E+02  0.30878231560E+02  0.60145413615E+02  0.47000000000E+01 0.  1.
          5    1    3    3  503    0 -0.12552183055E+02 -0.26894759500E+02  0.35513165254E+02  0.46520536265E+02  0.47000000000E+01 0.  1.
         -5    1    3    3    0  503  0.87342622639E+01 -0.10786553386E+02 -0.96544202370E+02  0.97649936418E+02  0.47000000000E+01 0.  1.
<mgrwt>
<rscale>  0 0.13061480E+03</rscale>
<asrwt>0</asrwt>
<pdfrwt beam="1">  1        5 0.15900702E-01 0.13061523E+03</pdfrwt>
<pdfrwt beam="2">  1       -5 0.26404645E-01 0.13061523E+03</pdfrwt>
<totfact> 0.34529448E+02</totfact>
</mgrwt>
</event>
<event>
 8    1  0.1865596E-007  0.1310455E+03  0.7546771E-02  0.1225939E+00
          5   -1    0    0  501    0  0.00000000000E+00  0.00000000000E+00  0.13459068067E+03  0.13467271929E+03  0.47000000000E+01 0. -1.
         -5   -1    0    0    0  501 -0.00000000000E+00 -0.00000000000E+00 -0.13462769231E+03  0.13470970840E+03  0.47000000000E+01 0. -1.
         25    2    1    2    0    0 -0.29537649346E+02 -0.25793516906E+02 -0.31295597902E+02  0.13473058016E+03  0.12504053958E+03 0.  0.
         25    2    1    2    0    0  0.29537649346E+02  0.25793516906E+02  0.31258586256E+02  0.13465184753E+03  0.12496496543E+03 0.  0.
          5    1    3    3  502    0  0.37531979956E+02 -0.46074308394E+02 -0.52991279607E+01  0.59846989653E+02  0.47000000000E+01 0. -1.
         -5    1    3    3    0  502 -0.67069629301E+02  0.20280791488E+02 -0.25996469941E+02  0.74883590508E+02  0.47000000000E+01 0. -1.
          5    1    4    4  503    0 -0.46072797456E+02  0.29493447885E+02  0.92772240160E+01  0.55684136152E+02  0.47000000000E+01 0. -1.
         -5    1    4    4    0  503  0.75610446801E+02 -0.36999309792E+01  0.21981362240E+02  0.78967711380E+02  0.47000000000E+01 0. -1.
<mgrwt>
<rscale>  0 0.13102744E+03</rscale>
<asrwt>0</asrwt>
<pdfrwt beam="1">  1        5 0.20718878E-01 0.13104547E+03</pdfrwt>
<pdfrwt beam="2">  1       -5 0.20724572E-01 0.13104547E+03</pdfrwt>
<totfact> 0.33606663E+02</totfact>
</mgrwt>
</event>
<event>
 8    1  0.1865596E-007  0.1463044E+03  0.7546771E-02  0.1205105E+00
         -5   -1    0    0    0  501 -0.00000000000E+00  0.00000000000E+00  0.43974909929E+03  0.43977421517E+03  0.47000000000E+01 0.  1.
          5   -1    0    0  501    0  0.00000000000E+00 -0.00000000000E+00 -0.55073720195E+02  0.55273905743E+02  0.47000000000E+01 0.  1.
         25    2    1    2    0    0 -0.72587702916E+02 -0.22566747112E+02  0.27751907520E+03  0.31369910561E+03  0.12494822556E+03 0.  0.
         25    2    1    2    0    0  0.72587702916E+02  0.22566747112E+02  0.10715630390E+03  0.18134901530E+03  0.12500703659E+03 0.  0.
          5    1    3    3  502    0 -0.10707547017E+03 -0.28065356127E+02  0.21775900069E+03  0.24432333680E+03  0.47000000000E+01 0.  1.
         -5    1    3    3    0  502  0.34487767258E+02  0.54986090144E+01  0.59760074513E+02  0.69375768805E+02  0.47000000000E+01 0.  1.
          5    1    4    4  503    0 -0.25476086890E+02 -0.13431494261E+02 -0.31563758386E+01  0.29351128594E+02  0.47000000000E+01 0. -1.
         -5    1    4    4    0  503  0.98063789807E+02  0.35998241374E+02  0.11031267974E+03  0.15199788671E+03  0.47000000000E+01 0. -1.
<mgrwt>
<rscale>  0 0.14629189E+03</rscale>
<asrwt>0</asrwt>
<pdfrwt beam="2">  1        5 0.84902111E-02 0.14630445E+03</pdfrwt>
<pdfrwt beam="1">  1       -5 0.67671037E-01 0.14630445E+03</pdfrwt>
<totfact> 0.15522902E+02</totfact>
</mgrwt>
</event>
<event>
 8    1  0.1865596E-007  0.1264392E+03  0.7546771E-02  0.1232839E+00
          5   -1    0    0  501    0  0.00000000000E+00  0.00000000000E+00  0.23499942694E+03  0.23504642235E+03  0.47000000000E+01 0. -1.
         -5   -1    0    0    0  501 -0.00000000000E+00 -0.00000000000E+00 -0.68016646881E+02  0.68178840214E+02  0.47000000000E+01 0. -1.
         25    2    1    2    0    0 -0.13493394100E+02  0.13410728070E+02  0.89973610355E+02  0.15518412673E+03  0.12499977326E+03 0.  0.
         25    2    1    2    0    0  0.13493394100E+02 -0.13410728070E+02  0.77009169700E+02  0.14804113584E+03  0.12499538540E+03 0.  0.
          5    1    4    4  502    0  0.57902214509E+01 -0.10581420495E+02 -0.34128828890E+02  0.36501507990E+02  0.47000000000E+01 0. -1.
         -5    1    4    4    0  502  0.77031726496E+01 -0.28293075756E+01  0.11113799859E+03  0.11153962785E+03  0.47000000000E+01 0. -1.
          5    1    3    3  503    0  0.11807210179E+02  0.37819588621E+02  0.10818939479E+03  0.11531160670E+03  0.47000000000E+01 0.  1.
         -5    1    3    3    0  503 -0.25300604280E+02 -0.24408860551E+02 -0.18215784435E+02  0.39872520022E+02  0.47000000000E+01 0.  1.
<mgrwt>
<rscale>  0 0.12643808E+03</rscale>
<asrwt>0</asrwt>
<pdfrwt beam="1">  1        5 0.36169848E-01 0.12643917E+03</pdfrwt>
<pdfrwt beam="2">  1       -5 0.10480191E-01 0.12643917E+03</pdfrwt>
<totfact> 0.38616420E+02</totfact>
</mgrwt>
</event>
<event>
 8    1  0.1865596E-007  0.1294806E+03  0.7546771E-02  0.1228234E+00
          5   -1    0    0  501    0  0.00000000000E+00  0.00000000000E+00  0.49967777148E+03  0.49969987523E+03  0.47000000000E+01 0.  1.
         -5   -1    0    0    0  501 -0.00000000000E+00 -0.00000000000E+00 -0.41177437370E+02  0.41444798810E+02  0.47000000000E+01 0.  1.
         25    2    1    2    0    0  0.29819712659E+02 -0.15743325965E+02  0.11183109621E+03  0.17108890124E+03  0.12501260125E+03 0.  0.
         25    2    1    2    0    0 -0.29819712659E+02  0.15743325965E+02  0.34666923789E+03  0.37005577280E+03  0.12499858762E+03 0.  0.
          5    1    4    4  502    0 -0.46702601750E+02  0.50042592760E+02  0.30772677727E+03  0.31528281519E+03  0.47000000000E+01 0.  1.
         -5    1    4    4    0  502  0.16882889092E+02 -0.34299266795E+02  0.38942460620E+02  0.54772957615E+02  0.47000000000E+01 0.  1.
          5    1    3    3  503    0  0.29932702558E+02  0.47866950623E+02  0.84416002770E+02  0.10166298819E+03  0.47000000000E+01 0.  1.
         -5    1    3    3    0  503 -0.11298989902E+00 -0.63610276588E+02  0.27415093443E+02  0.69425913050E+02  0.47000000000E+01 0.  1.
<mgrwt>
<rscale>  0 0.12947719E+03</rscale>
<asrwt>0</asrwt>
<pdfrwt beam="1">  1        5 0.76895773E-01 0.12948057E+03</pdfrwt>
<pdfrwt beam="2">  1       -5 0.63572566E-02 0.12948057E+03</pdfrwt>
<totfact> 0.18267920E+02</totfact>
</mgrwt>
</event>
<event>
 8    1  0.1865596E-007  0.1436780E+03  0.7546771E-02  0.1208466E+00
         -5   -1    0    0    0  501 -0.00000000000E+00  0.00000000000E+00  0.63455061063E+02  0.63628883178E+02  0.47000000000E+01 0.  1.
          5   -1    0    0  501    0  0.00000000000E+00 -0.00000000000E+00 -0.53187987371E+03  0.53190063927E+03  0.47000000000E+01 0.  1.
         25    2    1    2    0    0 -0.59428976138E+02 -0.38555311764E+02 -0.48393115405E+02  0.15160386781E+03  0.12499409525E+03 0.  0.
         25    2    1    2    0    0  0.59428976138E+02  0.38555311764E+02 -0.42003169724E+03  0.44392565464E+03  0.12500017955E+03 0.  0.
          5    1    3    3  502    0 -0.57970898452E+02  0.30316658801E+02  0.28010792835E+01  0.65648007687E+02  0.47000000000E+01 0. -1.
         -5    1    3    3    0  502 -0.14580776858E+01 -0.68871970565E+02 -0.51194194688E+02  0.85955860125E+02  0.47000000000E+01 0. -1.
          5    1    4    4  503    0 -0.28086235355E+02 -0.67663839178E+01 -0.20814433064E+03  0.21019222856E+03  0.47000000000E+01 0. -1.
         -5    1    4    4    0  503  0.87515211492E+02  0.45321695682E+02 -0.21188736660E+03  0.23373342608E+03  0.47000000000E+01 0. -1.
<mgrwt>
<rscale>  0 0.14367665E+03</rscale>
<asrwt>0</asrwt>
<pdfrwt beam="2">  1        5 0.81842638E-01 0.14367797E+03</pdfrwt>
<pdfrwt beam="1">  1       -5 0.97772857E-02 0.14367797E+03</pdfrwt>
<totfact> 0.78286292E+01</totfact>
</mgrwt>
</event>
<event>
 8    1  0.1865596E-007  0.1351011E+03  0.7546771E-02  0.1220080E+00
         -5   -1    0    0    0  501 -0.00000000000E+00  0.00000000000E+00  0.10618586185E+03  0.10628982668E+03  0.47000000000E+01 0.  1.
          5   -1    0    0  501    0  0.00000000000E+00 -0.00000000000E+00 -0.18743573340E+03  0.18749465101E+03  0.47000000000E+01 0.  1.
         25    2    1    2    0    0  0.15747172612E+02 -0.48761469120E+02  0.19720964235E+01  0.13510808390E+03  0.12499860341E+03 0.  0.
         25    2    1    2    0    0 -0.15747172612E+02  0.48761469120E+02 -0.83221967981E+02  0.15867639379E+03  0.12500659053E+03 0.  0.
          5    1    3    3  502    0  0.21154731728E+02 -0.90336522006E+02  0.19660703332E+01  0.92920209401E+02  0.47000000000E+01 0. -1.
         -5    1    3    3    0  502 -0.54075591161E+01  0.41575052887E+02  0.60260903547E-02  0.42187874495E+02  0.47000000000E+01 0. -1.
          5    1    4    4  503    0 -0.52163907701E+02  0.89513678640E+01  0.68517580114E+01  0.53574591377E+02  0.47000000000E+01 0.  1.
         -5    1    4    4    0  503  0.36416735090E+02  0.39810101256E+02 -0.90073725992E+02  0.10510180241E+03  0.47000000000E+01 0.  1.
<mgrwt>
<rscale>  0 0.13509923E+03</rscale>
<asrwt>0</asrwt>
<pdfrwt beam="2">  1        5 0.28848796E-01 0.13510108E+03</pdfrwt>
<pdfrwt beam="1">  1       -5 0.16348816E-01 0.13510108E+03</pdfrwt>
<totfact> 0.27977889E+02</totfact>
</mgrwt>
</event>
<event>
 8    1  0.1865596E-007  0.1353650E+03  0.7546771E-02  0.1219705E+00
          5   -1    0    0  501    0  0.00000000000E+00  0.00000000000E+00  0.41977048551E+02  0.42239349013E+02  0.47000000000E+01 0. -1.
         -5   -1    0    0    0  501 -0.00000000000E+00 -0.00000000000E+00 -0.51139038445E+03  0.51141198198E+03  0.47000000000E+01 0. -1.
         25    2    1    2    0    0 -0.34943939584E+02  0.38441361784E+02 -0.34175118800E+03  0.36758328731E+03  0.12499912558E+03 0.  0.
         25    2    1    2    0    0  0.34943939584E+02 -0.38441361784E+02 -0.12766214790E+03  0.18606804369E+03  0.12499950266E+03 0.  0.
          5    1    3    3  502    0 -0.54129647795E+02 -0.47780085493E+00 -0.54226477516E+02  0.76764887337E+02  0.47000000000E+01 0. -1.
         -5    1    3    3    0  502  0.19185708212E+02  0.38919162639E+02 -0.28752471049E+03  0.29081839997E+03  0.47000000000E+01 0. -1.
          5    1    4    4  503    0 -0.40555709503E+02 -0.27088924361E+02 -0.17655305055E+02  0.52080468440E+02  0.47000000000E+01 0.  1.
         -5    1    4    4    0  503  0.75499649087E+02 -0.11352437423E+02 -0.11000684285E+03  0.13398757525E+03  0.47000000000E+01 0.  1.
<mgrwt>
<rscale>  0 0.13536495E+03</rscale>
<asrwt>0</asrwt>
<pdfrwt beam="1">  1        5 0.64798461E-02 0.13536504E+03</pdfrwt>
<pdfrwt beam="2">  1       -5 0.78697278E-01 0.13536504E+03</pdfrwt>
<totfact> 0.17028351E+02</totfact>
</mgrwt>
</event>
<event>
 8    1  0.1865596E-007  0.1464804E+03  0.7546771E-02  0.1204866E+00
          5   -1    0    0  501    0  0.00000000000E+00  0.00000000000E+00  0.21996612742E+04  0.21996662954E+04  0.47000000000E+01 0.  1.
         -5   -1    0    0    0  501 -0.00000000000E+00 -0.00000000000E+00 -0.10953043464E+02  0.11918857375E+02  0.47000000000E+01 0.  1.
         25    2    1    2    0    0 -0.35035953540E+02  0.67861421841E+02  0.66978794079E+03  0.68561826187E+03  0.12499529895E+03 0.  0.
         25    2    1    2    0    0  0.35035953540E+02 -0.67861421841E+02  0.15189202900E+04  0.15259668909E+04  0.12499365744E+03 0.  0.
          5    1    3    3  502    0 -0.75539695498E+02  0.28533158836E+02  0.50324335685E+03  0.50970221989E+03  0.47000000000E+01 0.  1.
         -5    1    3    3    0  502  0.40503741958E+02  0.39328263005E+02  0.16654458394E+03  0.17591604197E+03  0.47000000000E+01 0.  1.
          5    1    4    4  503    0  0.69740168299E+02 -0.40212002242E+02  0.53577701948E+03  0.54181159161E+03  0.47000000000E+01 0. -1.
         -5    1    4    4    0  503 -0.34704214759E+02 -0.27649419599E+02  0.98314327048E+03  0.98415529934E+03  0.47000000000E+01 0. -1.
<mgrwt>
<rscale>  0 0.14648008E+03</rscale>
<asrwt>0</asrwt>
<pdfrwt beam="1">  1        5 0.33848418E+00 0.14648043E+03</pdfrwt>
<pdfrwt beam="2">  1       -5 0.17597629E-02 0.14648043E+03</pdfrwt>
<totfact> 0.16362441E+01</totfact>
</mgrwt>
</event>
<event>
 8    1  0.1865596E-007  0.1286213E+03  0.7546771E-02  0.1229517E+00
          5   -1    0    0  501    0  0.00000000000E+00  0.00000000000E+00  0.56462731037E+02  0.56658009109E+02  0.47000000000E+01 0. -1.
         -5   -1    0    0    0  501 -0.00000000000E+00 -0.00000000000E+00 -0.30573119137E+03  0.30576731574E+03  0.47000000000E+01 0. -1.
         25    2    1    2    0    0 -0.32353813141E+01 -0.30122476748E+02 -0.16264447304E+03  0.20735639481E+03  0.12500247423E+03 0.  0.
         25    2    1    2    0    0  0.32353813141E+01  0.30122476748E+02 -0.86623987293E+02  0.15506893003E+03  0.12499930636E+03 0.  0.
          5    1    4    4  502    0  0.27836183824E+02  0.26588536531E+02 -0.11243231389E+03  0.11893241195E+03  0.47000000000E+01 0.  1.
         -5    1    4    4    0  502 -0.24600802510E+02  0.35339402164E+01  0.25808326599E+02  0.36136518087E+02  0.47000000000E+01 0.  1.
          5    1    3    3  503    0 -0.19761832550E+02 -0.73671178945E+02 -0.12814596655E+03  0.14920271906E+03  0.47000000000E+01 0. -1.
         -5    1    3    3    0  503  0.16526451236E+02  0.43548702197E+02 -0.34498506489E+02  0.58153675752E+02  0.47000000000E+01 0. -1.
<mgrwt>
<rscale>  0 0.12862057E+03</rscale>
<asrwt>0</asrwt>
<pdfrwt beam="1">  1        5 0.87043744E-02 0.12862134E+03</pdfrwt>
<pdfrwt beam="2">  1       -5 0.47053367E-01 0.12862134E+03</pdfrwt>
<totfact> 0.31263745E+02</totfact>
</mgrwt>
</event>
<event>
 8    1  0.1865596E-007  0.1330417E+03  0.7546771E-02  0.1223014E+00
          5   -1    0    0  501    0  0.00000000000E+00  0.00000000000E+00  0.10711678832E+03  0.10721985050E+03  0.47000000000E+01 0.  1.
         -5   -1    0    0    0  501 -0.00000000000E+00 -0.00000000000E+00 -0.16507567687E+03  0.16514257202E+03  0.47000000000E+01 0.  1.
         25    2    1    2    0    0 -0.11439694952E+02 -0.44085900136E+02 -0.26387001992E+02  0.13562590351E+03  0.12499471436E+03 0.  0.
         25    2    1    2    0    0  0.11439694952E+02  0.44085900136E+02 -0.31571886548E+02  0.13673651901E+03  0.12500263357E+03 0.  0.
          5    1    4    4  502    0 -0.34045474334E+02  0.71197027057E+02 -0.26288791237E+02  0.83314473707E+02  0.47000000000E+01 0.  1.
         -5    1    4    4    0  502  0.45485169286E+02 -0.27111126921E+02 -0.52830953117E+01  0.53422045300E+02  0.47000000000E+01 0.  1.
          5    1    3    3  503    0  0.17710373983E+02  0.13365048882E+02  0.38107784509E+02  0.44346083462E+02  0.47000000000E+01 0.  1.
         -5    1    3    3    0  503 -0.29150068935E+02 -0.57450949019E+02 -0.64494786502E+02  0.91279820048E+02  0.47000000000E+01 0.  1.
<mgrwt>
<rscale>  0 0.13303983E+03</rscale>
<asrwt>0</asrwt>
<pdfrwt beam="1">  1        5 0.16492580E-01 0.13304169E+03</pdfrwt>
<pdfrwt beam="2">  1       -5 0.25409331E-01 0.13304169E+03</pdfrwt>
<totfact> 0.35014260E+02</totfact>
</mgrwt>
</event>
<event>
 8    1  0.1865596E-007  0.1253343E+03  0.7546771E-02  0.1234548E+00
         -5   -1    0    0    0  501 -0.00000000000E+00  0.00000000000E+00  0.11932318348E+03  0.11941571135E+03  0.47000000000E+01 0.  1.
          5   -1    0    0  501    0  0.00000000000E+00 -0.00000000000E+00 -0.13278564025E+03  0.13286879339E+03  0.47000000000E+01 0.  1.
         25    2    1    2    0    0 -0.88940666790E+01  0.18840106257E+01 -0.19317396067E+02  0.12681355808E+03  0.12500345116E+03 0.  0.
         25    2    1    2    0    0  0.88940666790E+01 -0.18840106257E+01  0.58549393014E+01  0.12547094666E+03  0.12500409683E+03 0.  0.
          5    1    3    3  502    0 -0.12384826156E+02  0.34630877940E+02  0.42630368715E+02  0.56498849215E+02  0.47000000000E+01 0.  1.
         -5    1    3    3    0  502  0.34907594774E+01 -0.32746867315E+02 -0.61947764782E+02  0.70314708860E+02  0.47000000000E+01 0.  1.
          5    1    4    4  503    0 -0.28594106258E+02  0.29481847162E+01 -0.49999703568E+02  0.57865145491E+02  0.47000000000E+01 0.  1.
         -5    1    4    4    0  503  0.37488172937E+02 -0.48321953419E+01  0.55854642869E+02  0.67605801171E+02  0.47000000000E+01 0.  1.
<mgrwt>
<rscale>  0 0.12533410E+03</rscale>
<asrwt>0</asrwt>
<pdfrwt beam="2">  1        5 0.20442074E-01 0.12533427E+03</pdfrwt>
<pdfrwt beam="1">  1       -5 0.18370927E-01 0.12533427E+03</pdfrwt>
<totfact> 0.42414042E+02</totfact>
</mgrwt>
</event>
<event>
 8    1  0.1865596E-007  0.1644092E+03  0.7546771E-02  0.1183822E+00
         -5   -1    0    0    0  501 -0.00000000000E+00  0.00000000000E+00  0.81143128101E+03  0.81144489265E+03  0.47000000000E+01 0.  1.
          5   -1    0    0  501    0  0.00000000000E+00 -0.00000000000E+00 -0.33679310016E+02  0.34005674867E+02  0.47000000000E+01 0.  1.
         25    2    1    2    0    0  0.10299779298E+03  0.28059047667E+02  0.44309669096E+03  0.47261513501E+03  0.12503812535E+03 0.  0.
         25    2    1    2    0    0 -0.10299779298E+03 -0.28059047667E+02  0.33465528004E+03  0.37283543251E+03  0.12496498613E+03 0.  0.
          5    1    4    4  502    0 -0.81001097338E+02  0.35871565424E+02  0.24415120049E+03  0.25976883123E+03  0.47000000000E+01 0. -1.
         -5    1    4    4    0  502 -0.21996695642E+02 -0.63930613091E+02  0.90504079550E+02  0.11306660128E+03  0.47000000000E+01 0. -1.
          5    1    3    3  503    0 -0.23200137333E+02 -0.87505248856E+01  0.30664921876E+02  0.39714550126E+02  0.47000000000E+01 0.  1.
         -5    1    3    3    0  503  0.12619793031E+03  0.36809572552E+02  0.41243176908E+03  0.43290058489E+03  0.47000000000E+01 0.  1.
<mgrwt>
<rscale>  0 0.16439530E+03</rscale>
<asrwt>0</asrwt>
<pdfrwt beam="2">  1        5 0.52075844E-02 0.16440921E+03</pdfrwt>
<pdfrwt beam="1">  1       -5 0.12486173E+00 0.16440921E+03</pdfrwt>
<totfact> 0.84862433E+01</totfact>
</mgrwt>
</event>
<event>
 8    1  0.1865596E-007  0.1876069E+03  0.7546771E-02  0.1160639E+00
          5   -1    0    0  501    0  0.00000000000E+00  0.00000000000E+00  0.19656131774E+03  0.19661750083E+03  0.47000000000E+01 0.  1.
         -5   -1    0    0    0  501 -0.00000000000E+00 -0.00000000000E+00 -0.22689765477E+03  0.22694632788E+03  0.47000000000E+01 0.  1.
         25    2    1    2    0    0 -0.13988487229E+03  0.15445660399E+01 -0.11250731469E+03  0.21875069327E+03  0.12499522698E+03 0.  0.
         25    2    1    2    0    0  0.13988487229E+03 -0.15445660399E+01  0.82170977655E+02  0.20481313544E+03  0.12500475072E+03 0.  0.
          5    1    3    3  502    0 -0.70302731990E+02 -0.61102041300E+02 -0.47433554929E+02  0.10463252701E+03  0.47000000000E+01 0.  1.
         -5    1    3    3    0  502 -0.69582140296E+02  0.62646607340E+02 -0.65073759759E+02  0.11411816625E+03  0.47000000000E+01 0.  1.
          5    1    4    4  503    0  0.15560429546E+02 -0.48894224822E+02  0.71756714484E+01  0.52022614787E+02  0.47000000000E+01 0. -1.
         -5    1    4    4    0  503  0.12432444274E+03  0.47349658782E+02  0.74995306207E+02  0.15279052066E+03  0.47000000000E+01 0. -1.
<mgrwt>
<rscale>  0 0.18760532E+03</rscale>
<asrwt>0</asrwt>
<pdfrwt beam="1">  1        5 0.30248269E-01 0.18760691E+03</pdfrwt>
<pdfrwt beam="2">  1       -5 0.34915397E-01 0.18760691E+03</pdfrwt>
<totfact> 0.66101231E+01</totfact>
</mgrwt>
</event>
<event>
 8    1  0.1865596E-007  0.1304321E+03  0.7546771E-02  0.1226823E+00
          5   -1    0    0  501    0  0.00000000000E+00  0.00000000000E+00  0.65381415153E+02  0.65550129271E+02  0.47000000000E+01 0.  1.
         -5   -1    0    0    0  501 -0.00000000000E+00 -0.00000000000E+00 -0.34200489450E+03  0.34203718783E+03  0.47000000000E+01 0.  1.
         25    2    1    2    0    0  0.92102070343E+01 -0.36051002790E+02 -0.23828320072E+03  0.27163691013E+03  0.12499289775E+03 0.  0.
         25    2    1    2    0    0 -0.92102070343E+01  0.36051002790E+02 -0.38340278627E+02  0.13595040697E+03  0.12501213331E+03 0.  0.
          5    1    4    4  502    0 -0.42439757322E+02 -0.95924529659E+01  0.25457137602E+02  0.50629082654E+02  0.47000000000E+01 0. -1.
         -5    1    4    4    0  502  0.33229550288E+02  0.45643455756E+02 -0.63797416230E+02  0.85321324317E+02  0.47000000000E+01 0. -1.
          5    1    3    3  503    0 -0.50246312112E+02 -0.21953278536E+02 -0.17539145012E+03  0.18382298304E+03  0.47000000000E+01 0.  1.
         -5    1    3    3    0  503  0.59456519146E+02 -0.14097724254E+02 -0.62891750601E+02  0.87813927094E+02  0.47000000000E+01 0.  1.
<mgrwt>
<rscale>  0 0.13042750E+03</rscale>
<asrwt>0</asrwt>
<pdfrwt beam="1">  1        5 0.10074142E-01 0.13043211E+03</pdfrwt>
<pdfrwt beam="2">  1       -5 0.52631599E-01 0.13043211E+03</pdfrwt>
<totfact> 0.19241494E+02</totfact>
</mgrwt>
</event>
<event>
 8    1  0.1865596E-007  0.1293392E+03  0.7546771E-02  0.1228441E+00
         -5   -1    0    0    0  501 -0.00000000000E+00  0.00000000000E+00  0.34923638050E+03  0.34926800521E+03  0.47000000000E+01 0. -1.
          5   -1    0    0  501    0  0.00000000000E+00 -0.00000000000E+00 -0.52752825628E+02  0.52961784446E+02  0.47000000000E+01 0. -1.
         25    2    1    2    0    0 -0.29809967609E+02  0.14658497157E+02  0.21002836493E+03  0.24665877633E+03  0.12500052864E+03 0.  0.
         25    2    1    2    0    0  0.29809967609E+02 -0.14658497157E+02  0.86455189937E+02  0.15557101332E+03  0.12499733841E+03 0.  0.
          5    1    3    3  502    0 -0.38366091193E+00 -0.29003419507E+02 -0.70875855683E+00  0.29392820169E+02  0.47000000000E+01 0. -1.
         -5    1    3    3    0  502 -0.29426306697E+02  0.43661916664E+02  0.21073712349E+03  0.21726595616E+03  0.47000000000E+01 0. -1.
          5    1    4    4  503    0  0.73311430685E+02 -0.32325681245E+02  0.41312088085E+02  0.90267902152E+02  0.47000000000E+01 0.  1.
         -5    1    4    4    0  503 -0.43501463076E+02  0.17667184088E+02  0.45143101852E+02  0.65303111168E+02  0.47000000000E+01 0.  1.
<mgrwt>
<rscale>  0 0.12933846E+03</rscale>
<asrwt>0</asrwt>
<pdfrwt beam="2">  1        5 0.81343255E-02 0.12933924E+03</pdfrwt>
<pdfrwt beam="1">  1       -5 0.53747182E-01 0.12933924E+03</pdfrwt>
<totfact> 0.26551045E+02</totfact>
</mgrwt>
</event>
<event>
 8    1  0.1865596E-007  0.1853971E+03  0.7546771E-02  0.1162686E+00
          5   -1    0    0  501    0  0.00000000000E+00  0.00000000000E+00  0.21162559546E+02  0.21678190112E+02  0.47000000000E+01 0.  1.
         -5   -1    0    0    0  501 -0.00000000000E+00 -0.00000000000E+00 -0.16385976829E+04  0.16386044234E+04  0.47000000000E+01 0.  1.
         25    2    1    2    0    0 -0.44924904108E+02 -0.12929840633E+03 -0.92960515644E+03  0.94791235447E+03  0.12504303257E+03 0.  0.
         25    2    1    2    0    0  0.44924904108E+02  0.12929840633E+03 -0.68782996694E+03  0.71237025907E+03  0.12499999080E+03 0.  0.
          5    1    4    4  502    0 -0.42722909774E+02  0.52346218649E+02 -0.28739863882E+03  0.29527180905E+03  0.47000000000E+01 0. -1.
         -5    1    4    4    0  502  0.87647813882E+02  0.76952187681E+02 -0.40043132812E+03  0.41709845002E+03  0.47000000000E+01 0. -1.
          5    1    3    3  503    0 -0.82946525092E+02 -0.82943040691E+02 -0.73215744471E+03  0.74150946579E+03  0.47000000000E+01 0. -1.
         -5    1    3    3    0  503  0.38021620984E+02 -0.46355365639E+02 -0.19744771174E+03  0.20640288868E+03  0.47000000000E+01 0. -1.
<mgrwt>
<rscale>  0 0.18538984E+03</rscale>
<asrwt>0</asrwt>
<pdfrwt beam="1">  1        5 0.32959621E-02 0.18539710E+03</pdfrwt>
<pdfrwt beam="2">  1       -5 0.25213203E+00 0.18539710E+03</pdfrwt>
<totfact> 0.22421344E+01</totfact>
</mgrwt>
</event>
<event>
 8    1  0.1865596E-007  0.1409471E+03  0.7546771E-02  0.1212063E+00
          5   -1    0    0  501    0  0.00000000000E+00  0.00000000000E+00  0.23534391015E+03  0.23539083679E+03  0.47000000000E+01 0.  1.
         -5   -1    0    0    0  501 -0.00000000000E+00 -0.00000000000E+00 -0.84426594786E+02  0.84557317289E+02  0.47000000000E+01 0.  1.
         25    2    1    2    0    0 -0.38775075907E+02 -0.52286269459E+02  0.81947140007E+02  0.16303104813E+03  0.12500571352E+03 0.  0.
         25    2    1    2    0    0  0.38775075907E+02  0.52286269459E+02  0.68970175356E+02  0.15691710595E+03  0.12501492937E+03 0.  0.
          5    1    3    3  502    0 -0.53862868892E+00  0.28376849767E+02  0.66312013353E+02  0.72283530894E+02  0.47000000000E+01 0. -1.
         -5    1    3    3    0  502 -0.38236447218E+02 -0.80663119226E+02  0.15635126654E+02  0.90747517237E+02  0.47000000000E+01 0. -1.
          5    1    4    4  503    0 -0.41860501114E+02 -0.40745701886E+01  0.17609450542E+02  0.45837609276E+02  0.47000000000E+01 0.  1.
         -5    1    4    4    0  503  0.80635577022E+02  0.56360839647E+02  0.51360724814E+02  0.11107949667E+03  0.47000000000E+01 0.  1.
<mgrwt>
<rscale>  0 0.14094509E+03</rscale>
<asrwt>0</asrwt>
<pdfrwt beam="1">  1        5 0.36220420E-01 0.14094713E+03</pdfrwt>
<pdfrwt beam="2">  1       -5 0.13002372E-01 0.14094713E+03</pdfrwt>
<totfact> 0.27334859E+02</totfact>
</mgrwt>
</event>
<event>
 8    1  0.1865596E-007  0.1294869E+03  0.7546771E-02  0.1228236E+00
          5   -1    0    0  501    0  0.00000000000E+00  0.00000000000E+00  0.37600155471E+02  0.37892765687E+02  0.47000000000E+01 0. -1.
         -5   -1    0    0    0  501 -0.00000000000E+00 -0.00000000000E+00 -0.48571695784E+03  0.48573969689E+03  0.47000000000E+01 0. -1.
         25    2    1    2    0    0  0.14537666041E+02  0.30297142638E+02 -0.30103581886E+03  0.32770323989E+03  0.12505034432E+03 0.  0.
         25    2    1    2    0    0 -0.14537666041E+02 -0.30297142638E+02 -0.14708098351E+03  0.19592922269E+03  0.12500473593E+03 0.  0.
          5    1    4    4  502    0 -0.68541455358E+02 -0.34138563732E+01 -0.73569655807E+02  0.10071826931E+03  0.47000000000E+01 0. -1.
         -5    1    4    4    0  502  0.54003789317E+02 -0.26883286265E+02 -0.73511327706E+02  0.95210953372E+02  0.47000000000E+01 0. -1.
          5    1    3    3  503    0 -0.52041667736E+02 -0.71934046315E+01 -0.11422934509E+03  0.12581936866E+03  0.47000000000E+01 0.  1.
         -5    1    3    3    0  503  0.66579333777E+02  0.37490547269E+02 -0.18680647377E+03  0.20188387123E+03  0.47000000000E+01 0.  1.
<mgrwt>
<rscale>  0 0.12947586E+03</rscale>
<asrwt>0</asrwt>
<pdfrwt beam="1">  1        5 0.58088973E-02 0.12948687E+03</pdfrwt>
<pdfrwt beam="2">  1       -5 0.74749939E-01 0.12948687E+03</pdfrwt>
<totfact> 0.22677889E+02</totfact>
</mgrwt>
</event>
<event>
 8    1  0.1865596E-007  0.1753314E+03  0.7546771E-02  0.1172400E+00
          5   -1    0    0  501    0  0.00000000000E+00  0.00000000000E+00  0.13633774141E+03  0.13641872941E+03  0.47000000000E+01 0. -1.
         -5   -1    0    0    0  501 -0.00000000000E+00 -0.00000000000E+00 -0.25048609483E+03  0.25053018522E+03  0.47000000000E+01 0. -1.
         25    2    1    2    0    0 -0.99173052130E+02  0.72665409049E+02 -0.11840757211E+03  0.21156575315E+03  0.12499663528E+03 0.  0.
         25    2    1    2    0    0  0.99173052130E+02 -0.72665409049E+02  0.42592186960E+01  0.17538316147E+03  0.12500222575E+03 0.  0.
          5    1    3    3  502    0 -0.71443484794E+02 -0.15280400358E+02 -0.18472042685E+02  0.75504758231E+02  0.47000000000E+01 0.  1.
         -5    1    3    3    0  502 -0.27729567336E+02  0.87945809408E+02 -0.99935529429E+02  0.13606099492E+03  0.47000000000E+01 0.  1.
          5    1    4    4  503    0  0.38837872371E+02  0.22625477679E+01 -0.51019668738E+02  0.64331920933E+02  0.47000000000E+01 0.  1.
         -5    1    4    4    0  503  0.60335179759E+02 -0.74927956817E+02  0.55278887434E+02  0.11105124054E+03  0.47000000000E+01 0.  1.
<mgrwt>
<rscale>  0 0.17533044E+03</rscale>
<asrwt>0</asrwt>
<pdfrwt beam="1">  1        5 0.20984659E-01 0.17533144E+03</pdfrwt>
<pdfrwt beam="2">  1       -5 0.38545944E-01 0.17533144E+03</pdfrwt>
<totfact> 0.10735658E+02</totfact>
</mgrwt>
</event>
<event>
 8    1  0.1865596E-007  0.1269165E+03  0.7546771E-02  0.1232115E+00
          5   -1    0    0  501    0  0.00000000000E+00  0.00000000000E+00  0.10771632493E+03  0.10781881402E+03  0.47000000000E+01 0. -1.
         -5   -1    0    0    0  501 -0.00000000000E+00 -0.00000000000E+00 -0.17454198365E+03  0.17460525209E+03  0.47000000000E+01 0. -1.
         25    2    1    2    0    0 -0.47718258124E+01  0.21432972660E+02 -0.87088183818E+02  0.15390025192E+03  0.12497517010E+03 0.  0.
         25    2    1    2    0    0  0.47718258124E+01 -0.21432972660E+02  0.20262525098E+02  0.12852381419E+03  0.12500263298E+03 0.  0.
          5    1    4    4  502    0 -0.30562979015E+02 -0.17124102527E+02  0.63284730036E+02  0.72487085949E+02  0.47000000000E+01 0. -1.
         -5    1    4    4    0  502  0.35334804827E+02 -0.43088701324E+01 -0.43022204938E+02  0.56036728239E+02  0.47000000000E+01 0. -1.
          5    1    3    3  503    0 -0.38495607028E+02  0.58049429805E+02 -0.24936795162E+02  0.74132191484E+02  0.47000000000E+01 0. -1.
         -5    1    3    3    0  503  0.33723781216E+02 -0.36616457146E+02 -0.62151388656E+02  0.79768060433E+02  0.47000000000E+01 0. -1.
<mgrwt>
<rscale>  0 0.12690975E+03</rscale>
<asrwt>0</asrwt>
<pdfrwt beam="1">  1        5 0.16584493E-01 0.12691651E+03</pdfrwt>
<pdfrwt beam="2">  1       -5 0.26865363E-01 0.12691651E+03</pdfrwt>
<totfact> 0.30605730E+02</totfact>
</mgrwt>
</event>
<event>
 8    1  0.1865596E-007  0.1400167E+03  0.7546771E-02  0.1213327E+00
          5   -1    0    0  501    0  0.00000000000E+00  0.00000000000E+00  0.10021531358E+03  0.10032546574E+03  0.47000000000E+01 0.  1.
         -5   -1    0    0    0  501 -0.00000000000E+00 -0.00000000000E+00 -0.21028032196E+03  0.21033284053E+03  0.47000000000E+01 0.  1.
         25    2    1    2    0    0  0.32919311837E+02  0.53670345304E+02 -0.96493464653E+02  0.17004609193E+03  0.12506197505E+03 0.  0.
         25    2    1    2    0    0 -0.32919311837E+02 -0.53670345304E+02 -0.13571543734E+02  0.14061221433E+03  0.12499368370E+03 0.  0.
          5    1    4    4  502    0  0.30290250843E+01  0.23217515655E+02  0.35254080274E+02  0.42581312828E+02  0.47000000000E+01 0. -1.
         -5    1    4    4    0  502 -0.35948336921E+02 -0.76887860960E+02 -0.48825624008E+02  0.98030901506E+02  0.47000000000E+01 0. -1.
          5    1    3    3  503    0 -0.43842534775E+01 -0.10358739188E+02  0.24911654896E+02  0.27734557969E+02  0.47000000000E+01 0. -1.
         -5    1    3    3    0  503  0.37303565314E+02  0.64029084492E+02 -0.12140511955E+03  0.14231153396E+03  0.47000000000E+01 0. -1.
<mgrwt>
<rscale>  0 0.14000148E+03</rscale>
<asrwt>0</asrwt>
<pdfrwt beam="1">  1        5 0.15430254E-01 0.14001673E+03</pdfrwt>
<pdfrwt beam="2">  1       -5 0.32363332E-01 0.14001673E+03</pdfrwt>
<totfact> 0.25095689E+02</totfact>
</mgrwt>
</event>
<event>
 8    1  0.1865596E-007  0.1568348E+03  0.7546771E-02  0.1192317E+00
         -5   -1    0    0    0  501 -0.00000000000E+00  0.00000000000E+00  0.52652890828E+02  0.52862244679E+02  0.47000000000E+01 0.  1.
          5   -1    0    0  501    0  0.00000000000E+00 -0.00000000000E+00 -0.47662172965E+03  0.47664490260E+03  0.47000000000E+01 0.  1.
         25    2    1    2    0    0  0.62176562189E+02 -0.71451756921E+02 -0.17248579847E+03  0.23312756033E+03  0.12500332099E+03 0.  0.
         25    2    1    2    0    0 -0.62176562189E+02  0.71451756921E+02 -0.25148304035E+03  0.29637958695E+03  0.12500344604E+03 0.  0.
          5    1    4    4  502    0 -0.79569581727E+01  0.96023864242E+02 -0.14194170553E+03  0.17162002638E+03  0.47000000000E+01 0. -1.
         -5    1    4    4    0  502 -0.54219604016E+02 -0.24572107321E+02 -0.10954133482E+03  0.12475956056E+03  0.47000000000E+01 0. -1.
          5    1    3    3  503    0  0.49536091412E+02 -0.64876773204E+02 -0.25884916188E+02  0.85760940642E+02  0.47000000000E+01 0.  1.
         -5    1    3    3    0  503  0.12640470777E+02 -0.65749837173E+01 -0.14660088228E+03  0.14736661969E+03  0.47000000000E+01 0.  1.
<mgrwt>
<rscale>  0 0.15683473E+03</rscale>
<asrwt>0</asrwt>
<pdfrwt beam="2">  1        5 0.73344304E-01 0.15683475E+03</pdfrwt>
<pdfrwt beam="1">  1       -5 0.81183317E-02 0.15683475E+03</pdfrwt>
<totfact> 0.14294166E+02</totfact>
</mgrwt>
</event>
<event>
 8    1  0.1865596E-007  0.2005350E+03  0.7546771E-02  0.1149289E+00
          5   -1    0    0  501    0  0.00000000000E+00  0.00000000000E+00  0.93592376155E+02  0.93710313596E+02  0.47000000000E+01 0.  1.
         -5   -1    0    0    0  501 -0.00000000000E+00 -0.00000000000E+00 -0.44934902109E+03  0.44937360042E+03  0.47000000000E+01 0.  1.
         25    2    1    2    0    0 -0.53908626485E+02 -0.14724994610E+03 -0.23527116402E+03  0.30913729016E+03  0.12499862766E+03 0.  0.
         25    2    1    2    0    0  0.53908626485E+02  0.14724994610E+03 -0.12048548092E+03  0.23394662385E+03  0.12500234023E+03 0.  0.
          5    1    4    4  502    0  0.80037049867E+01  0.25286869792E+02  0.26270736253E+02  0.37626143314E+02  0.47000000000E+01 0.  1.
         -5    1    4    4    0  502  0.45904921498E+02  0.12196307631E+03 -0.14675621717E+03  0.19632048054E+03  0.47000000000E+01 0.  1.
          5    1    3    3  503    0 -0.51955157670E+02 -0.16510256238E+03 -0.17544838485E+03  0.24650034535E+03  0.47000000000E+01 0. -1.
         -5    1    3    3    0  503 -0.19534688155E+01  0.17852616276E+02 -0.59822779166E+02  0.62636944813E+02  0.47000000000E+01 0. -1.
<mgrwt>
<rscale>  0 0.20053439E+03</rscale>
<asrwt>0</asrwt>
<pdfrwt beam="1">  1        5 0.14409790E-01 0.20053496E+03</pdfrwt>
<pdfrwt beam="2">  1       -5 0.69141580E-01 0.20053496E+03</pdfrwt>
<totfact> 0.63704273E+01</totfact>
</mgrwt>
</event>
<event>
 8    1  0.1865596E-007  0.1571530E+03  0.7546771E-02  0.1191949E+00
         -5   -1    0    0    0  501 -0.00000000000E+00  0.00000000000E+00  0.19954940729E+02  0.20500967282E+02  0.47000000000E+01 0.  1.
          5   -1    0    0  501    0  0.00000000000E+00 -0.00000000000E+00 -0.13738584782E+04  0.13738665176E+04  0.47000000000E+01 0.  1.
         25    2    1    2    0    0 -0.28373488174E+02  0.90925796864E+02 -0.44397091938E+03  0.47096376622E+03  0.12499654585E+03 0.  0.
         25    2    1    2    0    0  0.28373488174E+02 -0.90925796864E+02 -0.90993261813E+03  0.92340371867E+03  0.12499801102E+03 0.  0.
          5    1    4    4  502    0  0.49284167363E+02 -0.69112975011E+02 -0.86430593181E+03  0.86847703840E+03  0.47000000000E+01 0. -1.
         -5    1    4    4    0  502 -0.20910679190E+02 -0.21812821853E+02 -0.45626686318E+02  0.54926680272E+02  0.47000000000E+01 0. -1.
          5    1    3    3  503    0 -0.19883588753E+02 -0.17426358568E+02 -0.22357473094E+03  0.22518167197E+03  0.47000000000E+01 0.  1.
         -5    1    3    3    0  503 -0.84898994207E+01  0.10835215543E+03 -0.22039618843E+03  0.24578209425E+03  0.47000000000E+01 0.  1.
<mgrwt>
<rscale>  0 0.15715269E+03</rscale>
<asrwt>0</asrwt>
<pdfrwt beam="2">  1        5 0.21140539E+00 0.15715298E+03</pdfrwt>
<pdfrwt beam="1">  1       -5 0.31126124E-02 0.15715298E+03</pdfrwt>
<totfact> 0.43471731E+01</totfact>
</mgrwt>
</event>
<event>
 8    1  0.1865596E-007  0.2173747E+03  0.7546771E-02  0.1135856E+00
          5   -1    0    0  501    0  0.00000000000E+00  0.00000000000E+00  0.94991982016E+02  0.95108183914E+02  0.47000000000E+01 0.  1.
         -5   -1    0    0    0  501 -0.00000000000E+00 -0.00000000000E+00 -0.50218930349E+03  0.50221129671E+03  0.47000000000E+01 0.  1.
         25    2    1    2    0    0 -0.17377052883E+03 -0.37827850024E+02 -0.23398023898E+03  0.31936998912E+03  0.12499317899E+03 0.  0.
         25    2    1    2    0    0  0.17377052883E+03  0.37827850024E+02 -0.17321708250E+03  0.27794949150E+03  0.12499847690E+03 0.  0.
          5    1    3    3  502    0 -0.67294988811E+02  0.40824824925E+02 -0.52649347615E+02  0.94812054368E+02  0.47000000000E+01 0.  1.
         -5    1    3    3    0  502 -0.10647554002E+03 -0.78652674949E+02 -0.18133089136E+03  0.22455793475E+03  0.47000000000E+01 0.  1.
          5    1    4    4  503    0  0.45365420522E+02  0.69510620992E+02 -0.85024021272E+02  0.11891560874E+03  0.47000000000E+01 0. -1.
         -5    1    4    4    0  503  0.12840510831E+03 -0.31682770968E+02 -0.88193061229E+02  0.15903388276E+03  0.47000000000E+01 0. -1.
<mgrwt>
<rscale>  0 0.21737394E+03</rscale>
<asrwt>0</asrwt>
<pdfrwt beam="1">  1        5 0.14624782E-01 0.21737470E+03</pdfrwt>
<pdfrwt beam="2">  1       -5 0.77270522E-01 0.21737470E+03</pdfrwt>
<totfact> 0.49076387E+01</totfact>
</mgrwt>
</event>
<event>
 8    1  0.1865596E-007  0.1347992E+03  0.7546771E-02  0.1220506E+00
         -5   -1    0    0    0  501 -0.00000000000E+00  0.00000000000E+00  0.33354021611E+03  0.33357332891E+03  0.47000000000E+01 0. -1.
          5   -1    0    0  501    0  0.00000000000E+00 -0.00000000000E+00 -0.62314667458E+02  0.62491661687E+02  0.47000000000E+01 0. -1.
         25    2    1    2    0    0  0.67343726428E+01 -0.49992500503E+02  0.20633895940E+03  0.24646826156E+03  0.12500494354E+03 0.  0.
         25    2    1    2    0    0 -0.67343726428E+01  0.49992500503E+02  0.64886589249E+02  0.14959672904E+03  0.12499723994E+03 0.  0.
          5    1    3    3  502    0  0.18611805727E+02 -0.72705578165E+02  0.55667323161E+02  0.93559827258E+02  0.47000000000E+01 0. -1.
         -5    1    3    3    0  502 -0.11877433084E+02  0.22713077662E+02  0.15067163624E+03  0.15290843430E+03  0.47000000000E+01 0. -1.
          5    1    4    4  503    0  0.14240327355E+02  0.74205013811E+02  0.83128060377E+02  0.11243458285E+03  0.47000000000E+01 0.  1.
         -5    1    4    4    0  503 -0.20974699997E+02 -0.24212513308E+02 -0.18241471128E+02  0.37162146192E+02  0.47000000000E+01 0.  1.
<mgrwt>
<rscale>  0 0.13479746E+03</rscale>
<asrwt>0</asrwt>
<pdfrwt beam="2">  1        5 0.96030341E-02 0.13479925E+03</pdfrwt>
<pdfrwt beam="1">  1       -5 0.51330041E-01 0.13479925E+03</pdfrwt>
<totfact> 0.22314912E+02</totfact>
</mgrwt>
</event>
<event>
 8    1  0.1865596E-007  0.1367379E+03  0.7546771E-02  0.1217789E+00
          5   -1    0    0  501    0  0.00000000000E+00  0.00000000000E+00  0.43705051277E+03  0.43707578372E+03  0.47000000000E+01 0.  1.
         -5   -1    0    0    0  501 -0.00000000000E+00 -0.00000000000E+00 -0.52380035260E+02  0.52590475315E+02  0.47000000000E+01 0.  1.
         25    2    1    2    0    0 -0.23025324473E+01  0.55368561046E+02  0.86922686999E+02  0.16202164718E+03  0.12499792571E+03 0.  0.
         25    2    1    2    0    0  0.23025324473E+01 -0.55368561046E+02  0.29774779051E+03  0.32764461185E+03  0.12500506274E+03 0.  0.
          5    1    4    4  502    0  0.15529277115E+02 -0.83476825963E+02  0.11961896660E+03  0.14676622939E+03  0.47000000000E+01 0. -1.
         -5    1    4    4    0  502 -0.13226744667E+02  0.28108264916E+02  0.17812882392E+03  0.18087838246E+03  0.47000000000E+01 0. -1.
          5    1    3    3  503    0  0.44095795913E+02  0.37825065375E+02  0.95088406236E+02  0.11153057782E+03  0.47000000000E+01 0. -1.
         -5    1    3    3    0  503 -0.46398328360E+02  0.17543495671E+02 -0.81657192373E+01  0.50491069365E+02  0.47000000000E+01 0. -1.
<mgrwt>
<rscale>  0 0.13673624E+03</rscale>
<asrwt>0</asrwt>
<pdfrwt beam="1">  1        5 0.67256671E-01 0.13673787E+03</pdfrwt>
<pdfrwt beam="2">  1       -5 0.80765987E-02 0.13673787E+03</pdfrwt>
<totfact> 0.16773869E+02</totfact>
</mgrwt>
</event>
<event>
 8    1  0.1865596E-007  0.1290390E+03  0.7546771E-02  0.1228893E+00
         -5   -1    0    0    0  501 -0.00000000000E+00  0.00000000000E+00  0.13141196455E+04  0.13141280503E+04  0.47000000000E+01 0. -1.
          5   -1    0    0  501    0  0.00000000000E+00 -0.00000000000E+00 -0.12440454381E+02  0.13298680581E+02  0.47000000000E+01 0. -1.
         25    2    1    2    0    0  0.29748845221E+02  0.11858475587E+02  0.73526684230E+03  0.74650411090E+03  0.12500176384E+03 0.  0.
         25    2    1    2    0    0 -0.29748845221E+02 -0.11858475587E+02  0.56641234879E+03  0.58092262000E+03  0.12499009691E+03 0.  0.
          5    1    4    4  502    0  0.31732864445E+01 -0.26565481126E+02  0.52543869470E+03  0.52614038661E+03  0.47000000000E+01 0. -1.
         -5    1    4    4    0  502 -0.32922131665E+02  0.14707005539E+02  0.40973654093E+02  0.54782233388E+02  0.47000000000E+01 0. -1.
          5    1    3    3  503    0  0.57967282948E+02  0.50243717779E+02  0.35421775790E+03  0.36245957992E+03  0.47000000000E+01 0. -1.
         -5    1    3    3    0  503 -0.28218437727E+02 -0.38385242192E+02  0.38104908441E+03  0.38404453098E+03  0.47000000000E+01 0. -1.
<mgrwt>
<rscale>  0 0.12903615E+03</rscale>
<asrwt>0</asrwt>
<pdfrwt beam="2">  1        5 0.19805806E-02 0.12903898E+03</pdfrwt>
<pdfrwt beam="1">  1       -5 0.20223886E+00 0.12903898E+03</pdfrwt>
<totfact> 0.97584489E+01</totfact>
</mgrwt>
</event>
<event>
 8    1  0.1865596E-007  0.1359290E+03  0.7546771E-02  0.1218916E+00
          5   -1    0    0  501    0  0.00000000000E+00  0.00000000000E+00  0.48425189325E+02  0.48652738476E+02  0.47000000000E+01 0.  1.
         -5   -1    0    0    0  501 -0.00000000000E+00 -0.00000000000E+00 -0.52674040197E+03  0.52676137013E+03  0.47000000000E+01 0.  1.
         25    2    1    2    0    0 -0.38468696587E+02  0.37037416272E+02 -0.39076974468E+03  0.41373624246E+03  0.12500029660E+03 0.  0.
         25    2    1    2    0    0  0.38468696587E+02 -0.37037416272E+02 -0.87545467960E+02  0.16167786614E+03  0.12499565040E+03 0.  0.
          5    1    4    4  502    0 -0.22881246098E+02 -0.34708182118E+01  0.21574543233E+02  0.31986699075E+02  0.47000000000E+01 0.  1.
         -5    1    4    4    0  502  0.61349942685E+02 -0.33566598060E+02 -0.10912001119E+03  0.12969116707E+03  0.47000000000E+01 0.  1.
          5    1    3    3  503    0 -0.60661257308E+02  0.31329727965E+02 -0.38303237867E+03  0.38909797365E+03  0.47000000000E+01 0. -1.
         -5    1    3    3    0  503  0.22192560721E+02  0.57076883066E+01 -0.77373660098E+01  0.24638268809E+02  0.47000000000E+01 0. -1.
<mgrwt>
<rscale>  0 0.13592790E+03</rscale>
<asrwt>0</asrwt>
<pdfrwt beam="1">  1        5 0.74691462E-02 0.13592897E+03</pdfrwt>
<pdfrwt beam="2">  1       -5 0.81056098E-01 0.13592897E+03</pdfrwt>
<totfact> 0.12513667E+02</totfact>
</mgrwt>
</event>
<event>
 8    1  0.1865596E-007  0.1276981E+03  0.7546771E-02  0.1230912E+00
         -5   -1    0    0    0  501 -0.00000000000E+00  0.00000000000E+00  0.52896157822E+02  0.53104552651E+02  0.47000000000E+01 0. -1.
          5   -1    0    0  501    0  0.00000000000E+00 -0.00000000000E+00 -0.30749443263E+03  0.30753034988E+03  0.47000000000E+01 0. -1.
         25    2    1    2    0    0  0.18305974830E+02 -0.18614885624E+02 -0.12961859193E+03  0.18195440257E+03  0.12499921023E+03 0.  0.
         25    2    1    2    0    0 -0.18305974830E+02  0.18614885624E+02 -0.12497968287E+03  0.17868049996E+03  0.12500070902E+03 0.  0.
          5    1    4    4  502    0  0.35170072704E+01  0.70738454799E+02 -0.68173714010E+02  0.98417699676E+02  0.47000000000E+01 0. -1.
         -5    1    4    4    0  502 -0.21822982100E+02 -0.52123569175E+02 -0.56805968863E+02  0.80262800286E+02  0.47000000000E+01 0. -1.
          5    1    3    3  503    0  0.35162441375E+02  0.23206886626E+02  0.23092244899E+01  0.42454438968E+02  0.47000000000E+01 0. -1.
         -5    1    3    3    0  503 -0.16856466546E+02 -0.41821772251E+02 -0.13192781642E+03  0.13949996360E+03  0.47000000000E+01 0. -1.
<mgrwt>
<rscale>  0 0.12769771E+03</rscale>
<asrwt>0</asrwt>
<pdfrwt beam="2">  1        5 0.47325628E-01 0.12769808E+03</pdfrwt>
<pdfrwt beam="1">  1       -5 0.81566639E-02 0.12769808E+03</pdfrwt>
<totfact> 0.34447915E+02</totfact>
</mgrwt>
</event>
<event>
 8    1  0.1865596E-007  0.1259957E+03  0.7546771E-02  0.1233529E+00
         -5   -1    0    0    0  501 -0.00000000000E+00  0.00000000000E+00  0.10586099485E+03  0.10596527842E+03  0.47000000000E+01 0. -1.
          5   -1    0    0  501    0  0.00000000000E+00 -0.00000000000E+00 -0.15124512379E+03  0.15131813332E+03  0.47000000000E+01 0. -1.
         25    2    1    2    0    0  0.51257171612E+00 -0.15775787039E+02 -0.35589826932E+02  0.13090756300E+03  0.12498406332E+03 0.  0.
         25    2    1    2    0    0 -0.51257171612E+00  0.15775787039E+02 -0.97943020099E+01  0.12637584874E+03  0.12500315438E+03 0.  0.
          5    1    3    3  502    0 -0.52013075156E+02 -0.41976318980E+02 -0.16501721899E+02  0.69005566210E+02  0.47000000000E+01 0.  1.
         -5    1    3    3    0  502  0.52525646872E+02  0.26200531941E+02 -0.19088105033E+02  0.61901996794E+02  0.47000000000E+01 0.  1.
          5    1    4    4  503    0 -0.36623153612E+02  0.57546325691E+02 -0.17104942905E+02  0.70480522506E+02  0.47000000000E+01 0. -1.
         -5    1    4    4    0  503  0.36110581896E+02 -0.41770538652E+02  0.73106408951E+01  0.55895326231E+02  0.47000000000E+01 0. -1.
<mgrwt>
<rscale>  0 0.12599101E+03</rscale>
<asrwt>0</asrwt>
<pdfrwt beam="2">  1        5 0.23282118E-01 0.12599574E+03</pdfrwt>
<pdfrwt beam="1">  1       -5 0.16299945E-01 0.12599574E+03</pdfrwt>
<totfact> 0.41427332E+02</totfact>
</mgrwt>
</event>
<event>
 8    1  0.1865596E-007  0.2971143E+03  0.7546771E-02  0.1086693E+00
          5   -1    0    0  501    0  0.00000000000E+00  0.00000000000E+00  0.45084636015E+03  0.45087085786E+03  0.47000000000E+01 0.  1.
         -5   -1    0    0    0  501 -0.00000000000E+00 -0.00000000000E+00 -0.27918745182E+03  0.27922701025E+03  0.47000000000E+01 0.  1.
         25    2    1    2    0    0 -0.21694174338E+03  0.15994285489E+03 -0.11372302890E+03  0.31812726692E+03  0.12500637506E+03 0.  0.
         25    2    1    2    0    0  0.21694174338E+03 -0.15994285489E+03  0.28538193724E+03  0.41197060118E+03  0.12502595444E+03 0.  0.
          5    1    3    3  502    0 -0.17637669526E+02  0.77872795157E+02 -0.16691989062E+02  0.81706622196E+02  0.47000000000E+01 0. -1.
         -5    1    3    3    0  502 -0.19930407386E+03  0.82070059732E+02 -0.97031039837E+02  0.23642064472E+03  0.47000000000E+01 0. -1.
          5    1    4    4  503    0  0.14648666141E+03 -0.11644276185E+03  0.10788111664E+03  0.21605018881E+03  0.47000000000E+01 0.  1.
         -5    1    4    4    0  503  0.70455081971E+02 -0.43500093041E+02  0.17750082060E+03  0.19592041237E+03  0.47000000000E+01 0.  1.
<mgrwt>
<rscale>  0 0.29711227E+03</rscale>
<asrwt>0</asrwt>
<pdfrwt beam="1">  1        5 0.69365906E-01 0.29711433E+03</pdfrwt>
<pdfrwt beam="2">  1       -5 0.42956843E-01 0.29711433E+03</pdfrwt>
<totfact> 0.82929858E+00</totfact>
</mgrwt>
</event>
<event>
 8    1  0.1865596E-007  0.1345078E+03  0.7546771E-02  0.1220916E+00
          5   -1    0    0  501    0  0.00000000000E+00  0.00000000000E+00  0.39346236686E+02  0.39625955400E+02  0.47000000000E+01 0.  1.
         -5   -1    0    0    0  501 -0.00000000000E+00 -0.00000000000E+00 -0.92707997432E+03  0.92709188800E+03  0.47000000000E+01 0.  1.
         25    2    1    2    0    0 -0.19064806948E+02  0.45863658276E+02 -0.78767112336E+03  0.79907330183E+03  0.12500160440E+03 0.  0.
         25    2    1    2    0    0  0.19064806948E+02 -0.45863658276E+02 -0.10006261427E+03  0.16764454157E+03  0.12500089411E+03 0.  0.
          5    1    4    4  502    0  0.25385829801E+02 -0.33815677905E+02 -0.12872351483E+03  0.13557202402E+03  0.47000000000E+01 0.  1.
         -5    1    4    4    0  502 -0.63210228534E+01 -0.12047980370E+02  0.28660900558E+02  0.32072517546E+02  0.47000000000E+01 0.  1.
          5    1    3    3  503    0  0.10366760718E+01  0.75112427191E+02 -0.70470125924E+03  0.70870932419E+03  0.47000000000E+01 0.  1.
         -5    1    3    3    0  503 -0.20101483020E+02 -0.29248768915E+02 -0.82969864120E+02  0.90363977639E+02  0.47000000000E+01 0.  1.
<mgrwt>
<rscale>  0 0.13450762E+03</rscale>
<asrwt>0</asrwt>
<pdfrwt beam="1">  1        5 0.60757012E-02 0.13450778E+03</pdfrwt>
<pdfrwt beam="2">  1       -5 0.14265010E+00 0.13450778E+03</pdfrwt>
<totfact> 0.43509511E+01</totfact>
</mgrwt>
</event>
<event>
 8    1  0.1865596E-007  0.1599059E+03  0.7546771E-02  0.1188804E+00
          5   -1    0    0  501    0  0.00000000000E+00  0.00000000000E+00  0.98706796165E+02  0.98818629869E+02  0.47000000000E+01 0. -1.
         -5   -1    0    0    0  501 -0.00000000000E+00 -0.00000000000E+00 -0.29716696007E+03  0.29720412541E+03  0.47000000000E+01 0. -1.
         25    2    1    2    0    0  0.49993889888E+02  0.86289596057E+02 -0.17039221585E+03  0.23367219584E+03  0.12499561783E+03 0.  0.
         25    2    1    2    0    0 -0.49993889888E+02 -0.86289596057E+02 -0.28067948061E+02  0.16235055943E+03  0.12499844409E+03 0.  0.
          5    1    4    4  502    0 -0.48729169826E+02 -0.84973257822E+02  0.31167904322E+02  0.10290050921E+03  0.47000000000E+01 0.  1.
         -5    1    4    4    0  502 -0.12647200624E+01 -0.13163382345E+01 -0.59235852383E+02  0.59450050216E+02  0.47000000000E+01 0.  1.
          5    1    3    3  503    0  0.44193867062E+01  0.17954680171E+02  0.19157810099E+02  0.27037255901E+02  0.47000000000E+01 0.  1.
         -5    1    3    3    0  503  0.45574503182E+02  0.68334915886E+02 -0.18955002595E+03  0.20663493994E+03  0.47000000000E+01 0.  1.
<mgrwt>
<rscale>  0 0.15990534E+03</rscale>
<asrwt>0</asrwt>
<pdfrwt beam="1">  1        5 0.15197123E-01 0.15990589E+03</pdfrwt>
<pdfrwt beam="2">  1       -5 0.45729455E-01 0.15990589E+03</pdfrwt>
<totfact> 0.13325412E+02</totfact>
</mgrwt>
</event>
<event>
 8    1  0.1865596E-007  0.3663165E+03  0.7546771E-02  0.1056111E+00
          5   -1    0    0  501    0  0.00000000000E+00  0.00000000000E+00  0.13535061331E+04  0.13535142934E+04  0.47000000000E+01 0. -1.
         -5   -1    0    0    0  501 -0.00000000000E+00 -0.00000000000E+00 -0.12191401085E+03  0.12200457385E+03  0.47000000000E+01 0. -1.
         25    2    1    2    0    0 -0.34416671206E+03 -0.10594701365E+02  0.29661474657E+03  0.47134233809E+03  0.12498127221E+03 0.  0.
         25    2    1    2    0    0  0.34416671206E+03  0.10594701365E+02  0.93497737571E+03  0.10041765292E+04  0.12499934090E+03 0.  0.
          5    1    4    4  502    0  0.23328164806E+02  0.29767455410E+02  0.17343393323E+03  0.17757174288E+03  0.47000000000E+01 0.  1.
         -5    1    4    4    0  502  0.32083854726E+03 -0.19172754045E+02  0.76154344249E+03  0.82660478628E+03  0.47000000000E+01 0.  1.
          5    1    3    3  503    0 -0.16634443045E+03  0.49126867285E+01  0.22279316389E+03  0.27812495017E+03  0.47000000000E+01 0.  1.
         -5    1    3    3    0  503 -0.17782228162E+03 -0.15507388093E+02  0.73821582683E+02  0.19321738792E+03  0.47000000000E+01 0.  1.
<mgrwt>
<rscale>  0 0.36631500E+03</rscale>
<asrwt>0</asrwt>
<pdfrwt beam="1">  1        5 0.20823930E+00 0.36631654E+03</pdfrwt>
<pdfrwt beam="2">  1       -5 0.18763597E-01 0.36631654E+03</pdfrwt>
<totfact> 0.23827616E+00</totfact>
</mgrwt>
</event>
<event>
 8    1  0.1865596E-007  0.1429795E+03  0.7546771E-02  0.1209375E+00
          5   -1    0    0  501    0  0.00000000000E+00  0.00000000000E+00  0.12996612087E+03  0.13005107679E+03  0.47000000000E+01 0.  1.
         -5   -1    0    0    0  501 -0.00000000000E+00 -0.00000000000E+00 -0.17031276436E+03  0.17037760329E+03  0.47000000000E+01 0.  1.
         25    2    1    2    0    0  0.31130360430E+02 -0.62044686164E+02 -0.61956827538E+02  0.15582612525E+03  0.12499796162E+03 0.  0.
         25    2    1    2    0    0 -0.31130360430E+02  0.62044686164E+02  0.21610184045E+02  0.14460255483E+03  0.12499702551E+03 0.  0.
          5    1    4    4  502    0 -0.19241157768E+02  0.29686211861E+02 -0.52067075618E+02  0.63123400497E+02  0.47000000000E+01 0. -1.
         -5    1    4    4    0  502 -0.11889202661E+02  0.32358474303E+02  0.73677259663E+02  0.81479154331E+02  0.47000000000E+01 0. -1.
          5    1    3    3  503    0 -0.64805954929E+01 -0.30009192134E+01  0.35065314596E+02  0.36092518917E+02  0.47000000000E+01 0. -1.
         -5    1    3    3    0  503  0.37610955923E+02 -0.59043766951E+02 -0.97022142133E+02  0.11973360633E+03  0.47000000000E+01 0. -1.
<mgrwt>
<rscale>  0 0.14297928E+03</rscale>
<asrwt>0</asrwt>
<pdfrwt beam="1">  1        5 0.20006310E-01 0.14297948E+03</pdfrwt>
<pdfrwt beam="2">  1       -5 0.26213487E-01 0.14297948E+03</pdfrwt>
<totfact> 0.23660078E+02</totfact>
</mgrwt>
</event>
<event>
 8    1  0.1865596E-007  0.1269799E+03  0.7546771E-02  0.1232010E+00
          5   -1    0    0  501    0  0.00000000000E+00  0.00000000000E+00  0.52549446517E+02  0.52759210848E+02  0.47000000000E+01 0.  1.
         -5   -1    0    0    0  501 -0.00000000000E+00 -0.00000000000E+00 -0.30732680965E+03  0.30736274649E+03  0.47000000000E+01 0.  1.
         25    2    1    2    0    0 -0.13354228407E+02 -0.17885114487E+02 -0.13931391873E+03  0.18849534771E+03  0.12499566161E+03 0.  0.
         25    2    1    2    0    0  0.13354228407E+02  0.17885114487E+02 -0.11546344441E+03  0.17162660963E+03  0.12500269358E+03 0.  0.
          5    1    3    3  502    0  0.33036486702E+02  0.78034786659E+01 -0.13001195001E+03  0.13445259715E+03  0.47000000000E+01 0.  1.
         -5    1    3    3    0  502 -0.46390715109E+02 -0.25688593153E+02 -0.93019687114E+01  0.54042750563E+02  0.47000000000E+01 0.  1.
          5    1    4    4  503    0  0.35472535529E+02 -0.12070067365E+01  0.14283813434E+02  0.38547048763E+02  0.47000000000E+01 0. -1.
         -5    1    4    4    0  503 -0.22118307123E+02  0.19092121223E+02 -0.12974725785E+03  0.13307956087E+03  0.47000000000E+01 0. -1.
<mgrwt>
<rscale>  0 0.12697813E+03</rscale>
<asrwt>0</asrwt>
<pdfrwt beam="1">  1        5 0.81034305E-02 0.12697987E+03</pdfrwt>
<pdfrwt beam="2">  1       -5 0.47299947E-01 0.12697987E+03</pdfrwt>
<totfact> 0.34804240E+02</totfact>
</mgrwt>
</event>
<event>
 8    1  0.1865596E-007  0.1528862E+03  0.7546771E-02  0.1196971E+00
         -5   -1    0    0    0  501 -0.00000000000E+00  0.00000000000E+00  0.51016529874E+03  0.51018694813E+03  0.47000000000E+01 0. -1.
          5   -1    0    0  501    0  0.00000000000E+00 -0.00000000000E+00 -0.45676950735E+02  0.45918120916E+02  0.47000000000E+01 0. -1.
         25    2    1    2    0    0 -0.77491159580E+02  0.41785723482E+02  0.23461429880E+03  0.28003222020E+03  0.12499299440E+03 0.  0.
         25    2    1    2    0    0  0.77491159580E+02 -0.41785723482E+02  0.22987404921E+03  0.27607284885E+03  0.12499285128E+03 0.  0.
          5    1    4    4  502    0  0.45134304066E+02  0.42512386344E+02  0.85428320242E+02  0.10566218006E+03  0.47000000000E+01 0. -1.
         -5    1    4    4    0  502  0.32356855514E+02 -0.84298109826E+02  0.14444572897E+03  0.17041066879E+03  0.47000000000E+01 0. -1.
          5    1    3    3  503    0 -0.25956531205E+02  0.82769921518E+02  0.13256094120E+03  0.15849004559E+03  0.47000000000E+01 0. -1.
         -5    1    3    3    0  503 -0.51534628375E+02 -0.40984198036E+02  0.10205335760E+03  0.12154217461E+03  0.47000000000E+01 0. -1.
<mgrwt>
<rscale>  0 0.15288612E+03</rscale>
<asrwt>0</asrwt>
<pdfrwt beam="2">  1        5 0.70474404E-02 0.15288615E+03</pdfrwt>
<pdfrwt beam="1">  1       -5 0.78507182E-01 0.15288615E+03</pdfrwt>
<totfact> 0.15451208E+02</totfact>
</mgrwt>
</event>
<event>
 8    1  0.1865596E-007  0.1271832E+03  0.7546771E-02  0.1231697E+00
         -5   -1    0    0    0  501 -0.00000000000E+00  0.00000000000E+00  0.71798755975E+02  0.71952424279E+02  0.47000000000E+01 0. -1.
          5   -1    0    0  501    0  0.00000000000E+00 -0.00000000000E+00 -0.23965597893E+03  0.23970206139E+03  0.47000000000E+01 0. -1.
         25    2    1    2    0    0  0.23223741433E+02 -0.34003762379E+01 -0.45235536075E+02  0.13498824262E+03  0.12499866879E+03 0.  0.
         25    2    1    2    0    0 -0.23223741433E+02  0.34003762379E+01 -0.12262168688E+03  0.17666624305E+03  0.12499591439E+03 0.  0.
          5    1    3    3  502    0  0.71226804184E+02 -0.20895088200E+02 -0.16512377071E+02  0.76187997360E+02  0.47000000000E+01 0. -1.
         -5    1    3    3    0  502 -0.48003062751E+02  0.17494711962E+02 -0.28723159004E+02  0.58800245265E+02  0.47000000000E+01 0. -1.
          5    1    4    4  503    0  0.47986429939E+02 -0.10399214737E+02 -0.26003771783E+02  0.55759548710E+02  0.47000000000E+01 0. -1.
         -5    1    4    4    0  503 -0.71210171372E+02  0.13799590975E+02 -0.96617915094E+02  0.12090669434E+03  0.47000000000E+01 0. -1.
<mgrwt>
<rscale>  0 0.12718255E+03</rscale>
<asrwt>0</asrwt>
<pdfrwt beam="2">  1        5 0.36885516E-01 0.12718322E+03</pdfrwt>
<pdfrwt beam="1">  1       -5 0.11061328E-01 0.12718322E+03</pdfrwt>
<totfact> 0.33844010E+02</totfact>
</mgrwt>
</event>
<event>
 8    1  0.1865596E-007  0.1763934E+03  0.7546771E-02  0.1171341E+00
         -5   -1    0    0    0  501 -0.00000000000E+00  0.00000000000E+00  0.28903218225E+03  0.28907039346E+03  0.47000000000E+01 0. -1.
          5   -1    0    0  501    0  0.00000000000E+00 -0.00000000000E+00 -0.11806924408E+03  0.11816275386E+03  0.47000000000E+01 0. -1.
         25    2    1    2    0    0  0.48399790313E+02 -0.11466003646E+03  0.14622239146E+03  0.22911924850E+03  0.12500071443E+03 0.  0.
         25    2    1    2    0    0 -0.48399790313E+02  0.11466003646E+03  0.24740546709E+02  0.17811389881E+03  0.12499201029E+03 0.  0.
          5    1    3    3  502    0  0.61361014905E+02 -0.36233352877E+01  0.32940740678E+02  0.69896245286E+02  0.47000000000E+01 0. -1.
         -5    1    3    3    0  502 -0.12961224592E+02 -0.11103670117E+03  0.11328165078E+03  0.15922300322E+03  0.47000000000E+01 0. -1.
          5    1    4    4  503    0  0.41200612789E+02  0.51142875254E+02  0.20971877665E+01  0.65875430776E+02  0.47000000000E+01 0.  1.
         -5    1    4    4    0  503 -0.89600403101E+02  0.63517161205E+02  0.22643358942E+02  0.11223846804E+03  0.47000000000E+01 0.  1.
<mgrwt>
<rscale>  0 0.17639189E+03</rscale>
<asrwt>0</asrwt>
<pdfrwt beam="2">  1        5 0.18174631E-01 0.17639343E+03</pdfrwt>
<pdfrwt beam="1">  1       -5 0.44476622E-01 0.17639343E+03</pdfrwt>
<totfact> 0.10469824E+02</totfact>
</mgrwt>
</event>
<event>
 8    1  0.1865596E-007  0.1409811E+03  0.7546771E-02  0.1212020E+00
         -5   -1    0    0    0  501 -0.00000000000E+00  0.00000000000E+00  0.16663882942E+03  0.16670509731E+03  0.47000000000E+01 0.  1.
          5   -1    0    0  501    0  0.00000000000E+00 -0.00000000000E+00 -0.12303639871E+03  0.12312613617E+03  0.47000000000E+01 0.  1.
         25    2    1    2    0    0 -0.62557685881E+02  0.18359992505E+02  0.47622107412E+02  0.14879287812E+03  0.12498360723E+03 0.  0.
         25    2    1    2    0    0  0.62557685881E+02 -0.18359992505E+02 -0.40196767046E+01  0.14103835536E+03  0.12500042598E+03 0.  0.
          5    1    3    3  502    0  0.30552370769E+02 -0.17442531808E+02  0.31849265435E+02  0.47688101076E+02  0.47000000000E+01 0.  1.
         -5    1    3    3    0  502 -0.93110056650E+02  0.35802524312E+02  0.15772841977E+02  0.10110477704E+03  0.47000000000E+01 0.  1.
          5    1    4    4  503    0  0.10915044615E+02  0.52064033450E+02 -0.43676046974E+01  0.53581412344E+02  0.47000000000E+01 0. -1.
         -5    1    4    4    0  503  0.51642641266E+02 -0.70424025954E+02  0.34792799277E+00  0.87456943020E+02  0.47000000000E+01 0. -1.
<mgrwt>
<rscale>  0 0.14097733E+03</rscale>
<asrwt>0</asrwt>
<pdfrwt beam="2">  1        5 0.18940677E-01 0.14098106E+03</pdfrwt>
<pdfrwt beam="1">  1       -5 0.25648743E-01 0.14098106E+03</pdfrwt>
<totfact> 0.27191194E+02</totfact>
</mgrwt>
</event>
<event>
 8    1  0.1865596E-007  0.1429579E+03  0.7546771E-02  0.1209404E+00
         -5   -1    0    0    0  501 -0.00000000000E+00  0.00000000000E+00  0.46524080293E+02  0.46760881591E+02  0.47000000000E+01 0. -1.
          5   -1    0    0  501    0  0.00000000000E+00 -0.00000000000E+00 -0.63454064649E+03  0.63455805254E+03  0.47000000000E+01 0. -1.
         25    2    1    2    0    0  0.17879562574E+02  0.67015556842E+02 -0.10441176126E+03  0.17702763102E+03  0.12500481047E+03 0.  0.
         25    2    1    2    0    0 -0.17879562574E+02 -0.67015556842E+02 -0.48360480494E+03  0.50429130311E+03  0.12500138966E+03 0.  0.
          5    1    3    3  502    0  0.17994214383E+02  0.76608833195E+02 -0.71241739211E+01  0.79155220478E+02  0.47000000000E+01 0. -1.
         -5    1    3    3    0  502 -0.11465180903E+00 -0.95932763534E+01 -0.97287587334E+02  0.97872410543E+02  0.47000000000E+01 0. -1.
          5    1    4    4  503    0 -0.12117858353E+02 -0.61157810469E+02 -0.84715620555E+02  0.10528982210E+03  0.47000000000E+01 0. -1.
         -5    1    4    4    0  503 -0.57617042205E+01 -0.58577463725E+01 -0.39888918438E+03  0.39900148101E+03  0.47000000000E+01 0. -1.
<mgrwt>
<rscale>  0 0.14295717E+03</rscale>
<asrwt>0</asrwt>
<pdfrwt beam="2">  1        5 0.97641186E-01 0.14295792E+03</pdfrwt>
<pdfrwt beam="1">  1       -5 0.71771057E-02 0.14295792E+03</pdfrwt>
<totfact> 0.87596644E+01</totfact>
</mgrwt>
</event>
<event>
 8    1  0.1865596E-007  0.1487709E+03  0.7546771E-02  0.1201992E+00
         -5   -1    0    0    0  501 -0.00000000000E+00  0.00000000000E+00  0.12956571949E+02  0.13782697728E+02  0.47000000000E+01 0. -1.
          5   -1    0    0  501    0  0.00000000000E+00 -0.00000000000E+00 -0.16551572066E+04  0.16551638797E+04  0.47000000000E+01 0. -1.
         25    2    1    2    0    0 -0.43428287114E+02 -0.67981625387E+02 -0.80577086148E+03  0.81938968128E+03  0.12500100426E+03 0.  0.
         25    2    1    2    0    0  0.43428287114E+02  0.67981625387E+02 -0.83642977321E+03  0.84955689615E+03  0.12499854711E+03 0.  0.
          5    1    3    3  502    0  0.21083731650E+02 -0.58490818504E+02 -0.60587291451E+03  0.60907288409E+03  0.47000000000E+01 0. -1.
         -5    1    3    3    0  502 -0.64512018764E+02 -0.94908068829E+01 -0.19989794697E+03  0.21031679720E+03  0.47000000000E+01 0. -1.
          5    1    4    4  503    0  0.16067368127E+02  0.52119734978E+02 -0.79661164152E+03  0.79849034089E+03  0.47000000000E+01 0. -1.
         -5    1    4    4    0  503  0.27360918987E+02  0.15861890408E+02 -0.39818131690E+02  0.51066555263E+02  0.47000000000E+01 0. -1.
<mgrwt>
<rscale>  0 0.14877034E+03</rscale>
<asrwt>0</asrwt>
<pdfrwt beam="2">  1        5 0.25470347E+00 0.14877086E+03</pdfrwt>
<pdfrwt beam="1">  1       -5 0.20573815E-02 0.14877086E+03</pdfrwt>
<totfact> 0.43754122E+01</totfact>
</mgrwt>
</event>
<event>
 8    1  0.1865596E-007  0.1349258E+03  0.7546771E-02  0.1220349E+00
         -5   -1    0    0    0  501 -0.00000000000E+00  0.00000000000E+00  0.38118333431E+03  0.38121230876E+03  0.47000000000E+01 0.  1.
          5   -1    0    0  501    0  0.00000000000E+00 -0.00000000000E+00 -0.47615572227E+02  0.47846971884E+02  0.47000000000E+01 0.  1.
         25    2    1    2    0    0 -0.37826237849E+02 -0.33612633612E+02  0.16171695131E+03  0.21061181026E+03  0.12507729159E+03 0.  0.
         25    2    1    2    0    0  0.37826237849E+02  0.33612633612E+02  0.17185081077E+03  0.21844747039E+03  0.12500385094E+03 0.  0.
          5    1    3    3  502    0 -0.66573522000E+02 -0.45463297474E+02  0.50985798471E+02  0.95501763829E+02  0.47000000000E+01 0. -1.
         -5    1    3    3    0  502  0.28747284151E+02  0.11850663861E+02  0.11073115284E+03  0.11511004643E+03  0.47000000000E+01 0. -1.
          5    1    4    4  503    0 -0.22913626146E+02  0.15993648009E+02  0.14800718355E+03  0.15069521367E+03  0.47000000000E+01 0.  1.
         -5    1    4    4    0  503  0.60739863995E+02  0.17618985604E+02  0.23843627217E+02  0.67752256721E+02  0.47000000000E+01 0.  1.
<mgrwt>
<rscale>  0 0.13490874E+03</rscale>
<asrwt>0</asrwt>
<pdfrwt beam="2">  1        5 0.73455012E-02 0.13492577E+03</pdfrwt>
<pdfrwt beam="1">  1       -5 0.58663621E-01 0.13492577E+03</pdfrwt>
<totfact> 0.26553716E+02</totfact>
</mgrwt>
</event>
<event>
 8    1  0.1865596E-007  0.1371065E+03  0.7546771E-02  0.1217286E+00
         -5   -1    0    0    0  501 -0.00000000000E+00  0.00000000000E+00  0.30042681565E+03  0.30046357777E+03  0.47000000000E+01 0. -1.
          5   -1    0    0  501    0  0.00000000000E+00 -0.00000000000E+00 -0.62633286432E+02  0.62809382813E+02  0.47000000000E+01 0. -1.
         25    2    1    2    0    0 -0.50073078279E+02  0.25846170841E+02  0.12922717510E+03  0.18840877341E+03  0.12499146130E+03 0.  0.
         25    2    1    2    0    0  0.50073078279E+02 -0.25846170841E+02  0.10856635413E+03  0.17486418717E+03  0.12496196618E+03 0.  0.
          5    1    3    3  502    0 -0.29261946314E+02  0.48637741228E+02  0.15572979597E+01  0.56977245904E+02  0.47000000000E+01 0. -1.
         -5    1    3    3    0  502 -0.20811131964E+02 -0.22791570387E+02  0.12766987714E+03  0.13143152750E+03  0.47000000000E+01 0. -1.
          5    1    4    4  503    0 -0.24226146598E+02  0.17962553238E+02  0.77114472185E+02  0.82935464780E+02  0.47000000000E+01 0. -1.
         -5    1    4    4    0  503  0.74299224877E+02 -0.43808724079E+02  0.31451881941E+02  0.91928722391E+02  0.47000000000E+01 0. -1.
<mgrwt>
<rscale>  0 0.13709982E+03</rscale>
<asrwt>0</asrwt>
<pdfrwt beam="2">  1        5 0.96522638E-02 0.13710654E+03</pdfrwt>
<pdfrwt beam="1">  1       -5 0.46235884E-01 0.13710654E+03</pdfrwt>
<totfact> 0.27733592E+02</totfact>
</mgrwt>
</event>
<event>
 8    1  0.1865596E-007  0.1548293E+03  0.7546771E-02  0.1194662E+00
          5   -1    0    0  501    0  0.00000000000E+00  0.00000000000E+00  0.15452352769E+03  0.15459498895E+03  0.47000000000E+01 0. -1.
         -5   -1    0    0    0  501 -0.00000000000E+00 -0.00000000000E+00 -0.15646818723E+03  0.15653876074E+03  0.47000000000E+01 0. -1.
         25    2    1    2    0    0 -0.59424926947E+02  0.69398313147E+02  0.14133814042E+02  0.15547179407E+03  0.12499706493E+03 0.  0.
         25    2    1    2    0    0  0.59424926947E+02 -0.69398313147E+02 -0.16078473583E+02  0.15566195563E+03  0.12499871723E+03 0.  0.
          5    1    3    3  502    0 -0.21395514374E+02  0.92278604774E+02  0.41058723330E+02  0.10334900917E+03  0.47000000000E+01 0. -1.
         -5    1    3    3    0  502 -0.38029412573E+02 -0.22880291627E+02 -0.26924909288E+02  0.52122784900E+02  0.47000000000E+01 0. -1.
          5    1    4    4  503    0  0.89373351160E+02 -0.22745857624E+02 -0.32103275773E+02  0.97763389119E+02  0.47000000000E+01 0. -1.
         -5    1    4    4    0  503 -0.29948424213E+02 -0.46652455523E+02  0.16024802190E+02  0.57898566514E+02  0.47000000000E+01 0. -1.
<mgrwt>
<rscale>  0 0.15482901E+03</rscale>
<asrwt>0</asrwt>
<pdfrwt beam="1">  1        5 0.23783776E-01 0.15482935E+03</pdfrwt>
<pdfrwt beam="2">  1       -5 0.24082955E-01 0.15482935E+03</pdfrwt>
<totfact> 0.20624355E+02</totfact>
</mgrwt>
</event>
<event>
 8    1  0.1865596E-007  0.1338247E+03  0.7546771E-02  0.1221891E+00
          5   -1    0    0  501    0  0.00000000000E+00  0.00000000000E+00  0.10265339745E+03  0.10276093620E+03  0.47000000000E+01 0.  1.
         -5   -1    0    0    0  501 -0.00000000000E+00 -0.00000000000E+00 -0.17592322768E+03  0.17598599955E+03  0.47000000000E+01 0.  1.
         25    2    1    2    0    0 -0.21939205437E+02 -0.42441863876E+02 -0.50330185699E+02  0.14297611951E+03  0.12500561033E+03 0.  0.
         25    2    1    2    0    0  0.21939205437E+02  0.42441863876E+02 -0.22939644528E+02  0.13577081623E+03  0.12499938681E+03 0.  0.
          5    1    3    3  502    0  0.37559045417E+02  0.16060702777E+02 -0.42340549935E+02  0.59020676336E+02  0.47000000000E+01 0. -1.
         -5    1    3    3    0  502 -0.59498250855E+02 -0.58502566652E+02 -0.79896357639E+01  0.83955443179E+02  0.47000000000E+01 0. -1.
          5    1    4    4  503    0  0.12021888242E+02  0.32517700728E+02  0.50178233646E+02  0.61170841006E+02  0.47000000000E+01 0.  1.
         -5    1    4    4    0  503  0.99173171954E+01  0.99241631479E+01 -0.73117878175E+02  0.74599975223E+02  0.47000000000E+01 0.  1.
<mgrwt>
<rscale>  0 0.13382322E+03</rscale>
<asrwt>0</asrwt>
<pdfrwt beam="1">  1        5 0.15805931E-01 0.13382467E+03</pdfrwt>
<pdfrwt beam="2">  1       -5 0.27078213E-01 0.13382467E+03</pdfrwt>
<totfact> 0.33540460E+02</totfact>
</mgrwt>
</event>
<event>
 8    1  0.1865596E-007  0.1520319E+03  0.7546771E-02  0.1198002E+00
          5   -1    0    0  501    0  0.00000000000E+00  0.00000000000E+00  0.14491677366E+02  0.15234786276E+02  0.47000000000E+01 0. -1.
         -5   -1    0    0    0  501 -0.00000000000E+00 -0.00000000000E+00 -0.17741542941E+04  0.17741605196E+04  0.47000000000E+01 0. -1.
         25    2    1    2    0    0  0.13055576111E+02 -0.85549252044E+02 -0.11947991214E+04  0.12044329154E+04  0.12499833813E+03 0.  0.
         25    2    1    2    0    0 -0.13055576111E+02  0.85549252044E+02 -0.56486349531E+03  0.58496239047E+03  0.12498442839E+03 0.  0.
          5    1    4    4  502    0  0.79317859272E+01  0.11487534003E+03 -0.41026369168E+03  0.42614275037E+03  0.47000000000E+01 0. -1.
         -5    1    4    4    0  502 -0.20987362039E+02 -0.29326087989E+02 -0.15459980362E+03  0.15881964010E+03  0.47000000000E+01 0. -1.
          5    1    3    3  503    0  0.20932368767E+02 -0.18806275043E+02 -0.95291344612E+03  0.95334042495E+03  0.47000000000E+01 0.  1.
         -5    1    3    3    0  503 -0.78767926558E+01 -0.66742977001E+02 -0.24188567532E+03  0.25109249046E+03  0.47000000000E+01 0.  1.
<mgrwt>
<rscale>  0 0.15202907E+03</rscale>
<asrwt>0</asrwt>
<pdfrwt beam="1">  1        5 0.22871313E-02 0.15203193E+03</pdfrwt>
<pdfrwt beam="2">  1       -5 0.27300429E+00 0.15203193E+03</pdfrwt>
<totfact> 0.28478989E+01</totfact>
</mgrwt>
</event>
<event>
 8    1  0.1865596E-007  0.1539702E+03  0.7546771E-02  0.1195681E+00
         -5   -1    0    0    0  501 -0.00000000000E+00  0.00000000000E+00  0.55359163070E+02  0.55558320131E+02  0.47000000000E+01 0.  1.
          5   -1    0    0  501    0  0.00000000000E+00 -0.00000000000E+00 -0.52595704059E+03  0.52597803999E+03  0.47000000000E+01 0.  1.
         25    2    1    2    0    0 -0.88771653947E+02 -0.14001422250E+02 -0.10933405895E+03  0.18882990120E+03  0.12500539496E+03 0.  0.
         25    2    1    2    0    0  0.88771653947E+02  0.14001422250E+02 -0.36126381857E+03  0.39270645892E+03  0.12502147775E+03 0.  0.
          5    1    3    3  502    0 -0.86201653515E+02 -0.13017495390E+02 -0.83554548037E+01  0.87704525995E+02  0.47000000000E+01 0. -1.
         -5    1    3    3    0  502 -0.25700004320E+01 -0.98392685960E+00 -0.10097860415E+03  0.10112537520E+03  0.47000000000E+01 0. -1.
          5    1    4    4  503    0  0.32114838432E+02  0.64096850948E+02 -0.12042223382E+03  0.14022615144E+03  0.47000000000E+01 0. -1.
         -5    1    4    4    0  503  0.56656815516E+02 -0.50095428698E+02 -0.24084158475E+03  0.25248030748E+03  0.47000000000E+01 0. -1.
<mgrwt>
<rscale>  0 0.15396692E+03</rscale>
<asrwt>0</asrwt>
<pdfrwt beam="2">  1        5 0.80933400E-01 0.15397018E+03</pdfrwt>
<pdfrwt beam="1">  1       -5 0.85337298E-02 0.15397018E+03</pdfrwt>
<totfact> 0.10395724E+02</totfact>
</mgrwt>
</event>
<event>
 8    1  0.1865596E-007  0.1611632E+03  0.7546771E-02  0.1187391E+00
         -5   -1    0    0    0  501 -0.00000000000E+00  0.00000000000E+00  0.20773716514E+03  0.20779032649E+03  0.47000000000E+01 0. -1.
          5   -1    0    0  501    0  0.00000000000E+00 -0.00000000000E+00 -0.14243626678E+03  0.14251378913E+03  0.47000000000E+01 0. -1.
         25    2    1    2    0    0 -0.39544726612E+02  0.93715895039E+02  0.94053381393E+02  0.18659618427E+03  0.12500257216E+03 0.  0.
         25    2    1    2    0    0  0.39544726612E+02 -0.93715895039E+02 -0.28752483023E+02  0.16370793135E+03  0.12500850819E+03 0.  0.
          5    1    4    4  502    0  0.23273506740E+02 -0.11993952317E+03 -0.42710446831E+02  0.12951222955E+03  0.47000000000E+01 0.  1.
         -5    1    4    4    0  502  0.16271219872E+02  0.26223628127E+02  0.13957963808E+02  0.34195701805E+02  0.47000000000E+01 0.  1.
          5    1    3    3  503    0  0.53881378371E+01  0.21340900831E+02 -0.29092773425E+02  0.36782408067E+02  0.47000000000E+01 0. -1.
         -5    1    3    3    0  503 -0.44932864449E+02  0.72374994208E+02  0.12314615482E+03  0.14981377620E+03  0.47000000000E+01 0. -1.
<mgrwt>
<rscale>  0 0.16116206E+03</rscale>
<asrwt>0</asrwt>
<pdfrwt beam="2">  1        5 0.21923324E-01 0.16116321E+03</pdfrwt>
<pdfrwt beam="1">  1       -5 0.31969617E-01 0.16116321E+03</pdfrwt>
<totfact> 0.14047602E+02</totfact>
</mgrwt>
</event>
<event>
 8    1  0.1865596E-007  0.1278994E+03  0.7546771E-02  0.1230610E+00
          5   -1    0    0  501    0  0.00000000000E+00  0.00000000000E+00  0.10926726196E+03  0.10936829767E+03  0.47000000000E+01 0. -1.
         -5   -1    0    0    0  501 -0.00000000000E+00 -0.00000000000E+00 -0.15818951228E+03  0.15825931819E+03  0.47000000000E+01 0. -1.
         25    2    1    2    0    0 -0.26396335898E+02  0.58022346988E+01 -0.55822704805E+02  0.13955086282E+03  0.12501134535E+03 0.  0.
         25    2    1    2    0    0  0.26396335898E+02 -0.58022346988E+01  0.69004544855E+01  0.12807675304E+03  0.12500242366E+03 0.  0.
          5    1    3    3  502    0  0.26590213600E+02 -0.16248547374E+02 -0.72956526121E+02  0.79472004220E+02  0.47000000000E+01 0.  1.
         -5    1    3    3    0  502 -0.52986549498E+02  0.22050782073E+02  0.17133821316E+02  0.60078858599E+02  0.47000000000E+01 0.  1.
          5    1    4    4  503    0  0.48877524394E+02 -0.52757330890E+02  0.18766542649E+02  0.74475643512E+02  0.47000000000E+01 0. -1.
         -5    1    4    4    0  503 -0.22481188496E+02  0.46955096192E+02 -0.11866088164E+02  0.53601109530E+02  0.47000000000E+01 0. -1.
<mgrwt>
<rscale>  0 0.12789727E+03</rscale>
<asrwt>0</asrwt>
<pdfrwt beam="1">  1        5 0.16823490E-01 0.12789945E+03</pdfrwt>
<pdfrwt beam="2">  1       -5 0.24349990E-01 0.12789945E+03</pdfrwt>
<totfact> 0.36107460E+02</totfact>
</mgrwt>
</event>
<event>
 8    1  0.1865596E-007  0.1444331E+03  0.7546771E-02  0.1207489E+00
         -5   -1    0    0    0  501 -0.00000000000E+00  0.00000000000E+00  0.93765681658E+03  0.93766859586E+03  0.47000000000E+01 0.  1.
          5   -1    0    0  501    0  0.00000000000E+00 -0.00000000000E+00 -0.27103719678E+02  0.27508210055E+02  0.47000000000E+01 0.  1.
         25    2    1    2    0    0 -0.71813293798E+02  0.87984740405E+01  0.66323186127E+03  0.67877641802E+03  0.12500544605E+03 0.  0.
         25    2    1    2    0    0  0.71813293798E+02 -0.87984740405E+01  0.24732123562E+03  0.28640038790E+03  0.12499130484E+03 0.  0.
          5    1    4    4  502    0  0.68949230832E+02 -0.60654175199E+02  0.14846924416E+03  0.17463714342E+03  0.47000000000E+01 0.  1.
         -5    1    4    4    0  502  0.28640629664E+01  0.51855701158E+02  0.98851991467E+02  0.11176324448E+03  0.47000000000E+01 0.  1.
          5    1    3    3  503    0 -0.51194026678E+02  0.64625496508E+02  0.32569300919E+03  0.33599897232E+03  0.47000000000E+01 0. -1.
         -5    1    3    3    0  503 -0.20619267120E+02 -0.55827022467E+02  0.33753885209E+03  0.34277744570E+03  0.47000000000E+01 0. -1.
<mgrwt>
<rscale>  0 0.14443005E+03</rscale>
<asrwt>0</asrwt>
<pdfrwt beam="2">  1        5 0.42018230E-02 0.14443311E+03</pdfrwt>
<pdfrwt beam="1">  1       -5 0.14428694E+00 0.14443311E+03</pdfrwt>
<totfact> 0.79577477E+01</totfact>
</mgrwt>
</event>
<event>
 8    1  0.1865596E-007  0.1293733E+03  0.7546771E-02  0.1228390E+00
         -5   -1    0    0    0  501 -0.00000000000E+00  0.00000000000E+00  0.30260179515E+04  0.30260216015E+04  0.47000000000E+01 0. -1.
          5   -1    0    0  501    0  0.00000000000E+00 -0.00000000000E+00 -0.47367829785E+01  0.66728639268E+01  0.47000000000E+01 0. -1.
         25    2    1    2    0    0  0.15242074490E+02  0.29670785679E+02  0.17779785845E+04  0.17826792448E+04  0.12499906702E+03 0.  0.
         25    2    1    2    0    0 -0.15242074490E+02 -0.29670785679E+02  0.12433025840E+04  0.12500152206E+04  0.12499623947E+03 0.  0.
          5    1    4    4  502    0  0.47602232080E+02 -0.49362069616E+01  0.26174300045E+03  0.26612370605E+03  0.47000000000E+01 0.  1.
         -5    1    4    4    0  502 -0.62844306570E+02 -0.24734578717E+02  0.98155958360E+03  0.98389151455E+03  0.47000000000E+01 0.  1.
          5    1    3    3  503    0  0.28932489158E+02 -0.44606884326E+02  0.67415821667E+03  0.67626788639E+03  0.47000000000E+01 0.  1.
         -5    1    3    3    0  503 -0.13690414668E+02  0.74277670004E+02  0.11038203678E+04  0.11064113584E+04  0.47000000000E+01 0.  1.
<mgrwt>
<rscale>  0 0.12937259E+03</rscale>
<asrwt>0</asrwt>
<pdfrwt beam="2">  1        5 0.87794632E-03 0.12937327E+03</pdfrwt>
<pdfrwt beam="1">  1       -5 0.46569022E+00 0.12937327E+03</pdfrwt>
<totfact> 0.59829599E+00</totfact>
</mgrwt>
</event>
<event>
 8    1  0.1865596E-007  0.1304071E+03  0.7546771E-02  0.1226863E+00
         -5   -1    0    0    0  501 -0.00000000000E+00  0.00000000000E+00  0.26750981770E+03  0.26755110271E+03  0.47000000000E+01 0. -1.
          5   -1    0    0  501    0  0.00000000000E+00 -0.00000000000E+00 -0.64118920894E+02  0.64290948170E+02  0.47000000000E+01 0. -1.
         25    2    1    2    0    0  0.32548714714E+02  0.17707271698E+02  0.11894324228E+03  0.17650353544E+03  0.12503214322E+03 0.  0.
         25    2    1    2    0    0 -0.32548714714E+02 -0.17707271698E+02  0.84447654517E+02  0.15533851544E+03  0.12500272688E+03 0.  0.
          5    1    4    4  502    0  0.28120345686E+00 -0.32617006635E+02  0.10739741188E+03  0.11233985168E+03  0.47000000000E+01 0.  1.
         -5    1    4    4    0  502 -0.32829918171E+02  0.14909734937E+02 -0.22949757358E+02  0.42998663767E+02  0.47000000000E+01 0.  1.
          5    1    3    3  503    0 -0.35828497391E+01 -0.51265300468E+02  0.37964250408E+02  0.64065139923E+02  0.47000000000E+01 0.  1.
         -5    1    3    3    0  503  0.36131564453E+02  0.68972572166E+02  0.80978991877E+02  0.11243839552E+03  0.47000000000E+01 0.  1.
<mgrwt>
<rscale>  0 0.13040002E+03</rscale>
<asrwt>0</asrwt>
<pdfrwt beam="2">  1        5 0.98808580E-02 0.13040707E+03</pdfrwt>
<pdfrwt beam="1">  1       -5 0.41171765E-01 0.13040707E+03</pdfrwt>
<totfact> 0.33272508E+02</totfact>
</mgrwt>
</event>
<event>
 8    1  0.1865596E-007  0.1465772E+03  0.7546771E-02  0.1204744E+00
          5   -1    0    0  501    0  0.00000000000E+00  0.00000000000E+00  0.43910953489E+02  0.44161768945E+02  0.47000000000E+01 0. -1.
         -5   -1    0    0    0  501 -0.00000000000E+00 -0.00000000000E+00 -0.49039394703E+03  0.49041646922E+03  0.47000000000E+01 0. -1.
         25    2    1    2    0    0  0.75554645838E+02 -0.12312558567E+02 -0.24333578475E+03  0.28407143443E+03  0.12499668842E+03 0.  0.
         25    2    1    2    0    0 -0.75554645838E+02  0.12312558567E+02 -0.20314720879E+03  0.25050680373E+03  0.12499906668E+03 0.  0.
          5    1    3    3  502    0  0.10231352313E+03  0.19669212366E+02 -0.16482482215E+03  0.19504934485E+03  0.47000000000E+01 0.  1.
         -5    1    3    3    0  502 -0.26758877288E+02 -0.31981770933E+02 -0.78510962593E+02  0.89022089579E+02  0.47000000000E+01 0.  1.
          5    1    4    4  503    0 -0.58164184878E+02  0.47515400080E+02 -0.45417461191E+02  0.87895514267E+02  0.47000000000E+01 0.  1.
         -5    1    4    4    0  503 -0.17390460960E+02 -0.35202841514E+02 -0.15772974760E+03  0.16261128946E+03  0.47000000000E+01 0.  1.
<mgrwt>
<rscale>  0 0.14657667E+03</rscale>
<asrwt>0</asrwt>
<pdfrwt beam="1">  1        5 0.67765576E-02 0.14657718E+03</pdfrwt>
<pdfrwt beam="2">  1       -5 0.75466245E-01 0.14657718E+03</pdfrwt>
<totfact> 0.17841068E+02</totfact>
</mgrwt>
</event>
<event>
 8    1  0.1865596E-007  0.1279154E+03  0.7546771E-02  0.1230583E+00
          5   -1    0    0  501    0  0.00000000000E+00  0.00000000000E+00  0.32138073322E+02  0.32479928523E+02  0.47000000000E+01 0. -1.
         -5   -1    0    0    0  501 -0.00000000000E+00 -0.00000000000E+00 -0.51310509761E+03  0.51312662297E+03  0.47000000000E+01 0. -1.
         25    2    1    2    0    0  0.76637527938E+01  0.26042322141E+02 -0.27241607771E+03  0.30095326440E+03  0.12500164923E+03 0.  0.
         25    2    1    2    0    0 -0.76637527938E+01 -0.26042322141E+02 -0.20855094658E+03  0.24465328709E+03  0.12499919165E+03 0.  0.
          5    1    4    4  502    0 -0.21408558231E+02 -0.73345012941E+02 -0.10559349899E+03  0.13042198556E+03  0.47000000000E+01 0. -1.
         -5    1    4    4    0  502  0.13744805438E+02  0.47302690799E+02 -0.10295744760E+03  0.11423130153E+03  0.47000000000E+01 0. -1.
          5    1    3    3  503    0 -0.26916318775E+02  0.14012084922E+02 -0.26029610708E+03  0.26210108756E+03  0.47000000000E+01 0.  1.
         -5    1    3    3    0  503  0.34580071569E+02  0.12030237219E+02 -0.12119970630E+02  0.38852176841E+02  0.47000000000E+01 0.  1.
<mgrwt>
<rscale>  0 0.12791479E+03</rscale>
<asrwt>0</asrwt>
<pdfrwt beam="1">  1        5 0.49722717E-02 0.12791539E+03</pdfrwt>
<pdfrwt beam="2">  1       -5 0.78967192E-01 0.12791539E+03</pdfrwt>
<totfact> 0.25801645E+02</totfact>
</mgrwt>
</event>
<event>
 8    1  0.1865596E-007  0.1358998E+03  0.7546771E-02  0.1218963E+00
         -5   -1    0    0    0  501 -0.00000000000E+00  0.00000000000E+00  0.25781226013E+02  0.26206136967E+02  0.47000000000E+01 0. -1.
          5   -1    0    0  501    0  0.00000000000E+00 -0.00000000000E+00 -0.76525776399E+03  0.76527219690E+03  0.47000000000E+01 0. -1.
         25    2    1    2    0    0  0.51778464789E+02  0.12714357648E+02 -0.26341375738E+03  0.29640438821E+03  0.12500435781E+03 0.  0.
         25    2    1    2    0    0 -0.51778464789E+02 -0.12714357648E+02 -0.47606278060E+03  0.49507394565E+03  0.12497910339E+03 0.  0.
          5    1    3    3  502    0 -0.33709765911E+02  0.31938612096E+02 -0.71566394824E+02  0.85441571430E+02  0.47000000000E+01 0. -1.
         -5    1    3    3    0  502  0.85488230700E+02 -0.19224254447E+02 -0.19184736255E+03  0.21096281678E+03  0.47000000000E+01 0. -1.
          5    1    4    4  503    0 -0.81026089584E+02  0.12887982918E+02 -0.41102743405E+03  0.41916222258E+03  0.47000000000E+01 0.  1.
         -5    1    4    4    0  503  0.29247624795E+02 -0.25602340566E+02 -0.65035346552E+02  0.75911723072E+02  0.47000000000E+01 0.  1.
<mgrwt>
<rscale>  0 0.13589399E+03</rscale>
<asrwt>0</asrwt>
<pdfrwt beam="2">  1        5 0.11776574E+00 0.13589979E+03</pdfrwt>
<pdfrwt beam="1">  1       -5 0.40001387E-02 0.13589979E+03</pdfrwt>
<totfact> 0.14386446E+02</totfact>
</mgrwt>
</event>
<event>
 8    1  0.1865596E-007  0.1352480E+03  0.7546771E-02  0.1219874E+00
          5   -1    0    0  501    0  0.00000000000E+00  0.00000000000E+00  0.12275108746E+03  0.12284103335E+03  0.47000000000E+01 0. -1.
         -5   -1    0    0    0  501 -0.00000000000E+00 -0.00000000000E+00 -0.15092384284E+03  0.15099700771E+03  0.47000000000E+01 0. -1.
         25    2    1    2    0    0 -0.41253352841E+02  0.30989941932E+02 -0.30236183569E+02  0.13858662583E+03  0.12501924028E+03 0.  0.
         25    2    1    2    0    0  0.41253352841E+02 -0.30989941932E+02  0.20634281929E+01  0.13525141523E+03  0.12500588772E+03 0.  0.
          5    1    4    4  502    0  0.20220034206E-01 -0.33695028107E+01 -0.57380358789E+02  0.57671045879E+02  0.47000000000E+01 0. -1.
         -5    1    4    4    0  502  0.41233132807E+02 -0.27620439122E+02  0.59443786982E+02  0.77580369354E+02  0.47000000000E+01 0. -1.
          5    1    3    3  503    0 -0.75236330727E+02  0.13351443509E+02  0.16165698544E+02  0.78244401170E+02  0.47000000000E+01 0. -1.
         -5    1    3    3    0  503  0.33982977886E+02  0.17638498424E+02 -0.46401882113E+02  0.60342224655E+02  0.47000000000E+01 0. -1.
<mgrwt>
<rscale>  0 0.13524493E+03</rscale>
<asrwt>0</asrwt>
<pdfrwt beam="1">  1        5 0.18897330E-01 0.13524802E+03</pdfrwt>
<pdfrwt beam="2">  1       -5 0.23231600E-01 0.13524802E+03</pdfrwt>
<totfact> 0.32526183E+02</totfact>
</mgrwt>
</event>
<event>
 8    1  0.1865596E-007  0.1513469E+03  0.7546771E-02  0.1198828E+00
         -5   -1    0    0    0  501 -0.00000000000E+00  0.00000000000E+00  0.38479946588E+03  0.38482816807E+03  0.47000000000E+01 0. -1.
          5   -1    0    0  501    0  0.00000000000E+00 -0.00000000000E+00 -0.59866164111E+02  0.60050375564E+02  0.47000000000E+01 0. -1.
         25    2    1    2    0    0  0.17394538441E+02 -0.83536070534E+02  0.14292674574E+03  0.20816802629E+03  0.12500010990E+03 0.  0.
         25    2    1    2    0    0 -0.17394538441E+02  0.83536070534E+02  0.18200655603E+03  0.23671051734E+03  0.12499855013E+03 0.  0.
          5    1    3    3  502    0  0.96948470304E+00  0.31593716004E+02  0.15270720070E+02  0.35417335910E+02  0.47000000000E+01 0.  1.
         -5    1    3    3    0  502  0.16425053738E+02 -0.11512978654E+03  0.12765602567E+03  0.17275069038E+03  0.47000000000E+01 0.  1.
          5    1    4    4  503    0  0.37346140668E+02 -0.12542104150E+02  0.36640971882E+02  0.54006383139E+02  0.47000000000E+01 0.  1.
         -5    1    4    4    0  503 -0.54740679108E+02  0.96078174684E+02  0.14536558414E+03  0.18270413420E+03  0.47000000000E+01 0.  1.
<mgrwt>
<rscale>  0 0.15134654E+03</rscale>
<asrwt>0</asrwt>
<pdfrwt beam="2">  1        5 0.92265573E-02 0.15134686E+03</pdfrwt>
<pdfrwt beam="1">  1       -5 0.59216295E-01 0.15134686E+03</pdfrwt>
<totfact> 0.18262799E+02</totfact>
</mgrwt>
</event>
<event>
 8    1  0.1865596E-007  0.1273579E+03  0.7546771E-02  0.1231434E+00
          5   -1    0    0  501    0  0.00000000000E+00  0.00000000000E+00  0.15193149088E+02  0.15903514681E+02  0.47000000000E+01 0. -1.
         -5   -1    0    0    0  501 -0.00000000000E+00 -0.00000000000E+00 -0.12465081663E+04  0.12465170271E+04  0.47000000000E+01 0. -1.
         25    2    1    2    0    0  0.24242414176E+02  0.31098345932E+01 -0.87098321372E+03  0.88024383516E+03  0.12498033866E+03 0.  0.
         25    2    1    2    0    0 -0.24242414176E+02 -0.31098345932E+01 -0.36033180353E+03  0.38217670657E+03  0.12499064243E+03 0.  0.
          5    1    3    3  502    0  0.33667733340E+02 -0.56784718697E+02 -0.42113655482E+03  0.42630518218E+03  0.47000000000E+01 0. -1.
         -5    1    3    3    0  502 -0.94253191640E+01  0.59894553290E+02 -0.44984665889E+03  0.45393865298E+03  0.47000000000E+01 0. -1.
          5    1    4    4  503    0 -0.26016980648E+02 -0.39110117211E+02 -0.46556366910E+02  0.66302864570E+02  0.47000000000E+01 0.  1.
         -5    1    4    4    0  503  0.17745664726E+01  0.36000282618E+02 -0.31377543662E+03  0.31587384200E+03  0.47000000000E+01 0.  1.
<mgrwt>
<rscale>  0 0.12735534E+03</rscale>
<asrwt>0</asrwt>
<pdfrwt beam="1">  1        5 0.23927336E-02 0.12735787E+03</pdfrwt>
<pdfrwt beam="2">  1       -5 0.19182573E+00 0.12735787E+03</pdfrwt>
<totfact> 0.84684055E+01</totfact>
</mgrwt>
</event>
<event>
 8    1  0.1865596E-007  0.1396215E+03  0.7546771E-02  0.1213841E+00
         -5   -1    0    0    0  501 -0.00000000000E+00  0.00000000000E+00  0.13499820951E+04  0.13499902767E+04  0.47000000000E+01 0. -1.
          5   -1    0    0  501    0  0.00000000000E+00 -0.00000000000E+00 -0.14104534467E+02  0.14867006845E+02  0.47000000000E+01 0. -1.
         25    2    1    2    0    0  0.29313940840E+02  0.54869179427E+02  0.70964251949E+03  0.72324642092E+03  0.12499178343E+03 0.  0.
         25    2    1    2    0    0 -0.29313940840E+02 -0.54869179427E+02  0.62623504117E+03  0.64161086262E+03  0.12499695301E+03 0.  0.
          5    1    4    4  502    0 -0.71363896148E+02 -0.33649818600E+02  0.51030477618E+03  0.51638955311E+03  0.47000000000E+01 0. -1.
         -5    1    4    4    0  502  0.42049955308E+02 -0.21219360827E+02  0.11593026499E+03  0.12522130951E+03  0.47000000000E+01 0. -1.
          5    1    3    3  503    0  0.33915791453E+02 -0.27960091899E+02  0.12206325963E+03  0.12982132722E+03  0.47000000000E+01 0. -1.
         -5    1    3    3    0  503 -0.46018506133E+01  0.82829271326E+02  0.58757925985E+03  0.59342509370E+03  0.47000000000E+01 0. -1.
<mgrwt>
<rscale>  0 0.13962038E+03</rscale>
<asrwt>0</asrwt>
<pdfrwt beam="2">  1        5 0.22292099E-02 0.13962153E+03</pdfrwt>
<pdfrwt beam="1">  1       -5 0.20774879E+00 0.13962153E+03</pdfrwt>
<totfact> 0.76071981E+01</totfact>
</mgrwt>
</event>
<event>
 8    1  0.1865596E-007  0.1520620E+03  0.7546771E-02  0.1197962E+00
          5   -1    0    0  501    0  0.00000000000E+00  0.00000000000E+00  0.17448888078E+03  0.17455216846E+03  0.47000000000E+01 0.  1.
         -5   -1    0    0    0  501 -0.00000000000E+00 -0.00000000000E+00 -0.13516039116E+03  0.13524208420E+03  0.47000000000E+01 0.  1.
         25    2    1    2    0    0 -0.31864214080E+02  0.80523173494E+02 -0.25081118982E+01  0.15208198282E+03  0.12499331689E+03 0.  0.
         25    2    1    2    0    0  0.31864214080E+02 -0.80523173494E+02  0.41836601519E+02  0.15771226984E+03  0.12499419675E+03 0.  0.
          5    1    3    3  502    0  0.99735407171E+01 -0.19824933911E+02  0.30822254332E+02  0.38270104274E+02  0.47000000000E+01 0.  1.
         -5    1    3    3    0  502 -0.41837754797E+02  0.10034810740E+03 -0.33330366230E+02  0.11381187855E+03  0.47000000000E+01 0.  1.
          5    1    4    4  503    0  0.14755579106E+02 -0.98001046929E+02 -0.10481067140E+02  0.99769108858E+02  0.47000000000E+01 0.  1.
         -5    1    4    4    0  503  0.17108634974E+02  0.17477873435E+02  0.52317668658E+02  0.57943160980E+02  0.47000000000E+01 0.  1.
<mgrwt>
<rscale>  0 0.15206184E+03</rscale>
<asrwt>0</asrwt>
<pdfrwt beam="1">  1        5 0.26855596E-01 0.15206202E+03</pdfrwt>
<pdfrwt beam="2">  1       -5 0.20805059E-01 0.15206202E+03</pdfrwt>
<totfact> 0.21417264E+02</totfact>
</mgrwt>
</event>
<event>
 8    1  0.1865596E-007  0.2050476E+03  0.7546771E-02  0.1145549E+00
         -5   -1    0    0    0  501 -0.00000000000E+00  0.00000000000E+00  0.58516796202E+03  0.58518683664E+03  0.47000000000E+01 0. -1.
          5   -1    0    0  501    0  0.00000000000E+00 -0.00000000000E+00 -0.71825908812E+02  0.71979519147E+02  0.47000000000E+01 0. -1.
         25    2    1    2    0    0  0.15923055237E+03 -0.32628860115E+02  0.26709868456E+03  0.33672864654E+03  0.12500185114E+03 0.  0.
         25    2    1    2    0    0 -0.15923055237E+03  0.32628860115E+02  0.24624336865E+03  0.32043770924E+03  0.12500207031E+03 0.  0.
          5    1    3    3  502    0 -0.13068036800E+02  0.79637430812E+01  0.69826516142E+02  0.71638168222E+02  0.47000000000E+01 0.  1.
         -5    1    3    3    0  502  0.17229858917E+03 -0.40592603197E+02  0.19727216842E+03  0.26509047832E+03  0.47000000000E+01 0.  1.
          5    1    4    4  503    0 -0.27653097210E+02 -0.44260572160E+02  0.68925060231E+02  0.86582018694E+02  0.47000000000E+01 0. -1.
         -5    1    4    4    0  503 -0.13157745516E+03  0.76889432276E+02  0.17731830842E+03  0.23385569055E+03  0.47000000000E+01 0. -1.
<mgrwt>
<rscale>  0 0.20504759E+03</rscale>
<asrwt>0</asrwt>
<pdfrwt beam="2">  1        5 0.11063408E-01 0.20504763E+03</pdfrwt>
<pdfrwt beam="1">  1       -5 0.90039111E-01 0.20504763E+03</pdfrwt>
<totfact> 0.55670728E+01</totfact>
</mgrwt>
</event>
<event>
 8    1  0.1865596E-007  0.1767569E+03  0.7546771E-02  0.1170983E+00
         -5   -1    0    0    0  501 -0.00000000000E+00  0.00000000000E+00  0.28085869709E+02  0.28476412648E+02  0.47000000000E+01 0. -1.
          5   -1    0    0  501    0  0.00000000000E+00 -0.00000000000E+00 -0.11422634665E+04  0.11422731358E+04  0.47000000000E+01 0. -1.
         25    2    1    2    0    0  0.17212413710E+02  0.12376956789E+03 -0.45033473305E+03  0.48378132089E+03  0.12501128559E+03 0.  0.
         25    2    1    2    0    0 -0.17212413710E+02 -0.12376956789E+03 -0.66384286371E+03  0.68696822759E+03  0.12499129927E+03 0.  0.
          5    1    4    4  502    0 -0.57217732840E+02 -0.66116401654E+02 -0.51444267892E+03  0.52184155393E+03  0.47000000000E+01 0.  1.
         -5    1    4    4    0  502  0.40005319130E+02 -0.57653166239E+02 -0.14940018480E+03  0.16512667366E+03  0.47000000000E+01 0.  1.
          5    1    3    3  503    0  0.27143201224E+02 -0.11785146756E+02 -0.16493667161E+03  0.16763603043E+03  0.47000000000E+01 0. -1.
         -5    1    3    3    0  503 -0.99307875135E+01  0.13555471465E+03 -0.28539806145E+03  0.31614529046E+03  0.47000000000E+01 0. -1.
<mgrwt>
<rscale>  0 0.17675335E+03</rscale>
<asrwt>0</asrwt>
<pdfrwt beam="2">  1        5 0.17576359E+00 0.17675688E+03</pdfrwt>
<pdfrwt beam="1">  1       -5 0.43516895E-02 0.17675688E+03</pdfrwt>
<totfact> 0.45659281E+01</totfact>
</mgrwt>
</event>
<event>
 8    1  0.1865596E-007  0.1326891E+03  0.7546771E-02  0.1223527E+00
          5   -1    0    0  501    0  0.00000000000E+00  0.00000000000E+00  0.40465036509E+02  0.40737073774E+02  0.47000000000E+01 0. -1.
         -5   -1    0    0    0  501 -0.00000000000E+00 -0.00000000000E+00 -0.45643964547E+03  0.45646384299E+03  0.47000000000E+01 0. -1.
         25    2    1    2    0    0  0.12275803713E+02 -0.42792781075E+02 -0.26394268559E+03  0.29540870206E+03  0.12497456745E+03 0.  0.
         25    2    1    2    0    0 -0.12275803713E+02  0.42792781075E+02 -0.15203192338E+03  0.20179221471E+03  0.12499789887E+03 0.  0.
          5    1    4    4  502    0 -0.60828009597E+02  0.20839786049E+02 -0.35566855086E+02  0.73630391923E+02  0.47000000000E+01 0. -1.
         -5    1    4    4    0  502  0.48552205884E+02  0.21952995026E+02 -0.11646506829E+03  0.12816182278E+03  0.47000000000E+01 0. -1.
          5    1    3    3  503    0 -0.29517320250E+02 -0.71107801041E+02 -0.19602049184E+03  0.21065069377E+03  0.47000000000E+01 0. -1.
         -5    1    3    3    0  503  0.41793123963E+02  0.28315019966E+02 -0.67922193744E+02  0.84758008290E+02  0.47000000000E+01 0. -1.
<mgrwt>
<rscale>  0 0.13268359E+03</rscale>
<asrwt>0</asrwt>
<pdfrwt beam="1">  1        5 0.62481778E-02 0.13268908E+03</pdfrwt>
<pdfrwt beam="2">  1       -5 0.70244268E-01 0.13268908E+03</pdfrwt>
<totfact> 0.23301043E+02</totfact>
</mgrwt>
</event>
<event>
 8    1  0.1865596E-007  0.1580321E+03  0.7546771E-02  0.1190937E+00
         -5   -1    0    0    0  501 -0.00000000000E+00  0.00000000000E+00  0.14679952769E+03  0.14687474708E+03  0.47000000000E+01 0. -1.
          5   -1    0    0  501    0  0.00000000000E+00 -0.00000000000E+00 -0.40557961698E+03  0.40560684869E+03  0.47000000000E+01 0. -1.
         25    2    1    2    0    0 -0.79181895421E+02  0.55492849106E+02  0.81122846488E+02  0.17763741984E+03  0.12499963136E+03 0.  0.
         25    2    1    2    0    0  0.79181895421E+02 -0.55492849106E+02 -0.33990293577E+03  0.37484417594E+03  0.12499968649E+03 0.  0.
          5    1    4    4  502    0  0.80069936027E+02 -0.16628328846E+02 -0.89213577434E+02  0.12111502126E+03  0.47000000000E+01 0.  1.
         -5    1    4    4    0  502 -0.88804060537E+00 -0.38864520260E+02 -0.25068935834E+03  0.25372915468E+03  0.47000000000E+01 0.  1.
          5    1    3    3  503    0  0.27309315516E+02  0.35026947517E+02  0.44592795799E+02  0.63113336178E+02  0.47000000000E+01 0. -1.
         -5    1    3    3    0  503 -0.10649121094E+03  0.20465901589E+02  0.36530050688E+02  0.11452408366E+03  0.47000000000E+01 0. -1.
<mgrwt>
<rscale>  0 0.15803211E+03</rscale>
<asrwt>0</asrwt>
<pdfrwt beam="2">  1        5 0.62404745E-01 0.15803212E+03</pdfrwt>
<pdfrwt beam="1">  1       -5 0.22592424E-01 0.15803212E+03</pdfrwt>
<totfact> 0.32595303E+01</totfact>
</mgrwt>
</event>
<event>
 8    1  0.1865596E-007  0.1577659E+03  0.7546771E-02  0.1191243E+00
          5   -1    0    0  501    0  0.00000000000E+00  0.00000000000E+00  0.51767582765E+03  0.51769716296E+03  0.47000000000E+01 0. -1.
         -5   -1    0    0    0  501 -0.00000000000E+00 -0.00000000000E+00 -0.48287385414E+02  0.48515580900E+02  0.47000000000E+01 0. -1.
         25    2    1    2    0    0  0.94120851872E+01  0.95799268392E+02  0.25857184985E+03  0.30289980079E+03  0.12499120216E+03 0.  0.
         25    2    1    2    0    0 -0.94120851872E+01 -0.95799268392E+02  0.21081659239E+03  0.26331294306E+03  0.12499593267E+03 0.  0.
          5    1    4    4  502    0  0.50177472593E+02 -0.63064002842E+02  0.69912505553E+02  0.10679276962E+03  0.47000000000E+01 0.  1.
         -5    1    4    4    0  502 -0.59589557780E+02 -0.32735265550E+02  0.14090408684E+03  0.15652017344E+03  0.47000000000E+01 0.  1.
          5    1    3    3  503    0 -0.82681410079E+01  0.47736534689E+02  0.24489514785E+03  0.24968552689E+03  0.47000000000E+01 0. -1.
         -5    1    3    3    0  503  0.17680226195E+02  0.48062733703E+02  0.13676701996E+02  0.53214273900E+02  0.47000000000E+01 0. -1.
<mgrwt>
<rscale>  0 0.15776493E+03</rscale>
<asrwt>0</asrwt>
<pdfrwt beam="1">  1        5 0.79661636E-01 0.15776587E+03</pdfrwt>
<pdfrwt beam="2">  1       -5 0.74480226E-02 0.15776587E+03</pdfrwt>
<totfact> 0.13730307E+02</totfact>
</mgrwt>
</event>
<event>
 8    1  0.1865596E-007  0.1500275E+03  0.7546771E-02  0.1200452E+00
          5   -1    0    0  501    0  0.00000000000E+00  0.00000000000E+00  0.42460958937E+03  0.42463560070E+03  0.47000000000E+01 0. -1.
         -5   -1    0    0    0  501 -0.00000000000E+00 -0.00000000000E+00 -0.53129629585E+02  0.53337112219E+02  0.47000000000E+01 0. -1.
         25    2    1    2    0    0 -0.82735362011E+02  0.50092597549E+01  0.16880135207E+03  0.22580834725E+03  0.12500112165E+03 0.  0.
         25    2    1    2    0    0  0.82735362011E+02 -0.50092597549E+01  0.20267860771E+03  0.25216436568E+03  0.12505205509E+03 0.  0.
          5    1    4    4  502    0  0.89775805121E+02 -0.47638513389E+02  0.16866669703E+03  0.19697631287E+03  0.47000000000E+01 0. -1.
         -5    1    4    4    0  502 -0.70404431103E+01  0.42629253634E+02  0.34011910679E+02  0.55188052807E+02  0.47000000000E+01 0. -1.
          5    1    3    3  503    0 -0.87284170161E+02 -0.29474469356E+01  0.39276570506E+02  0.95874672332E+02  0.47000000000E+01 0.  1.
         -5    1    3    3    0  503  0.45488081498E+01  0.79567066904E+01  0.12952478157E+03  0.12993367491E+03  0.47000000000E+01 0.  1.
<mgrwt>
<rscale>  0 0.15001688E+03</rscale>
<asrwt>0</asrwt>
<pdfrwt beam="1">  1        5 0.65342515E-01 0.15002750E+03</pdfrwt>
<pdfrwt beam="2">  1       -5 0.81917501E-02 0.15002750E+03</pdfrwt>
<totfact> 0.17999386E+02</totfact>
</mgrwt>
</event>
<event>
 8    1  0.1865596E-007  0.1331534E+03  0.7546771E-02  0.1222856E+00
          5   -1    0    0  501    0  0.00000000000E+00  0.00000000000E+00  0.96171834708E+02  0.96286612731E+02  0.47000000000E+01 0.  1.
         -5   -1    0    0    0  501 -0.00000000000E+00 -0.00000000000E+00 -0.20392321214E+03  0.20397736749E+03  0.47000000000E+01 0.  1.
         25    2    1    2    0    0  0.34628476416E+02  0.30020980736E+02 -0.10069170171E+03  0.16693905295E+03  0.12501775052E+03 0.  0.
         25    2    1    2    0    0 -0.34628476416E+02 -0.30020980736E+02 -0.70596757235E+01  0.13332492727E+03  0.12500122618E+03 0.  0.
          5    1    3    3  502    0 -0.58560009427E+01 -0.32460531395E+02 -0.84181169000E+02  0.90534733995E+02  0.47000000000E+01 0. -1.
         -5    1    3    3    0  502  0.40484477359E+02  0.62481512131E+02 -0.16510532706E+02  0.76404318958E+02  0.47000000000E+01 0. -1.
          5    1    4    4  503    0 -0.38428733434E+01 -0.71997975544E+02 -0.27350547567E+02  0.77256835363E+02  0.47000000000E+01 0.  1.
         -5    1    4    4    0  503 -0.30785603073E+02  0.41976994808E+02  0.20290871844E+02  0.56068091905E+02  0.47000000000E+01 0.  1.
<mgrwt>
<rscale>  0 0.13314952E+03</rscale>
<asrwt>0</asrwt>
<pdfrwt beam="1">  1        5 0.14808662E-01 0.13315340E+03</pdfrwt>
<pdfrwt beam="2">  1       -5 0.31385797E-01 0.13315340E+03</pdfrwt>
<totfact> 0.28239671E+02</totfact>
</mgrwt>
</event>
<event>
 8    1  0.1865596E-007  0.2947988E+03  0.7546771E-02  0.1087870E+00
         -5   -1    0    0    0  501 -0.00000000000E+00  0.00000000000E+00  0.85930589540E+02  0.86059027526E+02  0.47000000000E+01 0.  1.
          5   -1    0    0  501    0  0.00000000000E+00 -0.00000000000E+00 -0.10282736878E+04  0.10282844291E+04  0.47000000000E+01 0.  1.
         25    2    1    2    0    0  0.25527134111E+03  0.78215736059E+02 -0.54449993686E+03  0.61918133031E+03  0.12499671840E+03 0.  0.
         25    2    1    2    0    0 -0.25527134111E+03 -0.78215736059E+02 -0.39784316144E+03  0.49516212630E+03  0.12500076504E+03 0.  0.
          5    1    4    4  502    0 -0.12944055012E+03  0.22317584928E+02 -0.20931586291E+03  0.24716017292E+03  0.47000000000E+01 0. -1.
         -5    1    4    4    0  502 -0.12583079099E+03 -0.10053332099E+03 -0.18852729853E+03  0.24800195338E+03  0.47000000000E+01 0. -1.
          5    1    3    3  503    0  0.23665172082E+02  0.26121033924E+02 -0.14455456302E+02  0.38384879834E+02  0.47000000000E+01 0.  1.
         -5    1    3    3    0  503  0.23160616902E+03  0.52094702135E+02 -0.53004448056E+03  0.58079645048E+03  0.47000000000E+01 0.  1.
<mgrwt>
<rscale>  0 0.29479840E+03</rscale>
<asrwt>0</asrwt>
<pdfrwt beam="2">  1        5 0.15820665E+00 0.29479883E+03</pdfrwt>
<pdfrwt beam="1">  1       -5 0.13230797E-01 0.29479883E+03</pdfrwt>
<totfact> 0.10151655E+01</totfact>
</mgrwt>
</event>
<event>
 8    1  0.1865596E-007  0.1370737E+03  0.7546771E-02  0.1217324E+00
          5   -1    0    0  501    0  0.00000000000E+00  0.00000000000E+00  0.20024877894E+03  0.20030392774E+03  0.47000000000E+01 0.  1.
         -5   -1    0    0    0  501 -0.00000000000E+00 -0.00000000000E+00 -0.93881076618E+02  0.93998651836E+02  0.47000000000E+01 0.  1.
         25    2    1    2    0    0  0.27030351423E+02  0.49321929706E+02  0.46690709836E+02  0.14480750026E+03  0.12500358835E+03 0.  0.
         25    2    1    2    0    0 -0.27030351423E+02 -0.49321929706E+02  0.59676992487E+02  0.14949507931E+03  0.12499657058E+03 0.  0.
          5    1    3    3  502    0 -0.40805157305E+02  0.48916651513E+02  0.29259436807E+01  0.63941776675E+02  0.47000000000E+01 0.  1.
         -5    1    3    3    0  502  0.67835508728E+02  0.40527819307E+00  0.43764766155E+02  0.80865723588E+02  0.47000000000E+01 0.  1.
          5    1    4    4  503    0 -0.25342338180E+02 -0.46042728203E+02 -0.29274759788E+02  0.60342924071E+02  0.47000000000E+01 0.  1.
         -5    1    4    4    0  503 -0.16880132430E+01 -0.32792015037E+01  0.88951752275E+02  0.89152155240E+02  0.47000000000E+01 0.  1.
<mgrwt>
<rscale>  0 0.13707207E+03</rscale>
<asrwt>0</asrwt>
<pdfrwt beam="1">  1        5 0.30820791E-01 0.13707367E+03</pdfrwt>
<pdfrwt beam="2">  1       -5 0.14456529E-01 0.13707367E+03</pdfrwt>
<totfact> 0.30874989E+02</totfact>
</mgrwt>
</event>
<event>
 8    1  0.1865596E-007  0.1669650E+03  0.7546771E-02  0.1181051E+00
         -5   -1    0    0    0  501 -0.00000000000E+00  0.00000000000E+00  0.81960349979E+03  0.81961697571E+03  0.47000000000E+01 0. -1.
          5   -1    0    0  501    0  0.00000000000E+00 -0.00000000000E+00 -0.37805581849E+02  0.38096614272E+02  0.47000000000E+01 0. -1.
         25    2    1    2    0    0 -0.85233490800E+02 -0.70613794961E+02  0.52927035840E+03  0.55498023815E+03  0.12499958587E+03 0.  0.
         25    2    1    2    0    0  0.85233490800E+02  0.70613794961E+02  0.25252755954E+03  0.30273335183E+03  0.12500503185E+03 0.  0.
          5    1    4    4  502    0 -0.23950792650E+02  0.36793153094E+01  0.68123837647E+01  0.25606178986E+02  0.47000000000E+01 0.  1.
         -5    1    4    4    0  502  0.10918428345E+03  0.66934479651E+02  0.24571517578E+03  0.27712717284E+03  0.47000000000E+01 0.  1.
          5    1    3    3  503    0 -0.83211984319E+02 -0.96997806193E+00  0.17427009772E+03  0.19317694518E+03  0.47000000000E+01 0.  1.
         -5    1    3    3    0  503 -0.20215064805E+01 -0.69643816899E+02  0.35500026068E+03  0.36180329297E+03  0.47000000000E+01 0.  1.
<mgrwt>
<rscale>  0 0.16696399E+03</rscale>
<asrwt>0</asrwt>
<pdfrwt beam="2">  1        5 0.58396676E-02 0.16696501E+03</pdfrwt>
<pdfrwt beam="1">  1       -5 0.12611626E+00 0.16696501E+03</pdfrwt>
<totfact> 0.68537279E+01</totfact>
</mgrwt>
</event>
<event>
 8    1  0.1865596E-007  0.1291329E+03  0.7546771E-02  0.1228749E+00
          5   -1    0    0  501    0  0.00000000000E+00  0.00000000000E+00  0.37122023024E+03  0.37124998227E+03  0.47000000000E+01 0. -1.
         -5   -1    0    0    0  501 -0.00000000000E+00 -0.00000000000E+00 -0.45701884007E+02  0.45942923305E+02  0.47000000000E+01 0. -1.
         25    2    1    2    0    0 -0.17469699853E+02  0.27272870128E+02  0.13297534670E+03  0.18535648616E+03  0.12500233708E+03 0.  0.
         25    2    1    2    0    0  0.17469699853E+02 -0.27272870128E+02  0.19254299953E+03  0.23183641941E+03  0.12500527524E+03 0.  0.
          5    1    3    3  502    0 -0.30961907547E+02  0.47171016627E+02  0.14672118071E+03  0.15726709572E+03  0.47000000000E+01 0. -1.
         -5    1    3    3    0  502  0.13492207694E+02 -0.19898146498E+02 -0.13745834014E+02  0.28089390440E+02  0.47000000000E+01 0. -1.
          5    1    4    4  503    0 -0.51724041257E+02  0.33385772207E+01  0.62726852170E+02  0.81506260649E+02  0.47000000000E+01 0.  1.
         -5    1    4    4    0  503  0.69193741110E+02 -0.30611447349E+02  0.12981614736E+03  0.15033015876E+03  0.47000000000E+01 0.  1.
<mgrwt>
<rscale>  0 0.12913224E+03</rscale>
<asrwt>0</asrwt>
<pdfrwt beam="1">  1        5 0.57131637E-01 0.12913295E+03</pdfrwt>
<pdfrwt beam="2">  1       -5 0.70518889E-02 0.12913295E+03</pdfrwt>
<totfact> 0.29681474E+02</totfact>
</mgrwt>
</event>
<event>
 8    1  0.1865596E-007  0.1745804E+03  0.7546771E-02  0.1173154E+00
         -5   -1    0    0    0  501 -0.00000000000E+00  0.00000000000E+00  0.29859343542E+02  0.30226981272E+02  0.47000000000E+01 0. -1.
          5   -1    0    0  501    0  0.00000000000E+00 -0.00000000000E+00 -0.14728273144E+04  0.14728348136E+04  0.47000000000E+01 0. -1.
         25    2    1    2    0    0  0.10266521555E+03 -0.65673554031E+02 -0.30212352954E+03  0.34893688826E+03  0.12500065083E+03 0.  0.
         25    2    1    2    0    0 -0.10266521555E+03  0.65673554031E+02 -0.11408444413E+04  0.11541249066E+04  0.12500039398E+03 0.  0.
          5    1    4    4  502    0 -0.13054511405E+03  0.65836953310E+02 -0.96297388550E+03  0.97402121403E+03  0.47000000000E+01 0.  1.
         -5    1    4    4    0  502  0.27879898500E+02 -0.16339927843E+00 -0.17787055582E+03  0.18010369254E+03  0.47000000000E+01 0.  1.
          5    1    3    3  503    0  0.13230573613E+02  0.69038880684E+01  0.83637825317E+01  0.17741324833E+02  0.47000000000E+01 0. -1.
         -5    1    3    3    0  503  0.89434641936E+02 -0.72577442100E+02 -0.31048731207E+03  0.33119556343E+03  0.47000000000E+01 0. -1.
<mgrwt>
<rscale>  0 0.17458038E+03</rscale>
<asrwt>0</asrwt>
<pdfrwt beam="2">  1        5 0.22661762E+00 0.17458043E+03</pdfrwt>
<pdfrwt beam="1">  1       -5 0.46226030E-02 0.17458043E+03</pdfrwt>
<totfact> 0.18517873E+01</totfact>
</mgrwt>
</event>
<event>
 8    1  0.1865596E-007  0.1345785E+03  0.7546771E-02  0.1220846E+00
          5   -1    0    0  501    0  0.00000000000E+00  0.00000000000E+00  0.11631229478E+02  0.12544939185E+02  0.47000000000E+01 0.  1.
         -5   -1    0    0    0  501 -0.00000000000E+00 -0.00000000000E+00 -0.17103630305E+04  0.17103694882E+04  0.47000000000E+01 0.  1.
         25    2    1    2    0    0  0.49613293191E+02  0.13081467197E+01 -0.11541945067E+04  0.11620139167E+04  0.12509273877E+03 0.  0.
         25    2    1    2    0    0 -0.49613293191E+02 -0.13081467197E+01 -0.54453729435E+03  0.56090051065E+03  0.12500131121E+03 0.  0.
          5    1    3    3  502    0  0.64327874574E+02  0.36384547157E+02 -0.10132086607E+04  0.10159113105E+04  0.47000000000E+01 0. -1.
         -5    1    3    3    0  502 -0.14714581383E+02 -0.35076400437E+02 -0.14098584600E+03  0.14610260622E+03  0.47000000000E+01 0. -1.
          5    1    4    4  503    0 -0.65582420925E+02 -0.59021518211E+01 -0.12813919880E+03  0.14414448862E+03  0.47000000000E+01 0.  1.
         -5    1    4    4    0  503  0.15969127734E+02  0.45940051015E+01 -0.41639809555E+03  0.41675602203E+03  0.47000000000E+01 0.  1.
<mgrwt>
<rscale>  0 0.13455729E+03</rscale>
<asrwt>0</asrwt>
<pdfrwt beam="1">  1        5 0.18602034E-02 0.13457854E+03</pdfrwt>
<pdfrwt beam="2">  1       -5 0.26320336E+00 0.13457854E+03</pdfrwt>
<totfact> 0.44199236E+01</totfact>
</mgrwt>
</event>
<event>
 8    1  0.1865596E-007  0.1301268E+03  0.7546771E-02  0.1227268E+00
          5   -1    0    0  501    0  0.00000000000E+00  0.00000000000E+00  0.12418932385E+04  0.12419021322E+04  0.47000000000E+01 0.  1.
         -5   -1    0    0    0  501 -0.00000000000E+00 -0.00000000000E+00 -0.13395828315E+02  0.14196415612E+02  0.47000000000E+01 0.  1.
         25    2    1    2    0    0  0.89878268380E+01 -0.35039673994E+02  0.54448158206E+03  0.55981531275E+03  0.12499772560E+03 0.  0.
         25    2    1    2    0    0 -0.89878268380E+01  0.35039673994E+02  0.68401582814E+03  0.69628323502E+03  0.12499652171E+03 0.  0.
          5    1    4    4  502    0 -0.23598513985E+02 -0.12926948402E+01  0.20616899106E+02  0.31712890928E+02  0.47000000000E+01 0. -1.
         -5    1    4    4    0  502  0.14610687147E+02  0.36332368834E+02  0.66339892903E+03  0.66457034409E+03  0.47000000000E+01 0. -1.
          5    1    3    3  503    0  0.46897603976E+02  0.25523414855E+02  0.31152995846E+03  0.31610731561E+03  0.47000000000E+01 0.  1.
         -5    1    3    3    0  503 -0.37909777137E+02 -0.60563088849E+02  0.23295162360E+03  0.24370799714E+03  0.47000000000E+01 0.  1.
<mgrwt>
<rscale>  0 0.13012654E+03</rscale>
<asrwt>0</asrwt>
<pdfrwt beam="1">  1        5 0.19112270E+00 0.13012683E+03</pdfrwt>
<pdfrwt beam="2">  1       -5 0.21231652E-02 0.13012683E+03</pdfrwt>
<totfact> 0.10427976E+02</totfact>
</mgrwt>
</event>
<event>
 8    1  0.1865596E-007  0.1347943E+03  0.7546771E-02  0.1220513E+00
         -5   -1    0    0    0  501 -0.00000000000E+00  0.00000000000E+00  0.55727010603E+02  0.55924857717E+02  0.47000000000E+01 0. -1.
          5   -1    0    0  501    0  0.00000000000E+00 -0.00000000000E+00 -0.35069337049E+03  0.35072486383E+03  0.47000000000E+01 0. -1.
         25    2    1    2    0    0  0.50411229982E+02  0.17304785232E+01 -0.92714959818E+02  0.16359597286E+03  0.12499316740E+03 0.  0.
         25    2    1    2    0    0 -0.50411229982E+02 -0.17304785232E+01 -0.20225140007E+03  0.24305374869E+03  0.12500083702E+03 0.  0.
          5    1    3    3  502    0  0.67915006692E+02  0.41448855184E+02 -0.89462650639E+02  0.11981699207E+03  0.47000000000E+01 0.  1.
         -5    1    3    3    0  502 -0.17503776710E+02 -0.39718376661E+02 -0.32523091785E+01  0.43778980786E+02  0.47000000000E+01 0.  1.
          5    1    4    4  503    0 -0.58742561735E+02 -0.49300061503E+02 -0.16455894964E+03  0.18161201097E+03  0.47000000000E+01 0. -1.
         -5    1    4    4    0  503  0.83313317524E+01  0.47569582980E+02 -0.37692450435E+02  0.61441737715E+02  0.47000000000E+01 0. -1.
<mgrwt>
<rscale>  0 0.13479249E+03</rscale>
<asrwt>0</asrwt>
<pdfrwt beam="2">  1        5 0.53970466E-01 0.13479427E+03</pdfrwt>
<pdfrwt beam="1">  1       -5 0.85910281E-02 0.13479427E+03</pdfrwt>
<totfact> 0.24307990E+02</totfact>
</mgrwt>
</event>
<event>
 8    1  0.1865596E-007  0.1302963E+03  0.7546771E-02  0.1227018E+00
          5   -1    0    0  501    0  0.00000000000E+00  0.00000000000E+00  0.22525247342E+02  0.23010362184E+02  0.47000000000E+01 0. -1.
         -5   -1    0    0    0  501 -0.00000000000E+00 -0.00000000000E+00 -0.85596619122E+03  0.85597909467E+03  0.47000000000E+01 0. -1.
         25    2    1    2    0    0  0.31443852655E+02 -0.19060394122E+02 -0.57480494550E+03  0.58938680038E+03  0.12499624233E+03 0.  0.
         25    2    1    2    0    0 -0.31443852655E+02  0.19060394122E+02 -0.25863599838E+03  0.28960265647E+03  0.12500041794E+03 0.  0.
          5    1    3    3  502    0  0.18110437778E+02  0.50244353602E+02 -0.33860859080E+03  0.34282699833E+03  0.47000000000E+01 0. -1.
         -5    1    3    3    0  502  0.13333414877E+02 -0.69304747724E+02 -0.23619635471E+03  0.24655980205E+03  0.47000000000E+01 0. -1.
          5    1    4    4  503    0 -0.35803979926E+02 -0.57973008885E+00 -0.26541346385E+03  0.26785939942E+03  0.47000000000E+01 0.  1.
         -5    1    4    4    0  503  0.43601272714E+01  0.19640124211E+02  0.67774654755E+01  0.21743257050E+02  0.47000000000E+01 0.  1.
<mgrwt>
<rscale>  0 0.13029527E+03</rscale>
<asrwt>0</asrwt>
<pdfrwt beam="1">  1        5 0.35037324E-02 0.13029627E+03</pdfrwt>
<pdfrwt beam="2">  1       -5 0.13172539E+00 0.13029627E+03</pdfrwt>
<totfact> 0.13205132E+02</totfact>
</mgrwt>
</event>
<event>
 8    1  0.1865596E-007  0.1320361E+03  0.7546771E-02  0.1224467E+00
         -5   -1    0    0    0  501 -0.00000000000E+00  0.00000000000E+00  0.39226940004E+03  0.39229755570E+03  0.47000000000E+01 0.  1.
          5   -1    0    0  501    0  0.00000000000E+00 -0.00000000000E+00 -0.45468977792E+02  0.45711245240E+02  0.47000000000E+01 0.  1.
         25    2    1    2    0    0 -0.40118220623E+02 -0.14103588660E+02  0.20859866033E+03  0.24687206896E+03  0.12499613794E+03 0.  0.
         25    2    1    2    0    0  0.40118220623E+02  0.14103588660E+02  0.13820176192E+03  0.19113673199E+03  0.12500056191E+03 0.  0.
          5    1    3    3  502    0 -0.77460223307E+02  0.21106173649E+02  0.12314121056E+03  0.14707618603E+03  0.47000000000E+01 0. -1.
         -5    1    3    3    0  502  0.37342002684E+02 -0.35209762310E+02  0.85457449773E+02  0.99795882922E+02  0.47000000000E+01 0. -1.
          5    1    4    4  503    0 -0.37847965127E+02  0.22629565403E+02  0.86130591876E+02  0.96876904119E+02  0.47000000000E+01 0.  1.
         -5    1    4    4    0  503  0.77966185751E+02 -0.85259767430E+01  0.52071170046E+02  0.94259827869E+02  0.47000000000E+01 0.  1.
<mgrwt>
<rscale>  0 0.13203502E+03</rscale>
<asrwt>0</asrwt>
<pdfrwt beam="2">  1        5 0.70160295E-02 0.13203607E+03</pdfrwt>
<pdfrwt beam="1">  1       -5 0.60369937E-01 0.13203607E+03</pdfrwt>
<totfact> 0.26766120E+02</totfact>
</mgrwt>
</event>
<event>
 8    1  0.1865596E-007  0.1509707E+03  0.7546771E-02  0.1199292E+00
         -5   -1    0    0    0  501 -0.00000000000E+00  0.00000000000E+00  0.70014372156E+03  0.70015949671E+03  0.47000000000E+01 0.  1.
          5   -1    0    0  501    0  0.00000000000E+00 -0.00000000000E+00 -0.38469304698E+02  0.38755353230E+02  0.47000000000E+01 0.  1.
         25    2    1    2    0    0  0.84561370296E+02  0.29794344323E+01  0.47738879674E+03  0.50068527537E+03  0.12500471727E+03 0.  0.
         25    2    1    2    0    0 -0.84561370296E+02 -0.29794344323E+01  0.18428562012E+03  0.23822957458E+03  0.12503054844E+03 0.  0.
          5    1    4    4  502    0 -0.39574569690E+02 -0.42221011533E+02  0.16920444081E+02  0.60474389694E+02  0.47000000000E+01 0.  1.
         -5    1    4    4    0  502 -0.44986800607E+02  0.39241577101E+02  0.16736517604E+03  0.17775518488E+03  0.47000000000E+01 0.  1.
          5    1    3    3  503    0 -0.30340719951E+02 -0.15383249128E+02  0.99511855049E+02  0.10527061763E+03  0.47000000000E+01 0.  1.
         -5    1    3    3    0  503  0.11490209025E+03  0.18362683560E+02  0.37787694169E+03  0.39541465774E+03  0.47000000000E+01 0.  1.
<mgrwt>
<rscale>  0 0.15096531E+03</rscale>
<asrwt>0</asrwt>
<pdfrwt beam="2">  1        5 0.59415719E-02 0.15097066E+03</pdfrwt>
<pdfrwt beam="1">  1       -5 0.10773763E+00 0.15097066E+03</pdfrwt>
<totfact> 0.96330835E+01</totfact>
</mgrwt>
</event>
<event>
 8    1  0.1865596E-007  0.1379678E+03  0.7546771E-02  0.1216111E+00
          5   -1    0    0  501    0  0.00000000000E+00  0.00000000000E+00  0.32086349635E+02  0.32428750098E+02  0.47000000000E+01 0. -1.
         -5   -1    0    0    0  501 -0.00000000000E+00 -0.00000000000E+00 -0.60226503748E+03  0.60228337630E+03  0.47000000000E+01 0. -1.
         25    2    1    2    0    0  0.49340280177E+01  0.58053051716E+02 -0.33136728988E+03  0.35894203067E+03  0.12506238095E+03 0.  0.
         25    2    1    2    0    0 -0.49340280177E+01 -0.58053051716E+02 -0.23881139796E+03  0.27577009574E+03  0.12499504174E+03 0.  0.
          5    1    3    3  502    0  0.54633396247E+02  0.82638834863E+01 -0.22197394101E+03  0.22879602322E+03  0.47000000000E+01 0. -1.
         -5    1    3    3    0  502 -0.49699368229E+02  0.49789168229E+02 -0.10939334888E+03  0.13014600744E+03  0.47000000000E+01 0. -1.
          5    1    4    4  503    0 -0.46956622687E+02  0.64232338814E+01 -0.38864278537E+02  0.61471167989E+02  0.47000000000E+01 0.  1.
         -5    1    4    4    0  503  0.42022594670E+02 -0.64476285597E+02 -0.19994711943E+03  0.21429892775E+03  0.47000000000E+01 0.  1.
<mgrwt>
<rscale>  0 0.13795249E+03</rscale>
<asrwt>0</asrwt>
<pdfrwt beam="1">  1        5 0.49641111E-02 0.13796775E+03</pdfrwt>
<pdfrwt beam="2">  1       -5 0.92683901E-01 0.13796775E+03</pdfrwt>
<totfact> 0.18239809E+02</totfact>
</mgrwt>
</event>
<event>
 8    1  0.1865596E-007  0.1628512E+03  0.7546771E-02  0.1185516E+00
         -5   -1    0    0    0  501 -0.00000000000E+00  0.00000000000E+00  0.16737506959E+02  0.17384882491E+02  0.47000000000E+01 0.  1.
          5   -1    0    0  501    0  0.00000000000E+00 -0.00000000000E+00 -0.17822600519E+04  0.17822662490E+04  0.47000000000E+01 0.  1.
         25    2    1    2    0    0 -0.10322254537E+03 -0.15489895285E+02 -0.56061111163E+03  0.58378433718E+03  0.12499801249E+03 0.  0.
         25    2    1    2    0    0  0.10322254537E+03  0.15489895285E+02 -0.12049114333E+04  0.12158667943E+04  0.12500267533E+03 0.  0.
          5    1    3    3  502    0 -0.55177176663E+01 -0.19447418218E+02 -0.74867617081E+01  0.22063292693E+02  0.47000000000E+01 0. -1.
         -5    1    3    3    0  502 -0.97704827703E+02  0.39575229333E+01 -0.55312434992E+03  0.56172104449E+03  0.47000000000E+01 0. -1.
          5    1    4    4  503    0  0.88586626194E+02  0.65650653376E+02 -0.80642078789E+03  0.81393745200E+03  0.47000000000E+01 0. -1.
         -5    1    4    4    0  503  0.14635919175E+02 -0.50160758091E+02 -0.39849064538E+03  0.40192934234E+03  0.47000000000E+01 0. -1.
<mgrwt>
<rscale>  0 0.16285026E+03</rscale>
<asrwt>0</asrwt>
<pdfrwt beam="2">  1        5 0.27424398E+00 0.16285116E+03</pdfrwt>
<pdfrwt beam="1">  1       -5 0.26252773E-02 0.16285116E+03</pdfrwt>
<totfact> 0.22789520E+01</totfact>
</mgrwt>
</event>
<event>
 8    1  0.1865596E-007  0.1790087E+03  0.7546771E-02  0.1168766E+00
         -5   -1    0    0    0  501 -0.00000000000E+00  0.00000000000E+00  0.64744276423E+02  0.64914646495E+02  0.47000000000E+01 0. -1.
          5   -1    0    0  501    0  0.00000000000E+00 -0.00000000000E+00 -0.51522222170E+03  0.51524365860E+03  0.47000000000E+01 0. -1.
         25    2    1    2    0    0  0.12812714051E+03 -0.16936343967E+01 -0.16651209677E+03  0.24447879957E+03  0.12499669011E+03 0.  0.
         25    2    1    2    0    0 -0.12812714051E+03  0.16936343967E+01 -0.28396584851E+03  0.33567950552E+03  0.12499877910E+03 0.  0.
          5    1    4    4  502    0 -0.65368206669E+02 -0.61270736525E+02 -0.13336238514E+03  0.16073183060E+03  0.47000000000E+01 0.  1.
         -5    1    4    4    0  502 -0.62758933845E+02  0.62964370922E+02 -0.15060346337E+03  0.17494767493E+03  0.47000000000E+01 0.  1.
          5    1    3    3  503    0  0.14433249078E+03  0.15065781788E+02 -0.16620862399E+03  0.22069490788E+03  0.47000000000E+01 0.  1.
         -5    1    3    3    0  503 -0.16205350271E+02 -0.16759416185E+02 -0.30347277620E+00  0.23783891691E+02  0.47000000000E+01 0.  1.
<mgrwt>
<rscale>  0 0.17900837E+03</rscale>
<asrwt>0</asrwt>
<pdfrwt beam="2">  1        5 0.79279709E-01 0.17900874E+03</pdfrwt>
<pdfrwt beam="1">  1       -5 0.99754126E-02 0.17900874E+03</pdfrwt>
<totfact> 0.86913823E+01</totfact>
</mgrwt>
</event>
<event>
 8    1  0.1865596E-007  0.1269300E+03  0.7546771E-02  0.1232088E+00
         -5   -1    0    0    0  501 -0.00000000000E+00  0.00000000000E+00  0.60083963548E+02  0.60267509287E+02  0.47000000000E+01 0. -1.
          5   -1    0    0  501    0  0.00000000000E+00 -0.00000000000E+00 -0.27820578365E+03  0.27824548165E+03  0.47000000000E+01 0. -1.
         25    2    1    2    0    0 -0.58599580921E+01 -0.21147967065E+02 -0.75887987662E+02  0.14788576847E+03  0.12501855152E+03 0.  0.
         25    2    1    2    0    0  0.58599580921E+01  0.21147967065E+02 -0.14223383244E+03  0.19062722247E+03  0.12500679675E+03 0.  0.
          5    1    4    4  502    0  0.26874501056E+02  0.60089758385E+02 -0.12782199873E+03  0.14385260245E+03  0.47000000000E+01 0. -1.
         -5    1    4    4    0  502 -0.21014542964E+02 -0.38941791320E+02 -0.14411833707E+02  0.46774620020E+02  0.47000000000E+01 0. -1.
          5    1    3    3  503    0 -0.14803289716E+02 -0.25508313928E+02  0.29468696908E+02  0.41955995559E+02  0.47000000000E+01 0.  1.
         -5    1    3    3    0  503  0.89433316235E+01  0.43603468628E+01 -0.10535668457E+03  0.10592977291E+03  0.47000000000E+01 0.  1.
<mgrwt>
<rscale>  0 0.12692706E+03</rscale>
<asrwt>0</asrwt>
<pdfrwt beam="2">  1        5 0.42818062E-01 0.12692996E+03</pdfrwt>
<pdfrwt beam="1">  1       -5 0.92608595E-02 0.12692996E+03</pdfrwt>
<totfact> 0.34011206E+02</totfact>
</mgrwt>
</event>
<event>
 8    1  0.1865596E-007  0.1447112E+03  0.7546771E-02  0.1207127E+00
          5   -1    0    0  501    0  0.00000000000E+00  0.00000000000E+00  0.32165760324E+03  0.32169193917E+03  0.47000000000E+01 0.  1.
         -5   -1    0    0    0  501 -0.00000000000E+00 -0.00000000000E+00 -0.97671646286E+02  0.97784663871E+02  0.47000000000E+01 0.  1.
         25    2    1    2    0    0 -0.69485896717E+02 -0.22087255027E+02 -0.92373996063E+01  0.14500576100E+03  0.12500081798E+03 0.  0.
         25    2    1    2    0    0  0.69485896717E+02  0.22087255027E+02  0.23322335656E+03  0.27447084203E+03  0.12499988961E+03 0.  0.
          5    1    3    3  502    0 -0.60172879237E+01  0.44877197893E+01 -0.59189408699E+02  0.59848337362E+02  0.47000000000E+01 0. -1.
         -5    1    3    3    0  502 -0.63468608793E+02 -0.26574974816E+02  0.49952009093E+02  0.85157423640E+02  0.47000000000E+01 0. -1.
          5    1    4    4  503    0  0.11045338734E+02 -0.92154227168E+01  0.19925909737E+03  0.19983293375E+03  0.47000000000E+01 0.  1.
         -5    1    4    4    0  503  0.58440557983E+02  0.31302677744E+02  0.33964259190E+02  0.74637908288E+02  0.47000000000E+01 0.  1.
<mgrwt>
<rscale>  0 0.14471103E+03</rscale>
<asrwt>0</asrwt>
<pdfrwt beam="1">  1        5 0.49497120E-01 0.14471123E+03</pdfrwt>
<pdfrwt beam="2">  1       -5 0.15037742E-01 0.14471123E+03</pdfrwt>
<totfact> 0.11135854E+02</totfact>
</mgrwt>
</event>
<event>
 8    1  0.1865596E-007  0.1503558E+03  0.7546771E-02  0.1200047E+00
         -5   -1    0    0    0  501 -0.00000000000E+00  0.00000000000E+00  0.61906431215E+02  0.62084589278E+02  0.47000000000E+01 0. -1.
          5   -1    0    0  501    0  0.00000000000E+00 -0.00000000000E+00 -0.38431159103E+03  0.38434032966E+03  0.47000000000E+01 0. -1.
         25    2    1    2    0    0  0.25714403400E+02 -0.79500359639E+02 -0.11039485654E+03  0.18653122028E+03  0.12500133626E+03 0.  0.
         25    2    1    2    0    0 -0.25714403400E+02  0.79500359639E+02 -0.21201030328E+03  0.25989369865E+03  0.12495930608E+03 0.  0.
          5    1    3    3  502    0  0.79642104737E+01 -0.82606922862E+02 -0.13324918192E+03  0.15705020482E+03  0.47000000000E+01 0.  1.
         -5    1    3    3    0  502  0.17750192926E+02  0.31065632235E+01  0.22854325382E+02  0.29481015462E+02  0.47000000000E+01 0.  1.
          5    1    4    4  503    0 -0.40642367189E+02  0.97068060422E+01 -0.68255824057E+01  0.42599327100E+02  0.47000000000E+01 0.  1.
         -5    1    4    4    0  503  0.14927963788E+02  0.69793553596E+02 -0.20518472088E+03  0.21729437155E+03  0.47000000000E+01 0.  1.
<mgrwt>
<rscale>  0 0.15034708E+03</rscale>
<asrwt>0</asrwt>
<pdfrwt beam="2">  1        5 0.59140774E-01 0.15035582E+03</pdfrwt>
<pdfrwt beam="1">  1       -5 0.95399817E-02 0.15035582E+03</pdfrwt>
<totfact> 0.17243293E+02</totfact>
</mgrwt>
</event>
<event>
 8    1  0.1865596E-007  0.1478755E+03  0.7546771E-02  0.1203110E+00
          5   -1    0    0  501    0  0.00000000000E+00  0.00000000000E+00  0.95249754601E+02  0.95365642406E+02  0.47000000000E+01 0.  1.
         -5   -1    0    0    0  501 -0.00000000000E+00 -0.00000000000E+00 -0.24959244927E+03  0.24963669749E+03  0.47000000000E+01 0.  1.
         25    2    1    2    0    0 -0.65243436478E+02  0.44550682782E+02 -0.12635344817E+03  0.19450128786E+03  0.12499635104E+03 0.  0.
         25    2    1    2    0    0  0.65243436478E+02 -0.44550682782E+02 -0.27989246501E+02  0.15050105204E+03  0.12500279759E+03 0.  0.
          5    1    3    3  502    0 -0.37390848187E+02 -0.40128032054E+02 -0.28287787709E+02  0.61892030329E+02  0.47000000000E+01 0.  1.
         -5    1    3    3    0  502 -0.27852588290E+02  0.84678714836E+02 -0.98065660464E+02  0.13260925753E+03  0.47000000000E+01 0.  1.
          5    1    4    4  503    0  0.92118147742E+02  0.15248010129E+01 -0.29738304699E+02  0.96925409093E+02  0.47000000000E+01 0. -1.
         -5    1    4    4    0  503 -0.26874711264E+02 -0.46075483795E+02  0.17490581978E+01  0.53575642946E+02  0.47000000000E+01 0. -1.
<mgrwt>
<rscale>  0 0.14787416E+03</rscale>
<asrwt>0</asrwt>
<pdfrwt beam="1">  1        5 0.14666127E-01 0.14787552E+03</pdfrwt>
<pdfrwt beam="2">  1       -5 0.38411156E-01 0.14787552E+03</pdfrwt>
<totfact> 0.19862747E+02</totfact>
</mgrwt>
</event>
<event>
 8    1  0.1865596E-007  0.1266151E+03  0.7546771E-02  0.1232568E+00
          5   -1    0    0  501    0  0.00000000000E+00  0.00000000000E+00  0.77658053644E+02  0.77800149715E+02  0.47000000000E+01 0.  1.
         -5   -1    0    0    0  501 -0.00000000000E+00 -0.00000000000E+00 -0.20613494983E+03  0.20618852428E+03  0.47000000000E+01 0.  1.
         25    2    1    2    0    0 -0.14104033862E+02  0.14358879132E+02 -0.66718722278E+02  0.14311802768E+03  0.12500512295E+03 0.  0.
         25    2    1    2    0    0  0.14104033862E+02 -0.14358879132E+02 -0.61758173912E+02  0.14087064631E+03  0.12500146305E+03 0.  0.
          5    1    4    4  502    0 -0.45959830807E+02 -0.26131080458E+02 -0.59086493221E+02  0.79425708022E+02  0.47000000000E+01 0. -1.
         -5    1    4    4    0  502  0.60063864669E+02  0.11772201326E+02 -0.26716806918E+01  0.61444938285E+02  0.47000000000E+01 0. -1.
          5    1    3    3  503    0  0.30219727833E+02  0.25588587365E+02 -0.84813163103E+02  0.93719637159E+02  0.47000000000E+01 0. -1.
         -5    1    3    3    0  503 -0.44323761695E+02 -0.11229708233E+02  0.18094440825E+02  0.49398390526E+02  0.47000000000E+01 0. -1.
<mgrwt>
<rscale>  0 0.12661419E+03</rscale>
<asrwt>0</asrwt>
<pdfrwt beam="1">  1        5 0.11962445E-01 0.12661509E+03</pdfrwt>
<pdfrwt beam="2">  1       -5 0.31728121E-01 0.12661509E+03</pdfrwt>
<totfact> 0.39747242E+02</totfact>
</mgrwt>
</event>
<event>
 8    1  0.1865596E-007  0.1294439E+03  0.7546771E-02  0.1228292E+00
         -5   -1    0    0    0  501 -0.00000000000E+00  0.00000000000E+00  0.73933671573E+03  0.73935165464E+03  0.47000000000E+01 0.  1.
          5   -1    0    0  501    0  0.00000000000E+00 -0.00000000000E+00 -0.23085514771E+02  0.23559095744E+02  0.47000000000E+01 0.  1.
         25    2    1    2    0    0  0.29537415287E+02  0.15873928902E+02  0.42318773713E+03  0.44254218359E+03  0.12502512899E+03 0.  0.
         25    2    1    2    0    0 -0.29537415287E+02 -0.15873928902E+02  0.29306346383E+03  0.32036856680E+03  0.12500153696E+03 0.  0.
          5    1    3    3  502    0  0.64844080549E+02  0.23983445144E+02  0.37865519303E+03  0.38494389933E+03  0.47000000000E+01 0. -1.
         -5    1    3    3    0  502 -0.35306665262E+02 -0.81095162425E+01  0.44532544102E+02  0.57598284261E+02  0.47000000000E+01 0. -1.
          5    1    4    4  503    0  0.29565747919E+02  0.11176247653E+02  0.22063560663E+03  0.22293766590E+03  0.47000000000E+01 0. -1.
         -5    1    4    4    0  503 -0.59103163207E+02 -0.27050176554E+02  0.72427857199E+02  0.97430900904E+02  0.47000000000E+01 0. -1.
<mgrwt>
<rscale>  0 0.12943820E+03</rscale>
<asrwt>0</asrwt>
<pdfrwt beam="2">  1        5 0.35891970E-02 0.12944390E+03</pdfrwt>
<pdfrwt beam="1">  1       -5 0.11378166E+00 0.12944390E+03</pdfrwt>
<totfact> 0.18419910E+02</totfact>
</mgrwt>
</event>
<event>
 8    1  0.1865596E-007  0.1371395E+03  0.7546771E-02  0.1217233E+00
         -5   -1    0    0    0  501 -0.00000000000E+00  0.00000000000E+00  0.36818566172E+04  0.36818596171E+04  0.47000000000E+01 0.  1.
          5   -1    0    0  501    0  0.00000000000E+00 -0.00000000000E+00 -0.43789015364E+01  0.64237667039E+01  0.47000000000E+01 0.  1.
         25    2    1    2    0    0  0.43474865368E+02  0.35920662102E+02  0.22707435185E+04  0.22748809561E+04  0.12500751848E+03 0.  0.
         25    2    1    2    0    0 -0.43474865368E+02 -0.35920662102E+02  0.14067341972E+04  0.14134024277E+04  0.12499985265E+03 0.  0.
          5    1    4    4  502    0 -0.30300022708E+02  0.44961526759E+02  0.62830435351E+03  0.63065686463E+03  0.47000000000E+01 0. -1.
         -5    1    4    4    0  502 -0.13174842660E+02 -0.80882188861E+02  0.77842984370E+03  0.78274556308E+03  0.47000000000E+01 0. -1.
          5    1    3    3  503    0  0.23694139162E+02 -0.31015016533E+02  0.16032081175E+04  0.16036900267E+04  0.47000000000E+01 0. -1.
         -5    1    3    3    0  503  0.19780726206E+02  0.66935678635E+02  0.66753540096E+03  0.67119092942E+03  0.47000000000E+01 0. -1.
<mgrwt>
<rscale>  0 0.13713774E+03</rscale>
<asrwt>0</asrwt>
<pdfrwt beam="2">  1        5 0.83120343E-03 0.13713948E+03</pdfrwt>
<pdfrwt beam="1">  1       -5 0.56659824E+00 0.13713948E+03</pdfrwt>
<totfact> 0.98953032E-01</totfact>
</mgrwt>
</event>
<event>
 8    1  0.1865596E-007  0.1467162E+03  0.7546771E-02  0.1204568E+00
         -5   -1    0    0    0  501 -0.00000000000E+00  0.00000000000E+00  0.51852493787E+03  0.51854623824E+03  0.47000000000E+01 0. -1.
          5   -1    0    0  501    0  0.00000000000E+00 -0.00000000000E+00 -0.47256579742E+02  0.47489728667E+02  0.47000000000E+01 0. -1.
         25    2    1    2    0    0 -0.63819275716E+02 -0.42753381160E+02  0.33534401319E+03  0.36603449769E+03  0.12499957904E+03 0.  0.
         25    2    1    2    0    0  0.63819275716E+02  0.42753381160E+02  0.13592434494E+03  0.20000146922E+03  0.12499763434E+03 0.  0.
          5    1    4    4  502    0  0.43973108545E+02  0.25601688102E+02  0.15758326125E+03  0.16566126564E+03  0.47000000000E+01 0.  1.
         -5    1    4    4    0  502  0.19846167172E+02  0.17151693058E+02 -0.21658916311E+02  0.34340203580E+02  0.47000000000E+01 0.  1.
          5    1    3    3  503    0 -0.72651143798E+02 -0.14059636743E+02  0.80732873363E+02  0.10961637160E+03  0.47000000000E+01 0. -1.
         -5    1    3    3    0  503  0.88318680814E+01 -0.28693744417E+02  0.25461113983E+03  0.25641812609E+03  0.47000000000E+01 0. -1.
<mgrwt>
<rscale>  0 0.14671580E+03</rscale>
<asrwt>0</asrwt>
<pdfrwt beam="2">  1        5 0.72898158E-02 0.14671621E+03</pdfrwt>
<pdfrwt beam="1">  1       -5 0.79792643E-01 0.14671621E+03</pdfrwt>
<totfact> 0.13864090E+02</totfact>
</mgrwt>
</event>
<event>
 8    1  0.1865596E-007  0.1463821E+03  0.7546771E-02  0.1204997E+00
          5   -1    0    0  501    0  0.00000000000E+00  0.00000000000E+00  0.26285014522E+03  0.26289216201E+03  0.47000000000E+01 0.  1.
         -5   -1    0    0    0  501 -0.00000000000E+00 -0.00000000000E+00 -0.84373842450E+02  0.84504646557E+02  0.47000000000E+01 0.  1.
         25    2    1    2    0    0 -0.51301461487E+02 -0.56316361181E+02  0.56615769433E+02  0.15692971086E+03  0.12497286231E+03 0.  0.
         25    2    1    2    0    0  0.51301461487E+02  0.56316361181E+02  0.12186053334E+03  0.19046709771E+03  0.12499741291E+03 0.  0.
          5    1    3    3  502    0  0.14298679694E+02  0.25460318300E+02 -0.11594203032E+02  0.31767838971E+02  0.47000000000E+01 0. -1.
         -5    1    3    3    0  502 -0.65600141181E+02 -0.81776679481E+02  0.68209972465E+02  0.12516187188E+03  0.47000000000E+01 0. -1.
          5    1    4    4  503    0  0.48062011405E+02  0.14787592448E+01  0.12623024646E+03  0.13516030775E+03  0.47000000000E+01 0. -1.
         -5    1    4    4    0  503  0.32394500825E+01  0.54837601936E+02 -0.43697131178E+01  0.55306789960E+02  0.47000000000E+01 0. -1.
<mgrwt>
<rscale>  0 0.14637688E+03</rscale>
<asrwt>0</asrwt>
<pdfrwt beam="1">  1        5 0.40451777E-01 0.14638212E+03</pdfrwt>
<pdfrwt beam="2">  1       -5 0.12993885E-01 0.14638212E+03</pdfrwt>
<totfact> 0.22140611E+02</totfact>
</mgrwt>
</event>
<event>
 8    1  0.1865596E-007  0.1602542E+03  0.7546771E-02  0.1188413E+00
          5   -1    0    0  501    0  0.00000000000E+00  0.00000000000E+00  0.36826069212E+03  0.36829068323E+03  0.47000000000E+01 0. -1.
         -5   -1    0    0    0  501 -0.00000000000E+00 -0.00000000000E+00 -0.86672338813E+02  0.86799679235E+02  0.47000000000E+01 0. -1.
         25    2    1    2    0    0 -0.88733639176E+02 -0.46710579042E+02  0.39964265487E+02  0.16515311806E+03  0.12499149160E+03 0.  0.
         25    2    1    2    0    0  0.88733639176E+02  0.46710579042E+02  0.24162408782E+03  0.28993724441E+03  0.12500347583E+03 0.  0.
          5    1    4    4  502    0  0.11869972903E+03  0.48424078018E+02  0.17775855597E+03  0.21921384816E+03  0.47000000000E+01 0. -1.
         -5    1    4    4    0  502 -0.29966089854E+02 -0.17134989758E+01  0.63865531842E+02  0.70723396252E+02  0.47000000000E+01 0. -1.
          5    1    3    3  503    0 -0.76246693811E+02 -0.65383258512E+02  0.73475913373E+02  0.12453645513E+03  0.47000000000E+01 0. -1.
         -5    1    3    3    0  503 -0.12486945364E+02  0.18672679470E+02 -0.33511647886E+02  0.40616662925E+02  0.47000000000E+01 0. -1.
<mgrwt>
<rscale>  0 0.16025185E+03</rscale>
<asrwt>0</asrwt>
<pdfrwt beam="1">  1        5 0.56667594E-01 0.16025419E+03</pdfrwt>
<pdfrwt beam="2">  1       -5 0.13346308E-01 0.16025419E+03</pdfrwt>
<totfact> 0.10671316E+02</totfact>
</mgrwt>
</event>
<event>
 8    1  0.1865596E-007  0.1353320E+03  0.7546771E-02  0.1219769E+00
         -5   -1    0    0    0  501 -0.00000000000E+00  0.00000000000E+00  0.90220987330E+02  0.90343326012E+02  0.47000000000E+01 0.  1.
          5   -1    0    0  501    0  0.00000000000E+00 -0.00000000000E+00 -0.20922485157E+03  0.20927763501E+03  0.47000000000E+01 0.  1.
         25    2    1    2    0    0  0.51860453711E+02 -0.95006727237E+00 -0.32926495497E+02  0.13923376166E+03  0.12494589627E+03 0.  0.
         25    2    1    2    0    0 -0.51860453711E+02  0.95006727237E+00 -0.86077368747E+02  0.16038719936E+03  0.12499732405E+03 0.  0.
          5    1    3    3  502    0 -0.57343000678E+01 -0.38953679394E+02 -0.53941927173E+02  0.66948434207E+02  0.47000000000E+01 0. -1.
         -5    1    3    3    0  502  0.57594753779E+02  0.38003612122E+02  0.21015431676E+02  0.72285327458E+02  0.47000000000E+01 0. -1.
          5    1    4    4  503    0 -0.27390423178E+02 -0.47123974805E+02 -0.90827675375E+02  0.10603141467E+03  0.47000000000E+01 0.  1.
         -5    1    4    4    0  503 -0.24470030533E+02  0.48074042077E+02  0.47503066278E+01  0.54355784687E+02  0.47000000000E+01 0.  1.
<mgrwt>
<rscale>  0 0.13532009E+03</rscale>
<asrwt>0</asrwt>
<pdfrwt beam="2">  1        5 0.32201909E-01 0.13533196E+03</pdfrwt>
<pdfrwt beam="1">  1       -5 0.13893623E-01 0.13533196E+03</pdfrwt>
<totfact> 0.30279412E+02</totfact>
</mgrwt>
</event>
<event>
 8    1  0.1865596E-007  0.1324852E+03  0.7546771E-02  0.1223815E+00
          5   -1    0    0  501    0  0.00000000000E+00  0.00000000000E+00  0.37635863113E+03  0.37638797700E+03  0.47000000000E+01 0. -1.
         -5   -1    0    0    0  501 -0.00000000000E+00 -0.00000000000E+00 -0.63779239829E+02  0.63952180832E+02  0.47000000000E+01 0. -1.
         25    2    1    2    0    0 -0.43627945066E+02  0.49338889988E+01  0.41858155920E+02  0.13894036086E+03  0.12499831122E+03 0.  0.
         25    2    1    2    0    0  0.43627945066E+02 -0.49338889988E+01  0.27072123538E+03  0.30139979697E+03  0.12499643784E+03 0.  0.
          5    1    3    3  502    0 -0.78814813930E+02  0.98901252644E+01  0.59145412545E+02  0.99145646892E+02  0.47000000000E+01 0.  1.
         -5    1    3    3    0  502  0.35186868864E+02 -0.49562362656E+01 -0.17287256625E+02  0.39794713970E+02  0.47000000000E+01 0.  1.
          5    1    4    4  503    0  0.49651465516E+02 -0.27245499707E+02  0.27191095135E+03  0.27778632210E+03  0.47000000000E+01 0. -1.
         -5    1    4    4    0  503 -0.60235204495E+01  0.22311610708E+02 -0.11897159706E+01  0.23613474862E+02  0.47000000000E+01 0. -1.
<mgrwt>
<rscale>  0 0.13248472E+03</rscale>
<asrwt>0</asrwt>
<pdfrwt beam="1">  1        5 0.57916888E-01 0.13248516E+03</pdfrwt>
<pdfrwt beam="2">  1       -5 0.98277513E-02 0.13248516E+03</pdfrwt>
<totfact> 0.16438458E+02</totfact>
</mgrwt>
</event>
<event>
 8    1  0.1865596E-007  0.1380414E+03  0.7546771E-02  0.1215990E+00
         -5   -1    0    0    0  501 -0.00000000000E+00  0.00000000000E+00  0.44128283680E+03  0.44130786539E+03  0.47000000000E+01 0.  1.
          5   -1    0    0  501    0  0.00000000000E+00 -0.00000000000E+00 -0.52182394380E+02  0.52393628270E+02  0.47000000000E+01 0.  1.
         25    2    1    2    0    0 -0.56383366273E+02 -0.15839186018E+02  0.91405122946E+02  0.16555834836E+03  0.12499882562E+03 0.  0.
         25    2    1    2    0    0  0.56383366273E+02  0.15839186018E+02  0.29769531947E+03  0.32814314530E+03  0.12500182704E+03 0.  0.
          5    1    3    3  502    0 -0.35461717688E+02 -0.69920192575E+02  0.41075079059E+02  0.88631929183E+02  0.47000000000E+01 0. -1.
         -5    1    3    3    0  502 -0.20921648585E+02  0.54081006558E+02  0.50330043887E+02  0.76926419178E+02  0.47000000000E+01 0. -1.
          5    1    4    4  503    0 -0.23750560701E+02  0.36758615934E+02  0.17200128607E+03  0.17754384638E+03  0.47000000000E+01 0.  1.
         -5    1    4    4    0  503  0.80133926974E+02 -0.20919429916E+02  0.12569403341E+03  0.15059929892E+03  0.47000000000E+01 0.  1.
<mgrwt>
<rscale>  0 0.13804069E+03</rscale>
<asrwt>0</asrwt>
<pdfrwt beam="2">  1        5 0.80462345E-02 0.13804137E+03</pdfrwt>
<pdfrwt beam="1">  1       -5 0.67907843E-01 0.13804137E+03</pdfrwt>
<totfact> 0.16574313E+02</totfact>
</mgrwt>
</event>
<event>
 8    1  0.1865596E-007  0.1271138E+03  0.7546771E-02  0.1231802E+00
          5   -1    0    0  501    0  0.00000000000E+00  0.00000000000E+00  0.88953102071E+02  0.89077182084E+02  0.47000000000E+01 0. -1.
         -5   -1    0    0    0  501 -0.00000000000E+00 -0.00000000000E+00 -0.18136481763E+03  0.18142570677E+03  0.47000000000E+01 0. -1.
         25    2    1    2    0    0 -0.15053568984E+02  0.17477450059E+02 -0.46454657360E+02  0.13533645455E+03  0.12500339811E+03 0.  0.
         25    2    1    2    0    0  0.15053568984E+02 -0.17477450059E+02 -0.45957058204E+02  0.13516643430E+03  0.12500337021E+03 0.  0.
          5    1    3    3  502    0 -0.35860301352E+02 -0.45184955435E+02 -0.70569397721E+01  0.58305504111E+02  0.47000000000E+01 0.  1.
         -5    1    3    3    0  502  0.20806732367E+02  0.62662405494E+02 -0.39397717588E+02  0.77030950437E+02  0.47000000000E+01 0.  1.
          5    1    4    4  503    0  0.44369493403E+02 -0.38948478057E+02  0.17615971514E+02  0.61790357988E+02  0.47000000000E+01 0.  1.
         -5    1    4    4    0  503 -0.29315924419E+02  0.21471027999E+02 -0.63573029718E+02  0.73376076314E+02  0.47000000000E+01 0.  1.
<mgrwt>
<rscale>  0 0.12711380E+03</rscale>
<asrwt>0</asrwt>
<pdfrwt beam="1">  1        5 0.13699321E-01 0.12711381E+03</pdfrwt>
<pdfrwt beam="2">  1       -5 0.27916508E-01 0.12711381E+03</pdfrwt>
<totfact> 0.40170623E+02</totfact>
</mgrwt>
</event>
<event>
 8    1  0.1865596E-007  0.1291440E+03  0.7546771E-02  0.1228735E+00
         -5   -1    0    0    0  501 -0.00000000000E+00  0.00000000000E+00  0.15334655630E+03  0.15341856579E+03  0.47000000000E+01 0.  1.
          5   -1    0    0  501    0  0.00000000000E+00 -0.00000000000E+00 -0.12675187674E+03  0.12683898556E+03  0.47000000000E+01 0.  1.
         25    2    1    2    0    0 -0.15029699571E+02  0.28774061490E+02  0.66285306828E+02  0.14516168791E+03  0.12499734098E+03 0.  0.
         25    2    1    2    0    0  0.15029699571E+02 -0.28774061490E+02 -0.39690627270E+02  0.13509586343E+03  0.12498683107E+03 0.  0.
          5    1    4    4  502    0 -0.48369145276E+02  0.11539242022E+02 -0.32243031333E+02  0.59451084016E+02  0.47000000000E+01 0. -1.
         -5    1    4    4    0  502  0.63398844847E+02 -0.40313303512E+02 -0.74475959368E+01  0.75644779418E+02  0.47000000000E+01 0. -1.
          5    1    3    3  503    0  0.46018253524E+02  0.37548297551E+01 -0.64425101301E+01  0.46854821958E+02  0.47000000000E+01 0. -1.
         -5    1    3    3    0  503 -0.61047953095E+02  0.25019231735E+02  0.72727816958E+02  0.98306865951E+02  0.47000000000E+01 0. -1.
<mgrwt>
<rscale>  0 0.12914146E+03</rscale>
<asrwt>0</asrwt>
<pdfrwt beam="2">  1        5 0.19512529E-01 0.12914400E+03</pdfrwt>
<pdfrwt beam="1">  1       -5 0.23604018E-01 0.12914400E+03</pdfrwt>
<totfact> 0.29251250E+02</totfact>
</mgrwt>
</event>
<event>
 8    1  0.1865596E-007  0.1372212E+03  0.7546771E-02  0.1217118E+00
         -5   -1    0    0    0  501 -0.00000000000E+00  0.00000000000E+00  0.13034871089E+03  0.13043341761E+03  0.47000000000E+01 0.  1.
          5   -1    0    0  501    0  0.00000000000E+00 -0.00000000000E+00 -0.15063180744E+03  0.15070511409E+03  0.47000000000E+01 0.  1.
         25    2    1    2    0    0 -0.15041180715E+01  0.56589737043E+02  0.18695078972E+02  0.13848879930E+03  0.12499992338E+03 0.  0.
         25    2    1    2    0    0  0.15041180715E+01 -0.56589737043E+02 -0.38978175532E+02  0.14264973240E+03  0.12499994910E+03 0.  0.
          5    1    4    4  502    0  0.14375461571E+02 -0.37060552999E+02  0.42125461702E+02  0.58110093853E+02  0.47000000000E+01 0.  1.
         -5    1    4    4    0  502 -0.12871343499E+02 -0.19529184043E+02 -0.81103637234E+02  0.84539638546E+02  0.47000000000E+01 0.  1.
          5    1    3    3  503    0  0.79863986976E+01  0.14907287425E+02 -0.52475478461E+02  0.55333313856E+02  0.47000000000E+01 0. -1.
         -5    1    3    3    0  503 -0.94905167691E+01  0.41682449618E+02  0.71170557434E+02  0.83155485448E+02  0.47000000000E+01 0. -1.
<mgrwt>
<rscale>  0 0.13722116E+03</rscale>
<asrwt>0</asrwt>
<pdfrwt beam="2">  1        5 0.23186279E-01 0.13722116E+03</pdfrwt>
<pdfrwt beam="1">  1       -5 0.20065803E-01 0.13722116E+03</pdfrwt>
<totfact> 0.29344569E+02</totfact>
</mgrwt>
</event>
<event>
 8    1  0.1865596E-007  0.1330766E+03  0.7546771E-02  0.1222968E+00
          5   -1    0    0  501    0  0.00000000000E+00  0.00000000000E+00  0.32800605462E+03  0.32803972605E+03  0.47000000000E+01 0.  1.
         -5   -1    0    0    0  501 -0.00000000000E+00 -0.00000000000E+00 -0.56077611738E+02  0.56274226234E+02  0.47000000000E+01 0.  1.
         25    2    1    2    0    0  0.13017085172E+01 -0.45652345612E+02  0.97701602823E+02  0.16509086283E+03  0.12499423463E+03 0.  0.
         25    2    1    2    0    0 -0.13017085172E+01  0.45652345612E+02  0.17422684006E+03  0.21922308946E+03  0.12497175700E+03 0.  0.
          5    1    3    3  502    0  0.21447966467E+02 -0.84466529561E+02  0.77389900969E+02  0.11664431685E+03  0.47000000000E+01 0.  1.
         -5    1    3    3    0  502 -0.20146257950E+02  0.38814183949E+02  0.20311701855E+02  0.48446545979E+02  0.47000000000E+01 0.  1.
          5    1    4    4  503    0  0.27363199650E+02  0.10621889783E+02 -0.84976352343E+01  0.30917131857E+02  0.47000000000E+01 0.  1.
         -5    1    4    4    0  503 -0.28664908167E+02  0.35030455829E+02  0.18272447529E+03  0.18830595760E+03  0.47000000000E+01 0.  1.
<mgrwt>
<rscale>  0 0.13307135E+03</rscale>
<asrwt>0</asrwt>
<pdfrwt beam="1">  1        5 0.50480183E-01 0.13307663E+03</pdfrwt>
<pdfrwt beam="2">  1       -5 0.86450394E-02 0.13307663E+03</pdfrwt>
<totfact> 0.27613288E+02</totfact>
</mgrwt>
</event>
<event>
 8    1  0.1865596E-007  0.1360023E+03  0.7546771E-02  0.1218822E+00
         -5   -1    0    0    0  501 -0.00000000000E+00  0.00000000000E+00  0.40623170481E+02  0.40894155816E+02  0.47000000000E+01 0.  1.
          5   -1    0    0  501    0  0.00000000000E+00 -0.00000000000E+00 -0.50705814459E+03  0.50707992664E+03  0.47000000000E+01 0.  1.
         25    2    1    2    0    0 -0.46189328477E+02 -0.27336086963E+02 -0.14416187681E+03  0.19818999719E+03  0.12496364490E+03 0.  0.
         25    2    1    2    0    0  0.46189328477E+02  0.27336086963E+02 -0.32227309730E+03  0.34978408526E+03  0.12493294738E+03 0.  0.
          5    1    4    4  502    0 -0.26967492741E+02  0.16153675141E+02 -0.22619174846E+03  0.22841406252E+03  0.47000000000E+01 0. -1.
         -5    1    4    4    0  502  0.73156821219E+02  0.11182411821E+02 -0.96081348843E+02  0.12137002274E+03  0.47000000000E+01 0. -1.
          5    1    3    3  503    0 -0.24229589241E+01 -0.66104685751E+02 -0.11484137745E+03  0.13261346909E+03  0.47000000000E+01 0. -1.
         -5    1    3    3    0  503 -0.43766369553E+02  0.38768598789E+02 -0.29320499361E+02  0.65576528108E+02  0.47000000000E+01 0. -1.
<mgrwt>
<rscale>  0 0.13599526E+03</rscale>
<asrwt>0</asrwt>
<pdfrwt beam="2">  1        5 0.78031461E-01 0.13600231E+03</pdfrwt>
<pdfrwt beam="1">  1       -5 0.62722395E-02 0.13600231E+03</pdfrwt>
<totfact> 0.18373963E+02</totfact>
</mgrwt>
</event>
<event>
 8    1  0.1865596E-007  0.2010091E+03  0.7546771E-02  0.1148892E+00
         -5   -1    0    0    0  501 -0.00000000000E+00  0.00000000000E+00  0.17279427092E+03  0.17285817905E+03  0.47000000000E+01 0. -1.
          5   -1    0    0  501    0  0.00000000000E+00 -0.00000000000E+00 -0.24299176293E+03  0.24303721290E+03  0.47000000000E+01 0. -1.
         25    2    1    2    0    0 -0.78711883962E+02  0.13630901120E+03  0.55737021626E+01  0.20107935958E+03  0.12500454185E+03 0.  0.
         25    2    1    2    0    0  0.78711883962E+02 -0.13630901120E+03 -0.75771194173E+02  0.21481603236E+03  0.12501578573E+03 0.  0.
          5    1    4    4  502    0  0.77905593144E+02 -0.15669970196E+03 -0.50914631956E+02  0.18231420072E+03  0.47000000000E+01 0.  1.
         -5    1    4    4    0  502  0.80629081828E+00  0.20390690763E+02 -0.24856562217E+02  0.32501831639E+02  0.47000000000E+01 0.  1.
          5    1    3    3  503    0 -0.18372476957E+02 -0.20183126013E+02  0.17677539534E+02  0.32855621880E+02  0.47000000000E+01 0.  1.
         -5    1    3    3    0  503 -0.60339407005E+02  0.15649213721E+03 -0.12103837371E+02  0.16822373770E+03  0.47000000000E+01 0.  1.
<mgrwt>
<rscale>  0 0.20100734E+03</rscale>
<asrwt>0</asrwt>
<pdfrwt beam="2">  1        5 0.37391760E-01 0.20100909E+03</pdfrwt>
<pdfrwt beam="1">  1       -5 0.26592146E-01 0.20100909E+03</pdfrwt>
<totfact> 0.75458086E+01</totfact>
</mgrwt>
</event>
<event>
 8    1  0.1865596E-007  0.1470612E+03  0.7546771E-02  0.1204132E+00
          5   -1    0    0  501    0  0.00000000000E+00  0.00000000000E+00  0.15455653658E+04  0.15455725120E+04  0.47000000000E+01 0. -1.
         -5   -1    0    0    0  501 -0.00000000000E+00 -0.00000000000E+00 -0.13608176724E+02  0.14396960574E+02  0.47000000000E+01 0. -1.
         25    2    1    2    0    0 -0.77034879717E+02 -0.81435281946E+01  0.79321276162E+03  0.80672958521E+03  0.12500179488E+03 0.  0.
         25    2    1    2    0    0  0.77034879717E+02  0.81435281946E+01  0.73874442747E+03  0.75323988741E+03  0.12500523636E+03 0.  0.
          5    1    4    4  502    0  0.39969946422E+02  0.58463855074E+02  0.54520277515E+03  0.54980339668E+03  0.47000000000E+01 0.  1.
         -5    1    4    4    0  502  0.37064933295E+02 -0.50320326879E+02  0.19354165232E+03  0.20343649073E+03  0.47000000000E+01 0.  1.
          5    1    3    3  503    0  0.28918276446E+02 -0.20630384240E+02  0.12489095069E+03  0.12992966956E+03  0.47000000000E+01 0.  1.
         -5    1    3    3    0  503 -0.10595315616E+03  0.12486856046E+02  0.66832181092E+03  0.67679991566E+03  0.47000000000E+01 0.  1.
<mgrwt>
<rscale>  0 0.14706048E+03</rscale>
<asrwt>0</asrwt>
<pdfrwt beam="1">  1        5 0.23784037E+00 0.14706121E+03</pdfrwt>
<pdfrwt beam="2">  1       -5 0.21547923E-02 0.14706121E+03</pdfrwt>
<totfact> 0.51883611E+01</totfact>
</mgrwt>
</event>
<event>
 8    1  0.1865596E-007  0.1272153E+03  0.7546771E-02  0.1231648E+00
          5   -1    0    0  501    0  0.00000000000E+00  0.00000000000E+00  0.17267272852E+02  0.17895494174E+02  0.47000000000E+01 0. -1.
         -5   -1    0    0    0  501 -0.00000000000E+00 -0.00000000000E+00 -0.93592977971E+03  0.93594158074E+03  0.47000000000E+01 0. -1.
         25    2    1    2    0    0  0.11107935156E+02 -0.20859967396E+02 -0.52180434200E+03  0.53708798303E+03  0.12500082287E+03 0.  0.
         25    2    1    2    0    0 -0.11107935156E+02  0.20859967396E+02 -0.39685816486E+03  0.41674909188E+03  0.12499951243E+03 0.  0.
          5    1    4    4  502    0  0.37296885491E+02  0.21239282268E+02 -0.48181821957E+02  0.64697316372E+02  0.47000000000E+01 0. -1.
         -5    1    4    4    0  502 -0.48404820646E+02 -0.37931487216E+00 -0.34867634290E+03  0.35205177551E+03  0.47000000000E+01 0. -1.
          5    1    3    3  503    0 -0.41294669496E+02  0.23560750939E+00 -0.40633965711E+03  0.40845968244E+03  0.47000000000E+01 0. -1.
         -5    1    3    3    0  503  0.52402604651E+02 -0.21095574905E+02 -0.11546468489E+03  0.12862830059E+03  0.47000000000E+01 0. -1.
<mgrwt>
<rscale>  0 0.12721497E+03</rscale>
<asrwt>0</asrwt>
<pdfrwt beam="1">  1        5 0.27057367E-02 0.12721529E+03</pdfrwt>
<pdfrwt beam="2">  1       -5 0.14403839E+00 0.12721529E+03</pdfrwt>
<totfact> 0.15697276E+02</totfact>
</mgrwt>
</event>
<event>
 8    1  0.1865596E-007  0.1270878E+03  0.7546771E-02  0.1231843E+00
          5   -1    0    0  501    0  0.00000000000E+00  0.00000000000E+00  0.57528570783E+03  0.57530490667E+03  0.47000000000E+01 0.  1.
         -5   -1    0    0    0  501 -0.00000000000E+00 -0.00000000000E+00 -0.28563126296E+02  0.28947231022E+02  0.47000000000E+01 0.  1.
         25    2    1    2    0    0 -0.17975774664E+02  0.14286161178E+02  0.22623756061E+03  0.25948851561E+03  0.12499453200E+03 0.  0.
         25    2    1    2    0    0  0.17975774664E+02 -0.14286161178E+02  0.32048502093E+03  0.34476362208E+03  0.12499633432E+03 0.  0.
          5    1    3    3  502    0 -0.57737703307E+02  0.12500771371E+02  0.46474630301E+02  0.75311970693E+02  0.47000000000E+01 0. -1.
         -5    1    3    3    0  502  0.39761928643E+02  0.17853898073E+01  0.17976293031E+03  0.18417654492E+03  0.47000000000E+01 0. -1.
          5    1    4    4  503    0 -0.36829912340E+02 -0.27012409401E+02  0.25132225389E+03  0.25548205026E+03  0.47000000000E+01 0.  1.
         -5    1    4    4    0  503  0.54805687005E+02  0.12726248223E+02  0.69162767043E+02  0.89281571822E+02  0.47000000000E+01 0.  1.
<mgrwt>
<rscale>  0 0.12708735E+03</rscale>
<asrwt>0</asrwt>
<pdfrwt beam="1">  1        5 0.88536508E-01 0.12708779E+03</pdfrwt>
<pdfrwt beam="2">  1       -5 0.44253509E-02 0.12708779E+03</pdfrwt>
<totfact> 0.23904700E+02</totfact>
</mgrwt>
</event>
<event>
 8    1  0.1865596E-007  0.1430951E+03  0.7546771E-02  0.1209225E+00
         -5   -1    0    0    0  501 -0.00000000000E+00  0.00000000000E+00  0.13004218551E+04  0.13004303484E+04  0.47000000000E+01 0.  1.
          5   -1    0    0  501    0  0.00000000000E+00 -0.00000000000E+00 -0.16851975748E+02  0.17495116079E+02  0.47000000000E+01 0.  1.
         25    2    1    2    0    0  0.41633363206E+02  0.55821656022E+02  0.83234672327E+03  0.84455744498E+03  0.12500726345E+03 0.  0.
         25    2    1    2    0    0 -0.41633363206E+02 -0.55821656022E+02  0.45122315604E+03  0.47336801953E+03  0.12500220460E+03 0.  0.
          5    1    4    4  502    0  0.29219657990E+02  0.17869891386E+02  0.18399885609E+03  0.18721856338E+03  0.47000000000E+01 0. -1.
         -5    1    4    4    0  502 -0.70853021196E+02 -0.73691547408E+02  0.26722429995E+03  0.28614945615E+03  0.47000000000E+01 0. -1.
          5    1    3    3  503    0  0.45096053163E+02  0.90686113377E+01  0.73453831802E+03  0.73599220401E+03  0.47000000000E+01 0. -1.
         -5    1    3    3    0  503 -0.34626899569E+01  0.46753044684E+02  0.97808405253E+02  0.10856524097E+03  0.47000000000E+01 0. -1.
<mgrwt>
<rscale>  0 0.14309400E+03</rscale>
<asrwt>0</asrwt>
<pdfrwt beam="2">  1        5 0.26427362E-02 0.14309511E+03</pdfrwt>
<pdfrwt beam="1">  1       -5 0.20011511E+00 0.14309511E+03</pdfrwt>
<totfact> 0.65651073E+01</totfact>
</mgrwt>
</event>
<event>
 8    1  0.1865596E-007  0.1261155E+03  0.7546771E-02  0.1233339E+00
         -5   -1    0    0    0  501 -0.00000000000E+00  0.00000000000E+00  0.77014173352E+03  0.77015607490E+03  0.47000000000E+01 0. -1.
          5   -1    0    0  501    0  0.00000000000E+00 -0.00000000000E+00 -0.21442126009E+02  0.21951190578E+02  0.47000000000E+01 0. -1.
         25    2    1    2    0    0 -0.63404363698E+01  0.15498932797E+02  0.46185836036E+03  0.47876555904E+03  0.12499158947E+03 0.  0.
         25    2    1    2    0    0  0.63404363698E+01 -0.15498932797E+02  0.28684124714E+03  0.31334170643E+03  0.12499882350E+03 0.  0.
          5    1    3    3  502    0  0.10780303283E+02 -0.47873494993E+02  0.30025756857E+03  0.30427747854E+03  0.47000000000E+01 0.  1.
         -5    1    3    3    0  502 -0.17120739653E+02  0.63372427790E+02  0.16160079179E+03  0.17448808051E+03  0.47000000000E+01 0.  1.
          5    1    4    4  503    0 -0.25620623633E+02  0.46198659532E+02  0.16105537903E+03  0.16956313754E+03  0.47000000000E+01 0.  1.
         -5    1    4    4    0  503  0.31961060003E+02 -0.61697592330E+02  0.12578586812E+03  0.14377856889E+03  0.47000000000E+01 0.  1.
<mgrwt>
<rscale>  0 0.12611373E+03</rscale>
<asrwt>0</asrwt>
<pdfrwt beam="2">  1        5 0.33390503E-02 0.12611552E+03</pdfrwt>
<pdfrwt beam="1">  1       -5 0.11852362E+00 0.12611552E+03</pdfrwt>
<totfact> 0.18529229E+02</totfact>
</mgrwt>
</event>
<event>
 8    1  0.1865596E-007  0.1675632E+03  0.7546771E-02  0.1180415E+00
         -5   -1    0    0    0  501 -0.00000000000E+00  0.00000000000E+00  0.75529744420E+02  0.75675836910E+02  0.47000000000E+01 0.  1.
          5   -1    0    0  501    0  0.00000000000E+00 -0.00000000000E+00 -0.44107173404E+03  0.44109677461E+03  0.47000000000E+01 0.  1.
         25    2    1    2    0    0 -0.10838202676E+03 -0.26518816085E+02 -0.79956890868E+02  0.18566242531E+03  0.12501008136E+03 0.  0.
         25    2    1    2    0    0  0.10838202676E+03  0.26518816085E+02 -0.28558509875E+03  0.33111018621E+03  0.12500078180E+03 0.  0.
          5    1    3    3  502    0 -0.98879367894E+02 -0.65191414696E+02 -0.84122956321E+02  0.14534721093E+03  0.47000000000E+01 0.  1.
         -5    1    3    3    0  502 -0.95026588677E+01  0.38672598612E+02  0.41660654530E+01  0.40315214378E+02  0.47000000000E+01 0.  1.
          5    1    4    4  503    0  0.54212926795E+02 -0.13605423789E+02 -0.24701360814E+03  0.25330211526E+03  0.47000000000E+01 0.  1.
         -5    1    4    4    0  503  0.54169099967E+02  0.40124239873E+02 -0.38571490608E+02  0.77808070946E+02  0.47000000000E+01 0.  1.
<mgrwt>
<rscale>  0 0.16756148E+03</rscale>
<asrwt>0</asrwt>
<pdfrwt beam="2">  1        5 0.67870352E-01 0.16756322E+03</pdfrwt>
<pdfrwt beam="1">  1       -5 0.11633125E-01 0.16756322E+03</pdfrwt>
<totfact> 0.92735244E+01</totfact>
</mgrwt>
</event>
<event>
 8    1  0.1865596E-007  0.1265182E+03  0.7546771E-02  0.1232717E+00
         -5   -1    0    0    0  501 -0.00000000000E+00  0.00000000000E+00  0.26547854789E+03  0.26552014874E+03  0.47000000000E+01 0. -1.
          5   -1    0    0  501    0  0.00000000000E+00 -0.00000000000E+00 -0.60313409033E+02  0.60496258638E+02  0.47000000000E+01 0. -1.
         25    2    1    2    0    0 -0.18738414055E+02 -0.54631256821E+01  0.11092116618E+03  0.16825681613E+03  0.12500350860E+03 0.  0.
         25    2    1    2    0    0  0.18738414055E+02  0.54631256821E+01  0.94243972678E+02  0.15775959126E+03  0.12500075337E+03 0.  0.
          5    1    4    4  502    0 -0.46431744979E+02  0.30354401993E+02  0.32402302483E+02  0.64415028280E+02  0.47000000000E+01 0. -1.
         -5    1    4    4    0  502  0.65170159034E+02 -0.24891276311E+02  0.61841670194E+02  0.93344562976E+02  0.47000000000E+01 0. -1.
          5    1    3    3  503    0 -0.35975388009E+02 -0.33891276469E+02 -0.27561356396E+01  0.49724575883E+02  0.47000000000E+01 0. -1.
         -5    1    3    3    0  503  0.17236973954E+02  0.28428150787E+02  0.11367730182E+03  0.11853224024E+03  0.47000000000E+01 0. -1.
<mgrwt>
<rscale>  0 0.12651750E+03</rscale>
<asrwt>0</asrwt>
<pdfrwt beam="2">  1        5 0.92962515E-02 0.12651818E+03</pdfrwt>
<pdfrwt beam="1">  1       -5 0.40860119E-01 0.12651818E+03</pdfrwt>
<totfact> 0.37155997E+02</totfact>
</mgrwt>
</event>
<event>
 8    1  0.1865596E-007  0.1431058E+03  0.7546771E-02  0.1209211E+00
         -5   -1    0    0    0  501 -0.00000000000E+00  0.00000000000E+00  0.90385526958E+02  0.90507643233E+02  0.47000000000E+01 0.  1.
          5   -1    0    0  501    0  0.00000000000E+00 -0.00000000000E+00 -0.24505503781E+03  0.24510010518E+03  0.47000000000E+01 0.  1.
         25    2    1    2    0    0  0.62609426696E+02  0.30565207100E+02 -0.30890426331E+02  0.14639742630E+03  0.12499526308E+03 0.  0.
         25    2    1    2    0    0 -0.62609426696E+02 -0.30565207100E+02 -0.12377908453E+03  0.18921032211E+03  0.12500044812E+03 0.  0.
          5    1    3    3  502    0 -0.25676068478E+02 -0.17808954135E+02  0.15798372689E+02  0.35328429338E+02  0.47000000000E+01 0.  1.
         -5    1    3    3    0  502  0.88285495174E+02  0.48374161235E+02 -0.46688799020E+02  0.11106899697E+03  0.47000000000E+01 0.  1.
          5    1    4    4  503    0  0.22810006968E+02 -0.76412191692E+01 -0.91849592812E+02  0.95063780421E+02  0.47000000000E+01 0. -1.
         -5    1    4    4    0  503 -0.85419433664E+02 -0.22923987931E+02 -0.31929491714E+02  0.94146541685E+02  0.47000000000E+01 0. -1.
<mgrwt>
<rscale>  0 0.14310472E+03</rscale>
<asrwt>0</asrwt>
<pdfrwt beam="2">  1        5 0.37713635E-01 0.14310585E+03</pdfrwt>
<pdfrwt beam="1">  1       -5 0.13918326E-01 0.14310585E+03</pdfrwt>
<totfact> 0.22411469E+02</totfact>
</mgrwt>
</event>
<event>
 8    1  0.1865596E-007  0.1334466E+03  0.7546771E-02  0.1222430E+00
         -5   -1    0    0    0  501 -0.00000000000E+00  0.00000000000E+00  0.47987108103E+03  0.47989409708E+03  0.47000000000E+01 0. -1.
          5   -1    0    0  501    0  0.00000000000E+00 -0.00000000000E+00 -0.37913625516E+02  0.38203834883E+02  0.47000000000E+01 0. -1.
         25    2    1    2    0    0 -0.38414335752E+02  0.26618755353E+02  0.26238259598E+03  0.29436791489E+03  0.12499449313E+03 0.  0.
         25    2    1    2    0    0  0.38414335752E+02 -0.26618755353E+02  0.17957485953E+03  0.22373001707E+03  0.12499508405E+03 0.  0.
          5    1    3    3  502    0 -0.39289351147E+02  0.74828236526E+02  0.17699342506E+03  0.19619296779E+03  0.47000000000E+01 0. -1.
         -5    1    3    3    0  502  0.87501539447E+00 -0.48209481173E+02  0.85389170928E+02  0.98174947103E+02  0.47000000000E+01 0. -1.
          5    1    4    4  503    0  0.46735330304E+02 -0.72472988528E+02  0.10987618922E+03  0.13975475707E+03  0.47000000000E+01 0.  1.
         -5    1    4    4    0  503 -0.83209945522E+01  0.45854233175E+02  0.69698670312E+02  0.83975260009E+02  0.47000000000E+01 0.  1.
<mgrwt>
<rscale>  0 0.13344644E+03</rscale>
<asrwt>0</asrwt>
<pdfrwt beam="2">  1        5 0.58569595E-02 0.13344658E+03</pdfrwt>
<pdfrwt beam="1">  1       -5 0.73850417E-01 0.13344658E+03</pdfrwt>
<totfact> 0.23236785E+02</totfact>
</mgrwt>
</event>
<event>
 8    1  0.1865596E-007  0.1501755E+03  0.7546771E-02  0.1200261E+00
          5   -1    0    0  501    0  0.00000000000E+00  0.00000000000E+00  0.88649804971E+02  0.88774308904E+02  0.47000000000E+01 0. -1.
         -5   -1    0    0    0  501 -0.00000000000E+00 -0.00000000000E+00 -0.34987434655E+03  0.34990591360E+03  0.47000000000E+01 0. -1.
         25    2    1    2    0    0 -0.50095702484E+02  0.66446816698E+02 -0.24537241710E+03  0.28768092243E+03  0.12501172426E+03 0.  0.
         25    2    1    2    0    0  0.50095702484E+02 -0.66446816698E+02 -0.15852124481E+02  0.15099930007E+03  0.12499895966E+03 0.  0.
          5    1    4    4  502    0  0.72742690264E+02 -0.87715618879E+02  0.34846936905E+01  0.11410417114E+03  0.47000000000E+01 0.  1.
         -5    1    4    4    0  502 -0.22646987780E+02  0.21268802181E+02 -0.19336818171E+02  0.36895128929E+02  0.47000000000E+01 0.  1.
          5    1    3    3  503    0  0.16972332618E+02  0.54599668881E+02 -0.36648842696E+02  0.68076512744E+02  0.47000000000E+01 0.  1.
         -5    1    3    3    0  503 -0.67068035103E+02  0.11847147817E+02 -0.20872357440E+03  0.21960440969E+03  0.47000000000E+01 0.  1.
<mgrwt>
<rscale>  0 0.15017287E+03</rscale>
<asrwt>0</asrwt>
<pdfrwt beam="1">  1        5 0.13650437E-01 0.15017553E+03</pdfrwt>
<pdfrwt beam="2">  1       -5 0.53838827E-01 0.15017553E+03</pdfrwt>
<totfact> 0.11215074E+02</totfact>
</mgrwt>
</event>
<event>
 8    1  0.1865596E-007  0.1308485E+03  0.7546771E-02  0.1226204E+00
         -5   -1    0    0    0  501 -0.00000000000E+00  0.00000000000E+00  0.45548242217E+03  0.45550667053E+03  0.47000000000E+01 0.  1.
          5   -1    0    0  501    0  0.00000000000E+00 -0.00000000000E+00 -0.40870767654E+02  0.41140122127E+02  0.47000000000E+01 0.  1.
         25    2    1    2    0    0 -0.79293503781E+01 -0.37858227267E+02  0.27923569128E+03  0.30837044930E+03  0.12499457086E+03 0.  0.
         25    2    1    2    0    0  0.79293503781E+01  0.37858227267E+02  0.13537596323E+03  0.18827634336E+03  0.12500084032E+03 0.  0.
          5    1    3    3  502    0 -0.21203850666E+02  0.75040833282E+01  0.25313093343E+03  0.25417174117E+03  0.47000000000E+01 0.  1.
         -5    1    3    3    0  502  0.13274500288E+02 -0.45362310595E+02  0.26104757853E+02  0.54198708130E+02  0.47000000000E+01 0.  1.
          5    1    4    4  503    0  0.14488240937E+02 -0.44481083400E+02  0.37658335550E+02  0.60238825871E+02  0.47000000000E+01 0.  1.
         -5    1    4    4    0  503 -0.65588905586E+01  0.82339310667E+02  0.97717627679E+02  0.12803751749E+03  0.47000000000E+01 0.  1.
<mgrwt>
<rscale>  0 0.13084700E+03</rscale>
<asrwt>0</asrwt>
<pdfrwt beam="2">  1        5 0.63103953E-02 0.13084850E+03</pdfrwt>
<pdfrwt beam="1">  1       -5 0.70096804E-01 0.13084850E+03</pdfrwt>
<totfact> 0.22910318E+02</totfact>
</mgrwt>
</event>
<event>
 8    1  0.1865596E-007  0.1389712E+03  0.7546771E-02  0.1214720E+00
         -5   -1    0    0    0  501 -0.00000000000E+00  0.00000000000E+00  0.43456488411E+02  0.43709911748E+02  0.47000000000E+01 0. -1.
          5   -1    0    0  501    0  0.00000000000E+00 -0.00000000000E+00 -0.44395799538E+03  0.44398287316E+03  0.47000000000E+01 0. -1.
         25    2    1    2    0    0  0.60271399312E+02  0.74274770774E+01 -0.18812601599E+03  0.23388901411E+03  0.12499945617E+03 0.  0.
         25    2    1    2    0    0 -0.60271399312E+02 -0.74274770774E+01 -0.21237549098E+03  0.25380377079E+03  0.12500078364E+03 0.  0.
          5    1    3    3  502    0  0.28598796876E+02  0.64148929125E+02 -0.71682461171E+02  0.10046612131E+03  0.47000000000E+01 0.  1.
         -5    1    3    3    0  502  0.31672602436E+02 -0.56721452048E+02 -0.11644355482E+03  0.13342289281E+03  0.47000000000E+01 0.  1.
          5    1    4    4  503    0 -0.56982723993E+02  0.28737867220E+02 -0.20715789501E+03  0.21681646458E+03  0.47000000000E+01 0. -1.
         -5    1    4    4    0  503 -0.32886753185E+01 -0.36165344297E+02 -0.52175959688E+01  0.36987306217E+02  0.47000000000E+01 0. -1.
<mgrwt>
<rscale>  0 0.13897094E+03</rscale>
<asrwt>0</asrwt>
<pdfrwt beam="2">  1        5 0.68322635E-01 0.13897124E+03</pdfrwt>
<pdfrwt beam="1">  1       -5 0.67070217E-02 0.13897124E+03</pdfrwt>
<totfact> 0.22347253E+02</totfact>
</mgrwt>
</event>
<event>
 8    1  0.1865596E-007  0.1470553E+03  0.7546771E-02  0.1204141E+00
          5   -1    0    0  501    0  0.00000000000E+00  0.00000000000E+00  0.13110997452E+04  0.13111081694E+04  0.47000000000E+01 0. -1.
         -5   -1    0    0    0  501 -0.00000000000E+00 -0.00000000000E+00 -0.20557415069E+02  0.21087847550E+02  0.47000000000E+01 0. -1.
         25    2    1    2    0    0 -0.23600772918E+02  0.73778755644E+02  0.34128763289E+03  0.37161820495E+03  0.12499016208E+03 0.  0.
         25    2    1    2    0    0  0.23600772918E+02 -0.73778755644E+02  0.94925469727E+03  0.96057781203E+03  0.12499980565E+03 0.  0.
          5    1    4    4  502    0 -0.19941715494E+02 -0.91186564159E+02  0.75128012926E+03  0.75707105619E+03  0.47000000000E+01 0.  1.
         -5    1    4    4    0  502  0.43542488412E+02  0.17407808515E+02  0.19797456801E+03  0.20350675584E+03  0.47000000000E+01 0.  1.
          5    1    3    3  503    0 -0.75092219213E+02  0.47743632469E+02  0.21149594404E+03  0.22950146007E+03  0.47000000000E+01 0.  1.
         -5    1    3    3    0  503  0.51491446295E+02  0.26035123175E+02  0.12979168885E+03  0.14211674488E+03  0.47000000000E+01 0.  1.
<mgrwt>
<rscale>  0 0.14705322E+03</rscale>
<asrwt>0</asrwt>
<pdfrwt beam="1">  1        5 0.20174921E+00 0.14705527E+03</pdfrwt>
<pdfrwt beam="2">  1       -5 0.32041281E-02 0.14705527E+03</pdfrwt>
<totfact> 0.47261546E+01</totfact>
</mgrwt>
</event>
<event>
 8    1  0.1865596E-007  0.1330440E+03  0.7546771E-02  0.1223008E+00
          5   -1    0    0  501    0  0.00000000000E+00  0.00000000000E+00  0.81295142689E+02  0.81430892325E+02  0.47000000000E+01 0. -1.
         -5   -1    0    0    0  501 -0.00000000000E+00 -0.00000000000E+00 -0.22147890255E+03  0.22152876625E+03  0.47000000000E+01 0. -1.
         25    2    1    2    0    0  0.44996089357E+02 -0.71279050313E+01 -0.90667672383E+02  0.16100103986E+03  0.12500101173E+03 0.  0.
         25    2    1    2    0    0 -0.44996089357E+02  0.71279050313E+01 -0.49516087483E+02  0.14195861872E+03  0.12499980568E+03 0.  0.
          5    1    3    3  502    0  0.24878812993E+02 -0.54969163221E+02 -0.49965065196E+01  0.60725771453E+02  0.47000000000E+01 0. -1.
         -5    1    3    3    0  502  0.20117276364E+02  0.47841258190E+02 -0.85671165863E+02  0.10027526841E+03  0.47000000000E+01 0. -1.
          5    1    4    4  503    0  0.29935035286E+02 -0.17812519190E+02 -0.52048630548E+02  0.62805589874E+02  0.47000000000E+01 0.  1.
         -5    1    4    4    0  503 -0.74931124643E+02  0.24940424222E+02  0.25325430654E+01  0.79153028843E+02  0.47000000000E+01 0.  1.
<mgrwt>
<rscale>  0 0.13304372E+03</rscale>
<asrwt>0</asrwt>
<pdfrwt beam="1">  1        5 0.12521223E-01 0.13304401E+03</pdfrwt>
<pdfrwt beam="2">  1       -5 0.34087955E-01 0.13304401E+03</pdfrwt>
<totfact> 0.32372246E+02</totfact>
</mgrwt>
</event>
<event>
 8    1  0.1865596E-007  0.1421952E+03  0.7546771E-02  0.1210406E+00
          5   -1    0    0  501    0  0.00000000000E+00  0.00000000000E+00  0.28189773053E+03  0.28193690869E+03  0.47000000000E+01 0. -1.
         -5   -1    0    0    0  501 -0.00000000000E+00 -0.00000000000E+00 -0.83135456933E+02  0.83268206414E+02  0.47000000000E+01 0. -1.
         25    2    1    2    0    0 -0.27180295361E+02  0.62095243019E+02  0.31450621836E+02  0.14563183074E+03  0.12499960339E+03 0.  0.
         25    2    1    2    0    0  0.27180295361E+02 -0.62095243019E+02  0.16731165177E+03  0.21957328436E+03  0.12499860291E+03 0.  0.
          5    1    4    4  502    0  0.47411755494E+02 -0.48526476523E+01  0.73990579382E+01  0.48458836208E+02  0.47000000000E+01 0. -1.
         -5    1    4    4    0  502 -0.20231460132E+02 -0.57242595367E+02  0.15991259383E+03  0.17111444816E+03  0.47000000000E+01 0. -1.
          5    1    3    3  503    0  0.48052155494E+02  0.41467703009E+02  0.19553906284E+02  0.66580967937E+02  0.47000000000E+01 0.  1.
         -5    1    3    3    0  503 -0.75232450856E+02  0.20627540010E+02  0.11896715552E+02  0.79050862801E+02  0.47000000000E+01 0.  1.
<mgrwt>
<rscale>  0 0.14219503E+03</rscale>
<asrwt>0</asrwt>
<pdfrwt beam="1">  1        5 0.43382108E-01 0.14219525E+03</pdfrwt>
<pdfrwt beam="2">  1       -5 0.12803295E-01 0.14219525E+03</pdfrwt>
<totfact> 0.19491154E+02</totfact>
</mgrwt>
</event>
<event>
 8    1  0.1865596E-007  0.1274852E+03  0.7546771E-02  0.1231238E+00
          5   -1    0    0  501    0  0.00000000000E+00  0.00000000000E+00  0.58169818841E+02  0.58359385055E+02  0.47000000000E+01 0. -1.
         -5   -1    0    0    0  501 -0.00000000000E+00 -0.00000000000E+00 -0.29196943980E+03  0.29200726665E+03  0.47000000000E+01 0. -1.
         25    2    1    2    0    0 -0.13475313988E+02 -0.21088647341E+02 -0.15420096053E+03  0.20007219251E+03  0.12499852341E+03 0.  0.
         25    2    1    2    0    0  0.13475313988E+02  0.21088647341E+02 -0.79598660428E+02  0.15029445919E+03  0.12500465027E+03 0.  0.
          5    1    3    3  502    0 -0.74913634452E+01 -0.43211926734E+02 -0.10439636275E-02  0.44107608635E+02  0.47000000000E+01 0.  1.
         -5    1    3    3    0  502 -0.59839505427E+01  0.22123279394E+02 -0.15419991657E+03  0.15596458388E+03  0.47000000000E+01 0.  1.
          5    1    4    4  503    0 -0.36232451971E+02  0.36920686005E+02  0.35054108268E+01  0.52060594849E+02  0.47000000000E+01 0.  1.
         -5    1    4    4    0  503  0.49707765959E+02 -0.15832038665E+02 -0.83104071255E+02  0.98233864344E+02  0.47000000000E+01 0.  1.
<mgrwt>
<rscale>  0 0.12748370E+03</rscale>
<asrwt>0</asrwt>
<pdfrwt beam="1">  1        5 0.89666948E-02 0.12748521E+03</pdfrwt>
<pdfrwt beam="2">  1       -5 0.44935866E-01 0.12748521E+03</pdfrwt>
<totfact> 0.32593546E+02</totfact>
</mgrwt>
</event>
<event>
 8    1  0.1865596E-007  0.2093939E+03  0.7546771E-02  0.1142047E+00
          5   -1    0    0  501    0  0.00000000000E+00  0.00000000000E+00  0.91466239671E+02  0.91586915002E+02  0.47000000000E+01 0.  1.
         -5   -1    0    0    0  501 -0.00000000000E+00 -0.00000000000E+00 -0.47895847965E+03  0.47898153955E+03  0.47000000000E+01 0.  1.
         25    2    1    2    0    0 -0.47724590825E+02  0.16106755191E+03 -0.19100655748E+03  0.28342314907E+03  0.12499913430E+03 0.  0.
         25    2    1    2    0    0  0.47724590825E+02 -0.16106755191E+03 -0.19648568250E+03  0.28714530548E+03  0.12500164073E+03 0.  0.
          5    1    3    3  502    0  0.12025061320E+02  0.74371636966E+02 -0.13058991805E+02  0.76605285403E+02  0.47000000000E+01 0.  1.
         -5    1    3    3    0  502 -0.59749652145E+02  0.86695914948E+02 -0.17794756567E+03  0.20681786366E+03  0.47000000000E+01 0.  1.
          5    1    4    4  503    0 -0.10191795313E+02 -0.79520636227E+02 -0.16274639590E+03  0.18148246101E+03  0.47000000000E+01 0. -1.
         -5    1    4    4    0  503  0.57916386139E+02 -0.81546915687E+02 -0.33739286600E+02  0.10566284447E+03  0.47000000000E+01 0. -1.
<mgrwt>
<rscale>  0 0.20939352E+03</rscale>
<asrwt>0</asrwt>
<pdfrwt beam="1">  1        5 0.14082786E-01 0.20939389E+03</pdfrwt>
<pdfrwt beam="2">  1       -5 0.73696975E-01 0.20939389E+03</pdfrwt>
<totfact> 0.58070335E+01</totfact>
</mgrwt>
</event>
<event>
 8    1  0.1865596E-007  0.1287207E+03  0.7546771E-02  0.1229368E+00
          5   -1    0    0  501    0  0.00000000000E+00  0.00000000000E+00  0.14938445401E+03  0.14945837246E+03  0.47000000000E+01 0. -1.
         -5   -1    0    0    0  501 -0.00000000000E+00 -0.00000000000E+00 -0.13267731774E+03  0.13276053873E+03  0.47000000000E+01 0. -1.
         25    2    1    2    0    0 -0.29254140387E+02 -0.92574552595E+01 -0.48961599901E+02  0.13771806244E+03  0.12501008459E+03 0.  0.
         25    2    1    2    0    0  0.29254140387E+02  0.92574552595E+01  0.65668736165E+02  0.14450084875E+03  0.12500642853E+03 0.  0.
          5    1    4    4  502    0 -0.40233893614E+02 -0.28449112295E+02  0.24060397332E+02  0.55037359180E+02  0.47000000000E+01 0.  1.
         -5    1    4    4    0  502  0.69488034002E+02  0.37706567554E+02  0.41608338834E+02  0.89463489573E+02  0.47000000000E+01 0.  1.
          5    1    3    3  503    0 -0.42263840042E+02 -0.54340255762E+02  0.10100934714E+01  0.69008737565E+02  0.47000000000E+01 0. -1.
         -5    1    3    3    0  503  0.13009699655E+02  0.45082800503E+02 -0.49971693373E+02  0.68709324875E+02  0.47000000000E+01 0. -1.
<mgrwt>
<rscale>  0 0.12871984E+03</rscale>
<asrwt>0</asrwt>
<pdfrwt beam="1">  1        5 0.22994311E-01 0.12872073E+03</pdfrwt>
<pdfrwt beam="2">  1       -5 0.20423983E-01 0.12872073E+03</pdfrwt>
<totfact> 0.28199194E+02</totfact>
</mgrwt>
</event>
<event>
 8    1  0.1865596E-007  0.1432866E+03  0.7546771E-02  0.1208980E+00
          5   -1    0    0  501    0  0.00000000000E+00  0.00000000000E+00  0.12281922711E+03  0.12290912313E+03  0.47000000000E+01 0. -1.
         -5   -1    0    0    0  501 -0.00000000000E+00 -0.00000000000E+00 -0.19831315216E+03  0.19836883909E+03  0.47000000000E+01 0. -1.
         25    2    1    2    0    0  0.46009648735E+02 -0.52806008651E+02 -0.10159603709E+03  0.17563331074E+03  0.12497976941E+03 0.  0.
         25    2    1    2    0    0 -0.46009648735E+02  0.52806008651E+02  0.26102112044E+02  0.14564465148E+03  0.12500272767E+03 0.  0.
          5    1    4    4  502    0  0.34278386654E+02 -0.78027161275E+01 -0.12770059447E+02  0.37696877707E+02  0.47000000000E+01 0.  1.
         -5    1    4    4    0  502 -0.80288035389E+02  0.60608724779E+02  0.38872171491E+02  0.10794777377E+03  0.47000000000E+01 0.  1.
          5    1    3    3  503    0  0.70736512862E+02  0.45941223427E+01 -0.22095789755E+02  0.74398078852E+02  0.47000000000E+01 0. -1.
         -5    1    3    3    0  503 -0.24726864128E+02 -0.57400130994E+02 -0.79500247338E+02  0.10123523188E+03  0.47000000000E+01 0. -1.
<mgrwt>
<rscale>  0 0.14328157E+03</rscale>
<asrwt>0</asrwt>
<pdfrwt beam="1">  1        5 0.18906464E-01 0.14328658E+03</pdfrwt>
<pdfrwt beam="2">  1       -5 0.30520914E-01 0.14328658E+03</pdfrwt>
<totfact> 0.19557374E+02</totfact>
</mgrwt>
</event>
<event>
 8    1  0.1865596E-007  0.2156478E+03  0.7546771E-02  0.1137170E+00
         -5   -1    0    0    0  501 -0.00000000000E+00  0.00000000000E+00  0.13996532749E+03  0.14004421766E+03  0.47000000000E+01 0. -1.
          5   -1    0    0  501    0  0.00000000000E+00 -0.00000000000E+00 -0.33463687327E+03  0.33466987757E+03  0.47000000000E+01 0. -1.
         25    2    1    2    0    0  0.13638818611E+03  0.11080047085E+03 -0.11815199890E+03  0.24589401759E+03  0.12500196555E+03 0.  0.
         25    2    1    2    0    0 -0.13638818611E+03 -0.11080047085E+03 -0.76519546877E+02  0.22882007764E+03  0.12499962089E+03 0.  0.
          5    1    4    4  502    0 -0.56480284293E+02  0.21224661300E+02 -0.30137095874E+02  0.67608012164E+02  0.47000000000E+01 0. -1.
         -5    1    4    4    0  502 -0.79907901819E+02 -0.13202513215E+03 -0.46382451002E+02  0.16121206547E+03  0.47000000000E+01 0. -1.
          5    1    3    3  503    0  0.30043324663E+02  0.10114164031E+03 -0.79662447479E+02  0.13228918436E+03  0.47000000000E+01 0. -1.
         -5    1    3    3    0  503  0.10634486145E+03  0.96588305423E+01 -0.38489551417E+02  0.11360483323E+03  0.47000000000E+01 0. -1.
<mgrwt>
<rscale>  0 0.21564746E+03</rscale>
<asrwt>0</asrwt>
<pdfrwt beam="2">  1        5 0.51491203E-01 0.21564780E+03</pdfrwt>
<pdfrwt beam="1">  1       -5 0.21541735E-01 0.21564780E+03</pdfrwt>
<totfact> 0.58978305E+01</totfact>
</mgrwt>
</event>
<event>
 8    1  0.1865596E-007  0.1410198E+03  0.7546771E-02  0.1211973E+00
         -5   -1    0    0    0  501 -0.00000000000E+00  0.00000000000E+00  0.59388900358E+03  0.59390760104E+03  0.47000000000E+01 0.  1.
          5   -1    0    0  501    0  0.00000000000E+00 -0.00000000000E+00 -0.54088243780E+02  0.54292063096E+02  0.47000000000E+01 0.  1.
         25    2    1    2    0    0 -0.57279843645E+02  0.31194444414E+02  0.47034159545E+03  0.49102728711E+03  0.12503002208E+03 0.  0.
         25    2    1    2    0    0  0.57279843645E+02 -0.31194444414E+02  0.69459164350E+02  0.15717237703E+03  0.12499802694E+03 0.  0.
          5    1    3    3  502    0 -0.50632064126E+02  0.53432318190E+02  0.12697233142E+03  0.14684236954E+03  0.47000000000E+01 0. -1.
         -5    1    3    3    0  502 -0.66477795191E+01 -0.22237873776E+02  0.34336926403E+03  0.34418491757E+03  0.47000000000E+01 0. -1.
          5    1    4    4  503    0  0.86603115333E+02  0.11853279845E+02  0.33610762746E+02  0.93767655409E+02  0.47000000000E+01 0.  1.
         -5    1    4    4    0  503 -0.29323271688E+02 -0.43047724259E+02  0.35848401604E+02  0.63404721621E+02  0.47000000000E+01 0.  1.
<mgrwt>
<rscale>  0 0.14101269E+03</rscale>
<asrwt>0</asrwt>
<pdfrwt beam="2">  1        5 0.83383781E-02 0.14101979E+03</pdfrwt>
<pdfrwt beam="1">  1       -5 0.91384639E-01 0.14101979E+03</pdfrwt>
<totfact> 0.79100913E+01</totfact>
</mgrwt>
</event>
<event>
 8    1  0.1865596E-007  0.1257418E+03  0.7546771E-02  0.1233914E+00
          5   -1    0    0  501    0  0.00000000000E+00  0.00000000000E+00  0.82514592134E+03  0.82515930674E+03  0.47000000000E+01 0.  1.
         -5   -1    0    0    0  501 -0.00000000000E+00 -0.00000000000E+00 -0.19963756374E+02  0.20509548229E+02  0.47000000000E+01 0.  1.
         25    2    1    2    0    0  0.13253096603E+02  0.31481632419E+01  0.30454800338E+03  0.32948519014E+03  0.12500179461E+03 0.  0.
         25    2    1    2    0    0 -0.13253096603E+02 -0.31481632419E+01  0.50063416159E+03  0.51618366483E+03  0.12500182635E+03 0.  0.
          5    1    3    3  502    0 -0.22036148316E+01 -0.60139466757E+02  0.14112419010E+03  0.15349181872E+03  0.47000000000E+01 0. -1.
         -5    1    3    3    0  502  0.15456711435E+02  0.63287629999E+02  0.16342381327E+03  0.17599337142E+03  0.47000000000E+01 0. -1.
          5    1    4    4  503    0 -0.51623131587E+02 -0.13993831414E+02  0.99649816001E+02  0.11319430578E+03  0.47000000000E+01 0.  1.
         -5    1    4    4    0  503  0.38370034984E+02  0.10845668173E+02  0.40098434558E+03  0.40298935905E+03  0.47000000000E+01 0.  1.
<mgrwt>
<rscale>  0 0.12574184E+03</rscale>
<asrwt>0</asrwt>
<pdfrwt beam="1">  1        5 0.12698853E+00 0.12574185E+03</pdfrwt>
<pdfrwt beam="2">  1       -5 0.31143611E-02 0.12574185E+03</pdfrwt>
<totfact> 0.17363821E+02</totfact>
</mgrwt>
</event>
<event>
 8    1  0.1865596E-007  0.1250909E+03  0.7546771E-02  0.1234929E+00
          5   -1    0    0  501    0  0.00000000000E+00  0.00000000000E+00  0.65816644836E+02  0.65984246131E+02  0.47000000000E+01 0.  1.
         -5   -1    0    0    0  501 -0.00000000000E+00 -0.00000000000E+00 -0.24723474553E+03  0.24727941563E+03  0.47000000000E+01 0.  1.
         25    2    1    2    0    0 -0.45516365754E+01 -0.12307508671E+01 -0.12217795980E+03  0.17485434189E+03  0.12499741948E+03 0.  0.
         25    2    1    2    0    0  0.45516365754E+01  0.12307508671E+01 -0.59240140897E+02  0.13840931987E+03  0.12500205354E+03 0.  0.
          5    1    4    4  502    0 -0.45165044796E+02 -0.31002866744E+02 -0.56605167839E+02  0.78913205763E+02  0.47000000000E+01 0. -1.
         -5    1    4    4    0  502  0.49716681371E+02  0.32233617611E+02 -0.26349730585E+01  0.59496114108E+02  0.47000000000E+01 0. -1.
          5    1    3    3  503    0 -0.54630384848E+02 -0.33812106196E+02 -0.72745037814E+02  0.97168245845E+02  0.47000000000E+01 0.  1.
         -5    1    3    3    0  503  0.50078748273E+02  0.32581355329E+02 -0.49432921981E+02  0.77686096049E+02  0.47000000000E+01 0.  1.
<mgrwt>
<rscale>  0 0.12508979E+03</rscale>
<asrwt>0</asrwt>
<pdfrwt beam="1">  1        5 0.10141966E-01 0.12509095E+03</pdfrwt>
<pdfrwt beam="2">  1       -5 0.38052443E-01 0.12509095E+03</pdfrwt>
<totfact> 0.36766939E+02</totfact>
</mgrwt>
</event>
<event>
 8    1  0.1865596E-007  0.1514019E+03  0.7546771E-02  0.1198763E+00
          5   -1    0    0  501    0  0.00000000000E+00  0.00000000000E+00  0.49192333704E+02  0.49416350485E+02  0.47000000000E+01 0. -1.
         -5   -1    0    0    0  501 -0.00000000000E+00 -0.00000000000E+00 -0.74339307459E+03  0.74340793199E+03  0.47000000000E+01 0. -1.
         25    2    1    2    0    0 -0.82122110593E+02  0.23486581192E+02 -0.58980122037E+03  0.60892365361E+03  0.12500750310E+03 0.  0.
         25    2    1    2    0    0  0.82122110593E+02 -0.23486581192E+02 -0.10439952052E+03  0.18390062887E+03  0.12499808347E+03 0.  0.
          5    1    3    3  502    0 -0.14719992927E+02  0.25184005922E+01 -0.46654694554E+03  0.46680955745E+03  0.47000000000E+01 0. -1.
         -5    1    3    3    0  502 -0.67402117666E+02  0.20968180600E+02 -0.12325427483E+03  0.14211409616E+03  0.47000000000E+01 0. -1.
          5    1    4    4  503    0  0.94328284873E+01 -0.63585140983E+02 -0.25618626313E+02  0.69357425134E+02  0.47000000000E+01 0. -1.
         -5    1    4    4    0  503  0.72689282106E+02  0.40098559790E+02 -0.78780894209E+02  0.11454320374E+03  0.47000000000E+01 0. -1.
<mgrwt>
<rscale>  0 0.15139996E+03</rscale>
<asrwt>0</asrwt>
<pdfrwt beam="1">  1        5 0.75864268E-02 0.15140190E+03</pdfrwt>
<pdfrwt beam="2">  1       -5 0.11438653E+00 0.15140190E+03</pdfrwt>
<totfact> 0.54848678E+01</totfact>
</mgrwt>
</event>
<event>
 8    1  0.1865596E-007  0.1407691E+03  0.7546771E-02  0.1212301E+00
          5   -1    0    0  501    0  0.00000000000E+00  0.00000000000E+00  0.63653126932E+02  0.63826409645E+02  0.47000000000E+01 0.  1.
         -5   -1    0    0    0  501 -0.00000000000E+00 -0.00000000000E+00 -0.31099312828E+03  0.31102864151E+03  0.47000000000E+01 0.  1.
         25    2    1    2    0    0  0.43881336486E+01  0.64557019404E+02 -0.12962090102E+03  0.19135102311E+03  0.12500708617E+03 0.  0.
         25    2    1    2    0    0 -0.43881336486E+01 -0.64557019404E+02 -0.11771910033E+03  0.18350402804E+03  0.12501630796E+03 0.  0.
          5    1    3    3  502    0  0.29216707714E+02  0.56290877906E+02 -0.14660350573E+03  0.15980286868E+03  0.47000000000E+01 0. -1.
         -5    1    3    3    0  502 -0.24828574065E+02  0.82661414980E+01  0.16982604708E+02  0.31548154432E+02  0.47000000000E+01 0. -1.
          5    1    4    4  503    0  0.37825814352E+02 -0.57022414385E+02 -0.12220098879E+03  0.14013393463E+03  0.47000000000E+01 0. -1.
         -5    1    4    4    0  503 -0.42213948001E+02 -0.75346050195E+01  0.44818884613E+01  0.43370093415E+02  0.47000000000E+01 0. -1.
<mgrwt>
<rscale>  0 0.14076706E+03</rscale>
<asrwt>0</asrwt>
<pdfrwt beam="1">  1        5 0.98088501E-02 0.14076911E+03</pdfrwt>
<pdfrwt beam="2">  1       -5 0.47861157E-01 0.14076911E+03</pdfrwt>
<totfact> 0.25306087E+02</totfact>
</mgrwt>
</event>
<event>
 8    1  0.1865596E-007  0.1304564E+03  0.7546771E-02  0.1226781E+00
          5   -1    0    0  501    0  0.00000000000E+00  0.00000000000E+00  0.90633053773E+03  0.90634272415E+03  0.47000000000E+01 0.  1.
         -5   -1    0    0    0  501 -0.00000000000E+00 -0.00000000000E+00 -0.18753581478E+02  0.19333567138E+02  0.47000000000E+01 0.  1.
         25    2    1    2    0    0 -0.34033530648E+02 -0.15309412289E+02  0.38784339973E+03  0.40919602070E+03  0.12500488521E+03 0.  0.
         25    2    1    2    0    0  0.34033530648E+02  0.15309412289E+02  0.49973355652E+03  0.51648027060E+03  0.12500233232E+03 0.  0.
          5    1    3    3  502    0 -0.32792120094E+02 -0.24065717308E+02  0.39485374087E+03  0.39697109286E+03  0.47000000000E+01 0.  1.
         -5    1    3    3    0  502 -0.12414105533E+01  0.87563050193E+01 -0.70103411365E+01  0.12224927836E+02  0.47000000000E+01 0.  1.
          5    1    4    4  503    0  0.33730283797E+02 -0.79871465215E+01  0.29819197353E+02  0.45965216037E+02  0.47000000000E+01 0. -1.
         -5    1    4    4    0  503  0.30324685081E+00  0.23296558810E+02  0.46991435917E+03  0.47051505456E+03  0.47000000000E+01 0. -1.
<mgrwt>
<rscale>  0 0.13045582E+03</rscale>
<asrwt>0</asrwt>
<pdfrwt beam="1">  1        5 0.13948098E+00 0.13045643E+03</pdfrwt>
<pdfrwt beam="2">  1       -5 0.29307189E-02 0.13045643E+03</pdfrwt>
<totfact> 0.15174257E+02</totfact>
</mgrwt>
</event>
<event>
 8    1  0.1865596E-007  0.1264512E+03  0.7546771E-02  0.1232830E+00
         -5   -1    0    0    0  501 -0.00000000000E+00  0.00000000000E+00  0.17095587581E+03  0.17102047092E+03  0.47000000000E+01 0.  1.
          5   -1    0    0  501    0  0.00000000000E+00 -0.00000000000E+00 -0.94456182745E+02  0.94573042981E+02  0.47000000000E+01 0.  1.
         25    2    1    2    0    0  0.77510055832E+01 -0.17423715950E+02  0.52490113880E+02  0.13691281591E+03  0.12500497247E+03 0.  0.
         25    2    1    2    0    0 -0.77510055832E+01  0.17423715950E+02  0.24009579183E+02  0.12868069799E+03  0.12497439008E+03 0.  0.
          5    1    3    3  502    0  0.55660295134E+02 -0.35601692389E+02  0.53958040906E+02  0.85434823894E+02  0.47000000000E+01 0. -1.
         -5    1    3    3    0  502 -0.47909289550E+02  0.18177976439E+02 -0.14679270259E+01  0.51477992020E+02  0.47000000000E+01 0. -1.
          5    1    4    4  503    0 -0.59899495605E+02  0.29730237820E+02  0.32036322364E+02  0.74298402171E+02  0.47000000000E+01 0. -1.
         -5    1    4    4    0  503  0.52148490021E+02 -0.12306521869E+02 -0.80267431818E+01  0.54382295815E+02  0.47000000000E+01 0. -1.
<mgrwt>
<rscale>  0 0.12644365E+03</rscale>
<asrwt>0</asrwt>
<pdfrwt beam="2">  1        5 0.14545679E-01 0.12645120E+03</pdfrwt>
<pdfrwt beam="1">  1       -5 0.26314862E-01 0.12645120E+03</pdfrwt>
<totfact> 0.40353355E+02</totfact>
</mgrwt>
</event>
<event>
 8    1  0.1865596E-007  0.1277299E+03  0.7546771E-02  0.1230865E+00
         -5   -1    0    0    0  501 -0.00000000000E+00  0.00000000000E+00  0.46341449500E+02  0.46579179273E+02  0.47000000000E+01 0.  1.
          5   -1    0    0  501    0  0.00000000000E+00 -0.00000000000E+00 -0.52059367095E+03  0.52061488668E+03  0.47000000000E+01 0.  1.
         25    2    1    2    0    0 -0.12365728841E+02 -0.23163531670E+02 -0.75252927478E+02  0.14824957010E+03  0.12500188595E+03 0.  0.
         25    2    1    2    0    0  0.12365728841E+02  0.23163531670E+02 -0.39899929397E+03  0.41894449585E+03  0.12499837426E+03 0.  0.
          5    1    4    4  502    0  0.76449625095E+01  0.42093576776E+01  0.71983413328E+01  0.12250316803E+02  0.47000000000E+01 0.  1.
         -5    1    4    4    0  502  0.47207663316E+01  0.18954173992E+02 -0.40619763530E+03  0.40669417905E+03  0.47000000000E+01 0.  1.
          5    1    3    3  503    0 -0.48011991801E+02 -0.53739803507E+02 -0.70315080727E+02  0.10079394037E+03  0.47000000000E+01 0.  1.
         -5    1    3    3    0  503  0.35646262960E+02  0.30576271837E+02 -0.49378467512E+01  0.47455629730E+02  0.47000000000E+01 0.  1.
<mgrwt>
<rscale>  0 0.12772906E+03</rscale>
<asrwt>0</asrwt>
<pdfrwt beam="2">  1        5 0.80111249E-01 0.12772992E+03</pdfrwt>
<pdfrwt beam="1">  1       -5 0.71493730E-02 0.12772992E+03</pdfrwt>
<totfact> 0.13564397E+02</totfact>
</mgrwt>
</event>
<event>
 8    1  0.1865596E-007  0.1629951E+03  0.7546771E-02  0.1185357E+00
          5   -1    0    0  501    0  0.00000000000E+00  0.00000000000E+00  0.14055785652E+03  0.14063641431E+03  0.47000000000E+01 0.  1.
         -5   -1    0    0    0  501 -0.00000000000E+00 -0.00000000000E+00 -0.18942886387E+03  0.18948716175E+03  0.47000000000E+01 0.  1.
         25    2    1    2    0    0 -0.94088529303E+02 -0.45707682878E+02 -0.15328847900E+02  0.16371435730E+03  0.12500229434E+03 0.  0.
         25    2    1    2    0    0  0.94088529303E+02  0.45707682878E+02 -0.33542159453E+02  0.16640921875E+03  0.12500043201E+03 0.  0.
          5    1    4    4  502    0  0.71549488393E+01 -0.20922080967E+02 -0.50636203362E+02  0.55453059931E+02  0.47000000000E+01 0. -1.
         -5    1    4    4    0  502  0.86933580464E+02  0.66629763844E+02  0.17094043909E+02  0.11095615882E+03  0.47000000000E+01 0. -1.
          5    1    3    3  503    0 -0.88356445060E+02 -0.50639467946E+02 -0.59913473908E+02  0.11824944589E+03  0.47000000000E+01 0. -1.
         -5    1    3    3    0  503 -0.57320842439E+01  0.49317850685E+01  0.44584626008E+02  0.45464911415E+02  0.47000000000E+01 0. -1.
<mgrwt>
<rscale>  0 0.16299479E+03</rscale>
<asrwt>0</asrwt>
<pdfrwt beam="1">  1        5 0.21634813E-01 0.16299514E+03</pdfrwt>
<pdfrwt beam="2">  1       -5 0.29153430E-01 0.16299514E+03</pdfrwt>
<totfact> 0.17337332E+02</totfact>
</mgrwt>
</event>
<event>
 8    1  0.1865596E-007  0.1753389E+03  0.7546771E-02  0.1172393E+00
         -5   -1    0    0    0  501 -0.00000000000E+00  0.00000000000E+00  0.84470133211E+02  0.84600788440E+02  0.47000000000E+01 0. -1.
          5   -1    0    0  501    0  0.00000000000E+00 -0.00000000000E+00 -0.36970346870E+03  0.36973334279E+03  0.47000000000E+01 0. -1.
         25    2    1    2    0    0 -0.11414420867E+03 -0.45707570599E+02 -0.11325614781E+03  0.20873303578E+03  0.12499777129E+03 0.  0.
         25    2    1    2    0    0  0.11414420867E+03  0.45707570599E+02 -0.17197718768E+03  0.24560109545E+03  0.12500265044E+03 0.  0.
          5    1    3    3  502    0 -0.13610104736E+03 -0.51672248832E+02 -0.11478672430E+03  0.18544971952E+03  0.47000000000E+01 0.  1.
         -5    1    3    3    0  502  0.21956838692E+02  0.59646782327E+01  0.15305764967E+01  0.23283316263E+02  0.47000000000E+01 0.  1.
          5    1    4    4  503    0  0.12289004580E+03  0.19994610794E+01 -0.90833601831E+02  0.15290125710E+03  0.47000000000E+01 0.  1.
         -5    1    4    4    0  503 -0.87458371265E+01  0.43708109520E+02 -0.81143585852E+02  0.92699838348E+02  0.47000000000E+01 0.  1.
<mgrwt>
<rscale>  0 0.17533807E+03</rscale>
<asrwt>0</asrwt>
<pdfrwt beam="2">  1        5 0.56889804E-01 0.17533894E+03</pdfrwt>
<pdfrwt beam="1">  1       -5 0.13007754E-01 0.17533894E+03</pdfrwt>
<totfact> 0.11378282E+02</totfact>
</mgrwt>
</event>
<event>
 8    1  0.1865596E-007  0.1374761E+03  0.7546771E-02  0.1216767E+00
          5   -1    0    0  501    0  0.00000000000E+00  0.00000000000E+00  0.15421923603E+03  0.15429083823E+03  0.47000000000E+01 0. -1.
         -5   -1    0    0    0  501 -0.00000000000E+00 -0.00000000000E+00 -0.15922610917E+03  0.15929546083E+03  0.47000000000E+01 0. -1.
         25    2    1    2    0    0  0.29914220210E+02  0.48759203942E+02 -0.77868414138E+02  0.15799558794E+03  0.12500718119E+03 0.  0.
         25    2    1    2    0    0 -0.29914220210E+02 -0.48759203942E+02  0.72861541007E+02  0.15559071112E+03  0.12500937841E+03 0.  0.
          5    1    4    4  502    0  0.42813979362E+02 -0.27209674932E+02  0.59661604393E+02  0.78453809834E+02  0.47000000000E+01 0. -1.
         -5    1    4    4    0  502 -0.72728199572E+02 -0.21549529010E+02  0.13199936614E+02  0.77136901287E+02  0.47000000000E+01 0. -1.
          5    1    3    3  503    0  0.42377179325E+02 -0.53906783123E+00 -0.95001496023E+02  0.10413208040E+03  0.47000000000E+01 0.  1.
         -5    1    3    3    0  503 -0.12462959114E+02  0.49298271773E+02  0.17133081885E+02  0.53863507541E+02  0.47000000000E+01 0.  1.
<mgrwt>
<rscale>  0 0.13747555E+03</rscale>
<asrwt>0</asrwt>
<pdfrwt beam="1">  1        5 0.23736879E-01 0.13747605E+03</pdfrwt>
<pdfrwt beam="2">  1       -5 0.24507167E-01 0.13747605E+03</pdfrwt>
<totfact> 0.19249184E+02</totfact>
</mgrwt>
</event>
<event>
 8    1  0.1865596E-007  0.1705198E+03  0.7546771E-02  0.1177313E+00
         -5   -1    0    0    0  501 -0.00000000000E+00  0.00000000000E+00  0.15318255689E+03  0.15325464344E+03  0.47000000000E+01 0. -1.
          5   -1    0    0  501    0  0.00000000000E+00 -0.00000000000E+00 -0.19558886377E+03  0.19564532612E+03  0.47000000000E+01 0. -1.
         25    2    1    2    0    0  0.40121558118E+02  0.10881921846E+03  0.91980955321E+01  0.17074273606E+03  0.12496845691E+03 0.  0.
         25    2    1    2    0    0 -0.40121558118E+02 -0.10881921846E+03 -0.51604402413E+02  0.17815723350E+03  0.12500249504E+03 0.  0.
          5    1    4    4  502    0 -0.19838869327E+02 -0.13187607753E+03 -0.59494949746E+02  0.14610482404E+03  0.47000000000E+01 0. -1.
         -5    1    4    4    0  502 -0.20282688791E+02  0.23056859073E+02  0.78905473325E+01  0.32052409459E+02  0.47000000000E+01 0. -1.
          5    1    3    3  503    0  0.34014408658E+02  0.89581455001E+02  0.61858872804E+02  0.11415089672E+03  0.47000000000E+01 0.  1.
         -5    1    3    3    0  503  0.61071494596E+01  0.19237763460E+02 -0.52660777272E+02  0.56591839344E+02  0.47000000000E+01 0.  1.
<mgrwt>
<rscale>  0 0.17051351E+03</rscale>
<asrwt>0</asrwt>
<pdfrwt beam="2">  1        5 0.30100483E-01 0.17051975E+03</pdfrwt>
<pdfrwt beam="1">  1       -5 0.23576435E-01 0.17051975E+03</pdfrwt>
<totfact> 0.14019418E+02</totfact>
</mgrwt>
</event>
<event>
 8    1  0.1865596E-007  0.1499137E+03  0.7546771E-02  0.1200580E+00
         -5   -1    0    0    0  501 -0.00000000000E+00  0.00000000000E+00  0.43174675953E+03  0.43177234090E+03  0.47000000000E+01 0. -1.
          5   -1    0    0  501    0  0.00000000000E+00 -0.00000000000E+00 -0.51920909024E+02  0.52133202413E+02  0.47000000000E+01 0. -1.
         25    2    1    2    0    0  0.68870172327E+02  0.45892878182E+02  0.19093646596E+03  0.24275677450E+03  0.12499944252E+03 0.  0.
         25    2    1    2    0    0 -0.68870172327E+02 -0.45892878182E+02  0.18888938455E+03  0.24114876881E+03  0.12499708876E+03 0.  0.
          5    1    3    3  502    0  0.43029940134E+02  0.72415481809E+02  0.18709045573E+03  0.20523281019E+03  0.47000000000E+01 0. -1.
         -5    1    3    3    0  502  0.25840232193E+02 -0.26522603627E+02  0.38460102270E+01  0.37523964312E+02  0.47000000000E+01 0. -1.
          5    1    4    4  503    0  0.68382646961E+01 -0.27187400305E+02 -0.78292871489E+01  0.29483967452E+02  0.47000000000E+01 0.  1.
         -5    1    4    4    0  503 -0.75708437023E+02 -0.18705477876E+02  0.19671867169E+03  0.21166480135E+03  0.47000000000E+01 0.  1.
<mgrwt>
<rscale>  0 0.14991321E+03</rscale>
<asrwt>0</asrwt>
<pdfrwt beam="2">  1        5 0.80061302E-02 0.14991370E+03</pdfrwt>
<pdfrwt beam="1">  1       -5 0.66440877E-01 0.14991370E+03</pdfrwt>
<totfact> 0.18034762E+02</totfact>
</mgrwt>
</event>
<event>
 8    1  0.1865596E-007  0.1263112E+03  0.7546771E-02  0.1233036E+00
          5   -1    0    0  501    0  0.00000000000E+00  0.00000000000E+00  0.56285875870E+02  0.56481765397E+02  0.47000000000E+01 0.  1.
         -5   -1    0    0    0  501 -0.00000000000E+00 -0.00000000000E+00 -0.28456913206E+03  0.28460794248E+03  0.47000000000E+01 0.  1.
         25    2    1    2    0    0 -0.12057124556E+02 -0.13548488426E+02 -0.12780886415E+03  0.17969077009E+03  0.12499892523E+03 0.  0.
         25    2    1    2    0    0  0.12057124556E+02  0.13548488426E+02 -0.10047439204E+03  0.16139893779E+03  0.12500231147E+03 0.  0.
          5    1    3    3  502    0  0.14030829471E+02  0.52198182940E+02 -0.43505080015E+02  0.69543486144E+02  0.47000000000E+01 0. -1.
         -5    1    3    3    0  502 -0.26087954027E+02 -0.65746671367E+02 -0.84303784135E+02  0.11014728395E+03  0.47000000000E+01 0. -1.
          5    1    4    4  503    0  0.80646577729E+01  0.38246677465E+02 -0.12191646091E+03  0.12811541860E+03  0.47000000000E+01 0.  1.
         -5    1    4    4    0  503  0.39924667831E+01 -0.24698189038E+02  0.21442068862E+02  0.33283519193E+02  0.47000000000E+01 0.  1.
<mgrwt>
<rscale>  0 0.12631034E+03</rscale>
<asrwt>0</asrwt>
<pdfrwt beam="1">  1        5 0.86774195E-02 0.12631118E+03</pdfrwt>
<pdfrwt beam="2">  1       -5 0.43797920E-01 0.12631118E+03</pdfrwt>
<totfact> 0.36252456E+02</totfact>
</mgrwt>
</event>
<event>
 8    1  0.1865596E-007  0.1281940E+03  0.7546771E-02  0.1230160E+00
         -5   -1    0    0    0  501 -0.00000000000E+00  0.00000000000E+00  0.65215622887E+02  0.65384764805E+02  0.47000000000E+01 0. -1.
          5   -1    0    0  501    0  0.00000000000E+00 -0.00000000000E+00 -0.25185489637E+03  0.25189874717E+03  0.47000000000E+01 0. -1.
         25    2    1    2    0    0 -0.21892009739E+02 -0.18199146204E+02 -0.87140487654E+02  0.15500702623E+03  0.12499297812E+03 0.  0.
         25    2    1    2    0    0  0.21892009739E+02  0.18199146204E+02 -0.99498785828E+02  0.16227648574E+03  0.12499272151E+03 0.  0.
          5    1    4    4  502    0  0.58893248727E+02  0.38022157268E+02 -0.97254883779E+02  0.11997792133E+03  0.47000000000E+01 0. -1.
         -5    1    4    4    0  502 -0.37001238988E+02 -0.19823011064E+02 -0.22439020492E+01  0.42298564405E+02  0.47000000000E+01 0. -1.
          5    1    3    3  503    0 -0.15006330449E+00  0.31813945761E+02  0.17721157025E+02  0.36718919785E+02  0.47000000000E+01 0.  1.
         -5    1    3    3    0  503 -0.21741946434E+02 -0.50013091965E+02 -0.10486164468E+03  0.11828810645E+03  0.47000000000E+01 0.  1.
<mgrwt>
<rscale>  0 0.12819398E+03</rscale>
<asrwt>0</asrwt>
<pdfrwt beam="2">  1        5 0.38763291E-01 0.12819405E+03</pdfrwt>
<pdfrwt beam="1">  1       -5 0.10049557E-01 0.12819405E+03</pdfrwt>
<totfact> 0.36308771E+02</totfact>
</mgrwt>
</event>
<event>
 8    1  0.1865596E-007  0.1414404E+03  0.7546771E-02  0.1211406E+00
         -5   -1    0    0    0  501 -0.00000000000E+00  0.00000000000E+00  0.34670193556E+03  0.34673379143E+03  0.47000000000E+01 0. -1.
          5   -1    0    0  501    0  0.00000000000E+00 -0.00000000000E+00 -0.64742510609E+02  0.64912885315E+02  0.47000000000E+01 0. -1.
         25    2    1    2    0    0  0.38179732364E+02 -0.54053551149E+02  0.20937883331E+03  0.25267544636E+03  0.12500362795E+03 0.  0.
         25    2    1    2    0    0 -0.38179732364E+02  0.54053551149E+02  0.72580591635E+02  0.15897123038E+03  0.12499772579E+03 0.  0.
          5    1    4    4  502    0 -0.64124212887E+02  0.80161529221E+02  0.42494867121E+02  0.11120112039E+03  0.47000000000E+01 0. -1.
         -5    1    4    4    0  502  0.25944480523E+02 -0.26107978072E+02  0.30085724515E+02  0.47770109987E+02  0.47000000000E+01 0. -1.
          5    1    3    3  503    0  0.68562087009E+02  0.78835815590E+01  0.13109414216E+03  0.14822508136E+03  0.47000000000E+01 0. -1.
         -5    1    3    3    0  503 -0.30382354645E+02 -0.61937132708E+02  0.78284691150E+02  0.10445036501E+03  0.47000000000E+01 0. -1.
<mgrwt>
<rscale>  0 0.14143909E+03</rscale>
<asrwt>0</asrwt>
<pdfrwt beam="2">  1        5 0.99759425E-02 0.14144040E+03</pdfrwt>
<pdfrwt beam="1">  1       -5 0.53354315E-01 0.14144040E+03</pdfrwt>
<totfact> 0.19537827E+02</totfact>
</mgrwt>
</event>
<event>
 8    1  0.1865596E-007  0.1364308E+03  0.7546771E-02  0.1218222E+00
          5   -1    0    0  501    0  0.00000000000E+00  0.00000000000E+00  0.13136173935E+02  0.13951668920E+02  0.47000000000E+01 0. -1.
         -5   -1    0    0    0  501 -0.00000000000E+00 -0.00000000000E+00 -0.13732875528E+04  0.13732955956E+04  0.47000000000E+01 0. -1.
         25    2    1    2    0    0  0.49257131529E+02  0.23551667634E+02 -0.68433582723E+03  0.69780289400E+03  0.12502963006E+03 0.  0.
         25    2    1    2    0    0 -0.49257131529E+02 -0.23551667634E+02 -0.67581555168E+03  0.68944437048E+03  0.12500373611E+03 0.  0.
          5    1    4    4  502    0 -0.90707634093E+02 -0.70908336984E+01 -0.47858556287E+03  0.48718003428E+03  0.47000000000E+01 0. -1.
         -5    1    4    4    0  502  0.41450502565E+02 -0.16460833936E+02 -0.19722998880E+03  0.20226433620E+03  0.47000000000E+01 0. -1.
          5    1    3    3  503    0  0.16056805583E+02  0.19957064153E+02 -0.20583755343E+02  0.33194674260E+02  0.47000000000E+01 0. -1.
         -5    1    3    3    0  503  0.33200325945E+02  0.35946034810E+01 -0.66375207188E+03  0.66460821974E+03  0.47000000000E+01 0. -1.
<mgrwt>
<rscale>  0 0.13642484E+03</rscale>
<asrwt>0</asrwt>
<pdfrwt beam="1">  1        5 0.20843000E-02 0.13643077E+03</pdfrwt>
<pdfrwt beam="2">  1       -5 0.21133825E+00 0.13643077E+03</pdfrwt>
<totfact> 0.79613725E+01</totfact>
</mgrwt>
</event>
<event>
 8    1  0.1865596E-007  0.1393598E+03  0.7546771E-02  0.1214218E+00
         -5   -1    0    0    0  501 -0.00000000000E+00  0.00000000000E+00  0.63711941985E+02  0.63885065168E+02  0.47000000000E+01 0.  1.
          5   -1    0    0  501    0  0.00000000000E+00 -0.00000000000E+00 -0.31548162306E+03  0.31551663108E+03  0.47000000000E+01 0.  1.
         25    2    1    2    0    0  0.55507587088E+02  0.26345457654E+02 -0.89837502445E+02  0.16580690246E+03  0.12508387863E+03 0.  0.
         25    2    1    2    0    0 -0.55507587088E+02 -0.26345457654E+02 -0.16193217863E+03  0.21359479379E+03  0.12500212036E+03 0.  0.
          5    1    4    4  502    0 -0.89644272288E+02 -0.29552393178E+02 -0.14941172361E+03  0.17679194736E+03  0.47000000000E+01 0.  1.
         -5    1    4    4    0  502  0.34136685199E+02  0.32069355240E+01 -0.12520455016E+02  0.36802846434E+02  0.47000000000E+01 0.  1.
          5    1    3    3  503    0  0.34423993181E+02 -0.49348764962E+02 -0.44323637096E+02  0.74879815139E+02  0.47000000000E+01 0. -1.
         -5    1    3    3    0  503  0.21083593907E+02  0.75694222616E+02 -0.45513865349E+02  0.90927087320E+02  0.47000000000E+01 0. -1.
<mgrwt>
<rscale>  0 0.13934145E+03</rscale>
<asrwt>0</asrwt>
<pdfrwt beam="2">  1        5 0.48551644E-01 0.13935979E+03</pdfrwt>
<pdfrwt beam="1">  1       -5 0.98178475E-02 0.13935979E+03</pdfrwt>
<totfact> 0.24431404E+02</totfact>
</mgrwt>
</event>
<event>
 8    1  0.1865596E-007  0.1303287E+03  0.7546771E-02  0.1226970E+00
         -5   -1    0    0    0  501 -0.00000000000E+00  0.00000000000E+00  0.70369442980E+03  0.70371012536E+03  0.47000000000E+01 0.  1.
          5   -1    0    0  501    0  0.00000000000E+00 -0.00000000000E+00 -0.24092709349E+02  0.24546866272E+02  0.47000000000E+01 0.  1.
         25    2    1    2    0    0  0.36013128310E+02 -0.79605986472E+01  0.37269353812E+03  0.39482304051E+03  0.12499777363E+03 0.  0.
         25    2    1    2    0    0 -0.36013128310E+02  0.79605986472E+01  0.30690818233E+03  0.33343395113E+03  0.12500100337E+03 0.  0.
          5    1    3    3  502    0  0.56843247353E+02  0.28860141299E+02  0.32357125385E+03  0.32982496698E+03  0.47000000000E+01 0.  1.
         -5    1    3    3    0  502 -0.20830119043E+02 -0.36820739946E+02  0.49122284271E+02  0.64998073522E+02  0.47000000000E+01 0.  1.
          5    1    4    4  503    0  0.27974059867E+02  0.34022061199E+01  0.10997112866E+02  0.30612897989E+02  0.47000000000E+01 0.  1.
         -5    1    4    4    0  503 -0.63987188176E+02  0.45583925273E+01  0.29591106946E+03  0.30282105314E+03  0.47000000000E+01 0.  1.
<mgrwt>
<rscale>  0 0.13032792E+03</rscale>
<asrwt>0</asrwt>
<pdfrwt beam="2">  1        5 0.37427130E-02 0.13032869E+03</pdfrwt>
<pdfrwt beam="1">  1       -5 0.10829683E+00 0.13032869E+03</pdfrwt>
<totfact> 0.19500377E+02</totfact>
</mgrwt>
</event>
<event>
 8    1  0.1865596E-007  0.1271816E+03  0.7546771E-02  0.1231700E+00
         -5   -1    0    0    0  501 -0.00000000000E+00  0.00000000000E+00  0.31378388797E+02  0.31728430209E+02  0.47000000000E+01 0.  1.
          5   -1    0    0  501    0  0.00000000000E+00 -0.00000000000E+00 -0.61743212671E+03  0.61745001505E+03  0.47000000000E+01 0.  1.
         25    2    1    2    0    0 -0.17961689210E+02 -0.15007652791E+02 -0.15909702322E+03  0.20368187849E+03  0.12500637148E+03 0.  0.
         25    2    1    2    0    0  0.17961689210E+02  0.15007652791E+02 -0.42695671470E+03  0.44549656677E+03  0.12500921109E+03 0.  0.
          5    1    4    4  502    0 -0.15894797719E+02  0.42200075591E+02 -0.37450751033E+03  0.37724190683E+03  0.47000000000E+01 0. -1.
         -5    1    4    4    0  502  0.33856486929E+02 -0.27192422800E+02 -0.52449204361E+02  0.68254659936E+02  0.47000000000E+01 0. -1.
          5    1    3    3  503    0 -0.68415090242E+02  0.10644101241E+02 -0.74772377848E+02  0.10201431249E+03  0.47000000000E+01 0.  1.
         -5    1    3    3    0  503  0.50453401032E+02 -0.25651754033E+02 -0.84324645367E+02  0.10166756600E+03  0.47000000000E+01 0.  1.
<mgrwt>
<rscale>  0 0.12718088E+03</rscale>
<asrwt>0</asrwt>
<pdfrwt beam="2">  1        5 0.95017851E-01 0.12718158E+03</pdfrwt>
<pdfrwt beam="1">  1       -5 0.48557472E-02 0.12718158E+03</pdfrwt>
<totfact> 0.17341298E+02</totfact>
</mgrwt>
</event>
<event>
 8    1  0.1865596E-007  0.1316924E+03  0.7546771E-02  0.1224967E+00
         -5   -1    0    0    0  501 -0.00000000000E+00  0.00000000000E+00  0.48960004021E+02  0.49185078974E+02  0.47000000000E+01 0. -1.
          5   -1    0    0  501    0  0.00000000000E+00 -0.00000000000E+00 -0.41482960275E+03  0.41485622728E+03  0.47000000000E+01 0. -1.
         25    2    1    2    0    0  0.41155331575E+02  0.45350996779E+01 -0.93501569661E+02  0.16150663693E+03  0.12501008679E+03 0.  0.
         25    2    1    2    0    0 -0.41155331575E+02 -0.45350996779E+01 -0.27236802907E+03  0.30253466932E+03  0.12501421695E+03 0.  0.
          5    1    3    3  502    0  0.14089744392E+02 -0.32276427388E+02 -0.10771698641E+03  0.11342542847E+03  0.47000000000E+01 0.  1.
         -5    1    3    3    0  502  0.27065587183E+02  0.36811527066E+02  0.14215416746E+02  0.48081208468E+02  0.47000000000E+01 0.  1.
          5    1    4    4  503    0 -0.46254187652E+02  0.38363152981E+02 -0.24231557018E+03  0.24970003391E+03  0.47000000000E+01 0.  1.
         -5    1    4    4    0  503  0.50988560775E+01 -0.42898252659E+02 -0.30052458887E+02  0.52834635417E+02  0.47000000000E+01 0.  1.
<mgrwt>
<rscale>  0 0.13169140E+03</rscale>
<asrwt>0</asrwt>
<pdfrwt beam="2">  1        5 0.63839298E-01 0.13169238E+03</pdfrwt>
<pdfrwt beam="1">  1       -5 0.75516701E-02 0.13169238E+03</pdfrwt>
<totfact> 0.20864976E+02</totfact>
</mgrwt>
</event>
<event>
 8    1  0.1865596E-007  0.1410399E+03  0.7546771E-02  0.1211937E+00
          5   -1    0    0  501    0  0.00000000000E+00  0.00000000000E+00  0.77629958981E+02  0.77772106384E+02  0.47000000000E+01 0.  1.
         -5   -1    0    0    0  501 -0.00000000000E+00 -0.00000000000E+00 -0.25768389262E+03  0.25772675165E+03  0.47000000000E+01 0.  1.
         25    2    1    2    0    0  0.61281857868E+02  0.22614422536E+02 -0.75848359320E+02  0.16014130831E+03  0.12500154722E+03 0.  0.
         25    2    1    2    0    0 -0.61281857868E+02 -0.22614422536E+02 -0.10420557432E+03  0.17535754972E+03  0.12499836125E+03 0.  0.
          5    1    3    3  502    0  0.26900933064E+00 -0.45825828209E+02 -0.99453206086E+01  0.47128317380E+02  0.47000000000E+01 0. -1.
         -5    1    3    3    0  502  0.61012848537E+02  0.68440250745E+02 -0.65903038712E+02  0.11301299093E+03  0.47000000000E+01 0. -1.
          5    1    4    4  503    0  0.88786506276E+01  0.33914744116E+02  0.26932377839E+01  0.35473706251E+02  0.47000000000E+01 0. -1.
         -5    1    4    4    0  503 -0.70160508496E+02 -0.56529166652E+02 -0.10689881211E+03  0.13988384347E+03  0.47000000000E+01 0. -1.
<mgrwt>
<rscale>  0 0.14103924E+03</rscale>
<asrwt>0</asrwt>
<pdfrwt beam="1">  1        5 0.11957302E-01 0.14103994E+03</pdfrwt>
<pdfrwt beam="2">  1       -5 0.39657907E-01 0.14103994E+03</pdfrwt>
<totfact> 0.26403421E+02</totfact>
</mgrwt>
</event>
<event>
 8    1  0.1865596E-007  0.1309355E+03  0.7546771E-02  0.1226074E+00
          5   -1    0    0  501    0  0.00000000000E+00  0.00000000000E+00  0.12424335459E+03  0.12433222092E+03  0.47000000000E+01 0. -1.
         -5   -1    0    0    0  501 -0.00000000000E+00 -0.00000000000E+00 -0.14507725831E+03  0.14515337020E+03  0.47000000000E+01 0. -1.
         25    2    1    2    0    0 -0.27219206113E+02  0.27889227260E+02 -0.40557661268E+02  0.13707285775E+03  0.12500140106E+03 0.  0.
         25    2    1    2    0    0  0.27219206113E+02 -0.27889227260E+02  0.19723757544E+02  0.13241273336E+03  0.12500164466E+03 0.  0.
          5    1    4    4  502    0  0.25117844773E+02 -0.34240034828E+02  0.69710728464E+02  0.81761615529E+02  0.47000000000E+01 0. -1.
         -5    1    4    4    0  502  0.21013613398E+01  0.63508075672E+01 -0.49986970920E+02  0.50651117835E+02  0.47000000000E+01 0. -1.
          5    1    3    3  503    0  0.15357295560E+02  0.35590632036E+02 -0.73002034269E+02  0.82788444985E+02  0.47000000000E+01 0.  1.
         -5    1    3    3    0  503 -0.42576501673E+02 -0.77014047758E+01  0.32444373001E+02  0.54284412769E+02  0.47000000000E+01 0.  1.
<mgrwt>
<rscale>  0 0.13093544E+03</rscale>
<asrwt>0</asrwt>
<pdfrwt beam="1">  1        5 0.19127053E-01 0.13093550E+03</pdfrwt>
<pdfrwt beam="2">  1       -5 0.22332269E-01 0.13093550E+03</pdfrwt>
<totfact> 0.33883544E+02</totfact>
</mgrwt>
</event>
<event>
 8    1  0.1865596E-007  0.1289817E+03  0.7546771E-02  0.1228978E+00
          5   -1    0    0  501    0  0.00000000000E+00  0.00000000000E+00  0.12629153793E+02  0.13475367361E+02  0.47000000000E+01 0.  1.
         -5   -1    0    0    0  501 -0.00000000000E+00 -0.00000000000E+00 -0.12816676842E+04  0.12816763019E+04  0.47000000000E+01 0.  1.
         25    2    1    2    0    0 -0.31637572868E+02 -0.28142752698E+01 -0.58324854635E+03  0.59733781297E+03  0.12499895927E+03 0.  0.
         25    2    1    2    0    0  0.31637572868E+02  0.28142752698E+01 -0.68578998410E+03  0.69781385628E+03  0.12500967792E+03 0.  0.
          5    1    3    3  502    0  0.39543974520E+02  0.43557114830E+01 -0.85113216687E+02  0.94069377580E+02  0.47000000000E+01 0. -1.
         -5    1    3    3    0  502 -0.71181547387E+02 -0.71699867528E+01 -0.49813532966E+03  0.50326843539E+03  0.47000000000E+01 0. -1.
          5    1    4    4  503    0  0.35858801382E+02  0.15687635138E+02 -0.68178700566E+03  0.68292574019E+03  0.47000000000E+01 0. -1.
         -5    1    4    4    0  503 -0.42212285149E+01 -0.12873359868E+02 -0.40029784419E+01  0.14888116095E+02  0.47000000000E+01 0. -1.
<mgrwt>
<rscale>  0 0.12897909E+03</rscale>
<asrwt>0</asrwt>
<pdfrwt beam="1">  1        5 0.20087040E-02 0.12898169E+03</pdfrwt>
<pdfrwt beam="2">  1       -5 0.19724530E+00 0.12898169E+03</pdfrwt>
<totfact> 0.10311120E+02</totfact>
</mgrwt>
</event>
<event>
 8    1  0.1865596E-007  0.1742762E+03  0.7546771E-02  0.1173461E+00
         -5   -1    0    0    0  501 -0.00000000000E+00  0.00000000000E+00  0.57658574263E+03  0.57660489818E+03  0.47000000000E+01 0.  1.
          5   -1    0    0  501    0  0.00000000000E+00 -0.00000000000E+00 -0.56229929321E+02  0.56426013075E+02  0.47000000000E+01 0.  1.
         25    2    1    2    0    0  0.12081158215E+03 -0.12324402149E+02  0.34098256401E+03  0.38293699707E+03  0.12499722197E+03 0.  0.
         25    2    1    2    0    0 -0.12081158215E+03  0.12324402149E+02  0.17937324930E+03  0.25009391418E+03  0.12499949629E+03 0.  0.
          5    1    3    3  502    0  0.99318725555E+01  0.31564060942E+02  0.17698151094E+03  0.18010962565E+03  0.47000000000E+01 0. -1.
         -5    1    3    3    0  502  0.11087970960E+03 -0.43888463091E+02  0.16400105307E+03  0.20282737143E+03  0.47000000000E+01 0. -1.
          5    1    4    4  503    0  0.82663465661E+01 -0.33172928253E+02  0.55967956390E+02  0.65751637219E+02  0.47000000000E+01 0.  1.
         -5    1    4    4    0  503 -0.12907792872E+03  0.45497330402E+02  0.12340529291E+03  0.18434227696E+03  0.47000000000E+01 0.  1.
<mgrwt>
<rscale>  0 0.17427582E+03</rscale>
<asrwt>0</asrwt>
<pdfrwt beam="2">  1        5 0.86673150E-02 0.17427623E+03</pdfrwt>
<pdfrwt beam="1">  1       -5 0.88722058E-01 0.17427623E+03</pdfrwt>
<totfact> 0.84595466E+01</totfact>
</mgrwt>
</event>
<event>
 8    1  0.1865596E-007  0.1699106E+03  0.7546771E-02  0.1177945E+00
          5   -1    0    0  501    0  0.00000000000E+00  0.00000000000E+00  0.16548575666E+03  0.16555248611E+03  0.47000000000E+01 0.  1.
         -5   -1    0    0    0  501 -0.00000000000E+00 -0.00000000000E+00 -0.17641020593E+03  0.17647280458E+03  0.47000000000E+01 0.  1.
         25    2    1    2    0    0  0.11359952112E+03 -0.18350375108E+02  0.13208956102E+02  0.17042325196E+03  0.12501208270E+03 0.  0.
         25    2    1    2    0    0 -0.11359952112E+03  0.18350375108E+02 -0.24133405373E+02  0.17160203873E+03  0.12499300370E+03 0.  0.
          5    1    4    4  502    0 -0.56935031980E+02 -0.13889467092E+02 -0.70251194817E+02  0.91606962267E+02  0.47000000000E+01 0. -1.
         -5    1    4    4    0  502 -0.56664489139E+02  0.32239842199E+02  0.46117789444E+02  0.79995076459E+02  0.47000000000E+01 0. -1.
          5    1    3    3  503    0 -0.24391246202E+02  0.12244593893E+02 -0.39192134392E+01  0.27969862439E+02  0.47000000000E+01 0.  1.
         -5    1    3    3    0  503  0.13799076732E+03 -0.30594969001E+02  0.17128169541E+02  0.14245338952E+03  0.47000000000E+01 0.  1.
<mgrwt>
<rscale>  0 0.16990708E+03</rscale>
<asrwt>0</asrwt>
<pdfrwt beam="1">  1        5 0.25469295E-01 0.16991059E+03</pdfrwt>
<pdfrwt beam="2">  1       -5 0.27149980E-01 0.16991059E+03</pdfrwt>
<totfact> 0.14777964E+02</totfact>
</mgrwt>
</event>
<event>
 8    1  0.1865596E-007  0.1698645E+03  0.7546771E-02  0.1177989E+00
         -5   -1    0    0    0  501 -0.00000000000E+00  0.00000000000E+00  0.78257447999E+02  0.78398457685E+02  0.47000000000E+01 0.  1.
          5   -1    0    0  501    0  0.00000000000E+00 -0.00000000000E+00 -0.37274650728E+03  0.37277613750E+03  0.47000000000E+01 0.  1.
         25    2    1    2    0    0  0.79938489845E+02  0.82694216924E+02 -0.12237825356E+03  0.20935632523E+03  0.12500055319E+03 0.  0.
         25    2    1    2    0    0 -0.79938489845E+02 -0.82694216924E+02 -0.17211080572E+03  0.24181826996E+03  0.12500180226E+03 0.  0.
          5    1    4    4  502    0  0.22726564374E+02 -0.56999340630E+02 -0.44389713182E+02  0.75881211093E+02  0.47000000000E+01 0.  1.
         -5    1    4    4    0  502 -0.10266505422E+03 -0.25694876293E+02 -0.12772109254E+03  0.16593705887E+03  0.47000000000E+01 0.  1.
          5    1    3    3  503    0 -0.27980845750E+02  0.47993090595E+02 -0.49102408677E+02  0.74292671318E+02  0.47000000000E+01 0.  1.
         -5    1    3    3    0  503  0.10791933560E+03  0.34701126329E+02 -0.73275844884E+02  0.13506365391E+03  0.47000000000E+01 0.  1.
<mgrwt>
<rscale>  0 0.16986426E+03</rscale>
<asrwt>0</asrwt>
<pdfrwt beam="2">  1        5 0.57358742E-01 0.16986449E+03</pdfrwt>
<pdfrwt beam="1">  1       -5 0.12052734E-01 0.16986449E+03</pdfrwt>
<totfact> 0.12688211E+02</totfact>
</mgrwt>
</event>
<event>
 8    1  0.1865596E-007  0.1350375E+03  0.7546771E-02  0.1220189E+00
          5   -1    0    0  501    0  0.00000000000E+00  0.00000000000E+00  0.67021260976E+02  0.67185857313E+02  0.47000000000E+01 0.  1.
         -5   -1    0    0    0  501 -0.00000000000E+00 -0.00000000000E+00 -0.27157604224E+03  0.27161670921E+03  0.47000000000E+01 0.  1.
         25    2    1    2    0    0  0.91350641006E+01 -0.50097389482E+02 -0.10618387465E+03  0.17178516457E+03  0.12506770048E+03 0.  0.
         25    2    1    2    0    0 -0.91350641006E+01  0.50097389482E+02 -0.98370906620E+02  0.16701740195E+03  0.12499911782E+03 0.  0.
          5    1    3    3  502    0  0.31246188173E+02  0.34573418159E+02 -0.29644069588E+02  0.55430193760E+02  0.47000000000E+01 0. -1.
         -5    1    3    3    0  502 -0.22111124072E+02 -0.84670807641E+02 -0.76539805058E+02  0.11635497081E+03  0.47000000000E+01 0. -1.
          5    1    4    4  503    0 -0.47291926981E+02  0.47132590890E+02 -0.63376522619E+01  0.67232903535E+02  0.47000000000E+01 0.  1.
         -5    1    4    4    0  503  0.38156862880E+02  0.29647985923E+01 -0.92033254358E+02  0.99784498412E+02  0.47000000000E+01 0.  1.
<mgrwt>
<rscale>  0 0.13502162E+03</rscale>
<asrwt>0</asrwt>
<pdfrwt beam="1">  1        5 0.10326753E-01 0.13503750E+03</pdfrwt>
<pdfrwt beam="2">  1       -5 0.41796718E-01 0.13503750E+03</pdfrwt>
<totfact> 0.30237142E+02</totfact>
</mgrwt>
</event>
<event>
 8    1  0.1865596E-007  0.1431547E+03  0.7546771E-02  0.1209146E+00
          5   -1    0    0  501    0  0.00000000000E+00  0.00000000000E+00  0.86232054323E+02  0.86360043960E+02  0.47000000000E+01 0. -1.
         -5   -1    0    0    0  501 -0.00000000000E+00 -0.00000000000E+00 -0.23808959321E+03  0.23813597879E+03  0.47000000000E+01 0. -1.
         25    2    1    2    0    0 -0.32615640425E+00  0.69774871615E+02 -0.66732815150E+02  0.15794424978E+03  0.12499791331E+03 0.  0.
         25    2    1    2    0    0  0.32615640425E+00 -0.69774871615E+02 -0.85124723740E+02  0.16655177298E+03  0.12499854161E+03 0.  0.
          5    1    4    4  502    0 -0.40204388090E+02 -0.66458474219E+02 -0.96593988446E+02  0.12403874484E+03  0.47000000000E+01 0. -1.
         -5    1    4    4    0  502  0.40530544494E+02 -0.33163973964E+01  0.11469264706E+02  0.42513028140E+02  0.47000000000E+01 0. -1.
          5    1    3    3  503    0  0.58271582517E+02  0.99915790517E+01 -0.27279553815E+02  0.65281490771E+02  0.47000000000E+01 0.  1.
         -5    1    3    3    0  503 -0.58597738921E+02  0.59783292564E+02 -0.39453261334E+02  0.92662759005E+02  0.47000000000E+01 0.  1.
<mgrwt>
<rscale>  0 0.14315459E+03</rscale>
<asrwt>0</asrwt>
<pdfrwt beam="1">  1        5 0.13279883E-01 0.14315472E+03</pdfrwt>
<pdfrwt beam="2">  1       -5 0.36642581E-01 0.14315472E+03</pdfrwt>
<totfact> 0.25848756E+02</totfact>
</mgrwt>
</event>
<event>
 8    1  0.1865596E-007  0.1518386E+03  0.7546771E-02  0.1198233E+00
          5   -1    0    0  501    0  0.00000000000E+00  0.00000000000E+00  0.38760668747E+03  0.38763518180E+03  0.47000000000E+01 0. -1.
         -5   -1    0    0    0  501 -0.00000000000E+00 -0.00000000000E+00 -0.59855095827E+02  0.60039341239E+02  0.47000000000E+01 0. -1.
         25    2    1    2    0    0 -0.83209433788E+02 -0.22473347385E+02  0.14346166784E+03  0.20889281213E+03  0.12500438234E+03 0.  0.
         25    2    1    2    0    0  0.83209433788E+02  0.22473347385E+02  0.18428992380E+03  0.23878171092E+03  0.12500027296E+03 0.  0.
          5    1    3    3  502    0  0.15246105000E+02  0.10123034506E+02  0.90299707165E+02  0.92255334043E+02  0.47000000000E+01 0.  1.
         -5    1    3    3    0  502 -0.98455538788E+02 -0.32596381891E+02  0.53161960677E+02  0.11663747808E+03  0.47000000000E+01 0.  1.
          5    1    4    4  503    0 -0.22874885222E+02  0.64215777517E+01 -0.14130962078E+01  0.24260747632E+02  0.47000000000E+01 0. -1.
         -5    1    4    4    0  503  0.10608431901E+03  0.16051769633E+02  0.18570302001E+03  0.21452096329E+03  0.47000000000E+01 0. -1.
<mgrwt>
<rscale>  0 0.15183774E+03</rscale>
<asrwt>0</asrwt>
<pdfrwt beam="1">  1        5 0.59648164E-01 0.15183859E+03</pdfrwt>
<pdfrwt beam="2">  1       -5 0.92248407E-02 0.15183859E+03</pdfrwt>
<totfact> 0.17999433E+02</totfact>
</mgrwt>
</event>
<event>
 8    1  0.1865596E-007  0.1415571E+03  0.7546771E-02  0.1211251E+00
          5   -1    0    0  501    0  0.00000000000E+00  0.00000000000E+00  0.99309271117E+02  0.99420427125E+02  0.47000000000E+01 0.  1.
         -5   -1    0    0    0  501 -0.00000000000E+00 -0.00000000000E+00 -0.22029245971E+03  0.22034259190E+03  0.47000000000E+01 0.  1.
         25    2    1    2    0    0 -0.40201961302E+02 -0.52884594843E+02 -0.10714852025E+03  0.17753143832E+03  0.12499451242E+03 0.  0.
         25    2    1    2    0    0  0.40201961302E+02  0.52884594843E+02 -0.13834668342E+02  0.14223158071E+03  0.12500178574E+03 0.  0.
          5    1    3    3  502    0 -0.52525618635E+01 -0.89875061151E+02 -0.73812821484E+02  0.11651411347E+03  0.47000000000E+01 0.  1.
         -5    1    3    3    0  502 -0.34949399438E+02  0.36990466308E+02 -0.33335698768E+02  0.61017324844E+02  0.47000000000E+01 0.  1.
          5    1    4    4  503    0  0.20476567033E+02  0.89475544696E+02  0.12565528194E+02  0.92763922917E+02  0.47000000000E+01 0.  1.
         -5    1    4    4    0  503  0.19725394269E+02 -0.36590949853E+02 -0.26400196536E+02  0.49467657791E+02  0.47000000000E+01 0.  1.
<mgrwt>
<rscale>  0 0.14155554E+03</rscale>
<asrwt>0</asrwt>
<pdfrwt beam="1">  1        5 0.15290756E-01 0.14155714E+03</pdfrwt>
<pdfrwt beam="2">  1       -5 0.33903554E-01 0.14155714E+03</pdfrwt>
<totfact> 0.23344110E+02</totfact>
</mgrwt>
</event>
<event>
 8    1  0.1865596E-007  0.1269627E+03  0.7546771E-02  0.1232036E+00
          5   -1    0    0  501    0  0.00000000000E+00  0.00000000000E+00  0.11405158386E+03  0.11414838493E+03  0.47000000000E+01 0. -1.
         -5   -1    0    0    0  501 -0.00000000000E+00 -0.00000000000E+00 -0.14194481532E+03  0.14202260594E+03  0.47000000000E+01 0. -1.
         25    2    1    2    0    0 -0.21113120926E+02 -0.70057204440E+01 -0.23627308955E+02  0.12914243100E+03  0.12499869504E+03 0.  0.
         25    2    1    2    0    0  0.21113120926E+02  0.70057204440E+01 -0.42659225075E+01  0.12702855986E+03  0.12499285152E+03 0.  0.
          5    1    3    3  502    0  0.45704364750E+02 -0.29171427157E+02  0.94235368526E+00  0.54431968089E+02  0.47000000000E+01 0. -1.
         -5    1    3    3    0  502 -0.66817485676E+02  0.22165706713E+02 -0.24569662640E+02  0.74710462911E+02  0.47000000000E+01 0. -1.
          5    1    4    4  503    0  0.41884438648E+02  0.57094965613E+02  0.74402396095E+01  0.71355367455E+02  0.47000000000E+01 0.  1.
         -5    1    4    4    0  503 -0.20771317721E+02 -0.50089245169E+02 -0.11706162117E+02  0.55673192408E+02  0.47000000000E+01 0.  1.
<mgrwt>
<rscale>  0 0.12696122E+03</rscale>
<asrwt>0</asrwt>
<pdfrwt beam="1">  1        5 0.17559828E-01 0.12696266E+03</pdfrwt>
<pdfrwt beam="2">  1       -5 0.21851094E-01 0.12696266E+03</pdfrwt>
<totfact> 0.40871378E+02</totfact>
</mgrwt>
</event>
<event>
 8    1  0.1865596E-007  0.1624450E+03  0.7546771E-02  0.1185965E+00
         -5   -1    0    0    0  501 -0.00000000000E+00  0.00000000000E+00  0.28602199917E+03  0.28606061248E+03  0.47000000000E+01 0.  1.
          5   -1    0    0  501    0  0.00000000000E+00 -0.00000000000E+00 -0.97086480191E+02  0.97200178168E+02  0.47000000000E+01 0.  1.
         25    2    1    2    0    0 -0.10048021484E+03  0.25803524465E+02  0.13763396986E+03  0.21291193330E+03  0.12500514482E+03 0.  0.
         25    2    1    2    0    0  0.10048021484E+03 -0.25803524465E+02  0.51301549117E+02  0.17034885735E+03  0.12499915524E+03 0.  0.
          5    1    4    4  502    0  0.11643962572E+03  0.15799509359E+02  0.35597056952E+02  0.12287005899E+03  0.47000000000E+01 0.  1.
         -5    1    4    4    0  502 -0.15959410882E+02 -0.41603033824E+02  0.15704492165E+02  0.47478798355E+02  0.47000000000E+01 0.  1.
          5    1    3    3  503    0 -0.72453424983E+02 -0.29563811914E+02  0.12776713745E+03  0.14990013068E+03  0.47000000000E+01 0. -1.
         -5    1    3    3    0  503 -0.28026789853E+02  0.55367336379E+02  0.98668324190E+01  0.63011802618E+02  0.47000000000E+01 0. -1.
<mgrwt>
<rscale>  0 0.16244386E+03</rscale>
<asrwt>0</asrwt>
<pdfrwt beam="2">  1        5 0.14948098E-01 0.16244501E+03</pdfrwt>
<pdfrwt beam="1">  1       -5 0.44015101E-01 0.16244501E+03</pdfrwt>
<totfact> 0.14943147E+02</totfact>
</mgrwt>
</event>
<event>
 8    1  0.1865596E-007  0.1280189E+03  0.7546771E-02  0.1230458E+00
         -5   -1    0    0    0  501 -0.00000000000E+00  0.00000000000E+00  0.43972586458E+02  0.44223052358E+02  0.47000000000E+01 0. -1.
          5   -1    0    0  501    0  0.00000000000E+00 -0.00000000000E+00 -0.41025666282E+03  0.41028358411E+03  0.47000000000E+01 0. -1.
         25    2    1    2    0    0 -0.82099073141E+01 -0.25983198344E+02 -0.11304274875E+03  0.17078493573E+03  0.12508517919E+03 0.  0.
         25    2    1    2    0    0  0.82099073141E+01  0.25983198344E+02 -0.25324132761E+03  0.28372170073E+03  0.12499721710E+03 0.  0.
          5    1    4    4  502    0 -0.12989532208E+02  0.58073038132E+02 -0.23195612402E+03  0.23951396447E+03  0.47000000000E+01 0. -1.
         -5    1    4    4    0  502  0.21199439522E+02 -0.32089839788E+02 -0.21285203585E+02  0.44207736262E+02  0.47000000000E+01 0. -1.
          5    1    3    3  503    0 -0.37678063881E+01  0.21632146895E+02  0.19537680034E+02  0.29765031251E+02  0.47000000000E+01 0. -1.
         -5    1    3    3    0  503 -0.44421009260E+01 -0.47615345238E+02 -0.13258042879E+03  0.14101990448E+03  0.47000000000E+01 0. -1.
<mgrwt>
<rscale>  0 0.12799738E+03</rscale>
<asrwt>0</asrwt>
<pdfrwt beam="2">  1        5 0.63137745E-01 0.12801887E+03</pdfrwt>
<pdfrwt beam="1">  1       -5 0.67863511E-02 0.12801887E+03</pdfrwt>
<totfact> 0.25379342E+02</totfact>
</mgrwt>
</event>
<event>
 8    1  0.1865596E-007  0.2464957E+03  0.7546771E-02  0.1115541E+00
          5   -1    0    0  501    0  0.00000000000E+00  0.00000000000E+00  0.14552037494E+03  0.14559625518E+03  0.47000000000E+01 0.  1.
         -5   -1    0    0    0  501 -0.00000000000E+00 -0.00000000000E+00 -0.42820711513E+03  0.42823290795E+03  0.47000000000E+01 0.  1.
         25    2    1    2    0    0 -0.20754124764E+03  0.45370250043E+02 -0.18707639611E+03  0.30944738429E+03  0.12501310571E+03 0.  0.
         25    2    1    2    0    0  0.20754124764E+03 -0.45370250043E+02 -0.95610344083E+02  0.26438177884E+03  0.12499823209E+03 0.  0.
          5    1    4    4  502    0  0.13816564214E+03  0.27622274511E+02 -0.30103000542E+02  0.14415621859E+03  0.47000000000E+01 0. -1.
         -5    1    4    4    0  502  0.69375605507E+02 -0.72992524554E+02 -0.65507343541E+02  0.12022556025E+03  0.47000000000E+01 0. -1.
          5    1    3    3  503    0 -0.21945438286E+03  0.41918284832E+02 -0.19266136923E+03  0.29505569297E+03  0.47000000000E+01 0.  1.
         -5    1    3    3    0  503  0.11913135215E+02  0.34519652108E+01  0.55849731144E+01  0.14391691324E+02  0.47000000000E+01 0.  1.
<mgrwt>
<rscale>  0 0.24649376E+03</rscale>
<asrwt>0</asrwt>
<pdfrwt beam="1">  1        5 0.22395571E-01 0.24649565E+03</pdfrwt>
<pdfrwt beam="2">  1       -5 0.65885838E-01 0.24649565E+03</pdfrwt>
<totfact> 0.32911748E+01</totfact>
</mgrwt>
</event>
<event>
 8    1  0.1865596E-007  0.1339197E+03  0.7546771E-02  0.1221759E+00
         -5   -1    0    0    0  501 -0.00000000000E+00  0.00000000000E+00  0.56844384257E+02  0.57038355705E+02  0.47000000000E+01 0. -1.
          5   -1    0    0  501    0  0.00000000000E+00 -0.00000000000E+00 -0.32127758344E+03  0.32131195997E+03  0.47000000000E+01 0. -1.
         25    2    1    2    0    0 -0.45194822267E+02 -0.16136609486E+02 -0.10519297660E+03  0.17029402535E+03  0.12502611974E+03 0.  0.
         25    2    1    2    0    0  0.45194822267E+02  0.16136609486E+02 -0.15924022258E+03  0.20805629033E+03  0.12500803708E+03 0.  0.
          5    1    3    3  502    0 -0.25004894625E+01 -0.67058548492E+02 -0.54722832785E+02  0.86716663920E+02  0.47000000000E+01 0. -1.
         -5    1    3    3    0  502 -0.42694332805E+02  0.50921939007E+02 -0.50470143819E+02  0.83577361426E+02  0.47000000000E+01 0. -1.
          5    1    4    4  503    0  0.41571491268E+02 -0.39542304625E+02 -0.25295669136E+02  0.62878801025E+02  0.47000000000E+01 0.  1.
         -5    1    4    4    0  503  0.36233309996E+01  0.55678914111E+02 -0.13394455344E+03  0.14517748930E+03  0.47000000000E+01 0.  1.
<mgrwt>
<rscale>  0 0.13391550E+03</rscale>
<asrwt>0</asrwt>
<pdfrwt beam="2">  1        5 0.49444885E-01 0.13391972E+03</pdfrwt>
<pdfrwt beam="1">  1       -5 0.87628553E-02 0.13391972E+03</pdfrwt>
<totfact> 0.28247462E+02</totfact>
</mgrwt>
</event>
<event>
 8    1  0.1865596E-007  0.1654194E+03  0.7546771E-02  0.1182713E+00
         -5   -1    0    0    0  501 -0.00000000000E+00  0.00000000000E+00  0.30171904965E+03  0.30175565433E+03  0.47000000000E+01 0.  1.
          5   -1    0    0  501    0  0.00000000000E+00 -0.00000000000E+00 -0.94029259104E+02  0.94146649264E+02  0.47000000000E+01 0.  1.
         25    2    1    2    0    0  0.59126504446E+02  0.90776459273E+02  0.14170065194E+03  0.21780640562E+03  0.12499698589E+03 0.  0.
         25    2    1    2    0    0 -0.59126504446E+02 -0.90776459273E+02  0.65989138607E+02  0.17809589798E+03  0.12500909318E+03 0.  0.
          5    1    3    3  502    0  0.48008877374E+02  0.11420403606E+03  0.72173686111E+02  0.14345223987E+03  0.47000000000E+01 0. -1.
         -5    1    3    3    0  502  0.11117627072E+02 -0.23427576783E+02  0.69526965831E+02  0.74354165743E+02  0.47000000000E+01 0. -1.
          5    1    4    4  503    0  0.14330248540E+02 -0.32755045907E+01 -0.26742721517E+02  0.30876335723E+02  0.47000000000E+01 0. -1.
         -5    1    4    4    0  503 -0.73456752985E+02 -0.87500954682E+02  0.92731860125E+02  0.14721956226E+03  0.47000000000E+01 0. -1.
<mgrwt>
<rscale>  0 0.16541713E+03</rscale>
<asrwt>0</asrwt>
<pdfrwt beam="2">  1        5 0.14477885E-01 0.16541941E+03</pdfrwt>
<pdfrwt beam="1">  1       -5 0.46430162E-01 0.16541941E+03</pdfrwt>
<totfact> 0.14238178E+02</totfact>
</mgrwt>
</event>
<event>
 8    1  0.1865596E-007  0.1261552E+03  0.7546771E-02  0.1233280E+00
          5   -1    0    0  501    0  0.00000000000E+00  0.00000000000E+00  0.21317711680E+03  0.21322892188E+03  0.47000000000E+01 0.  1.
         -5   -1    0    0    0  501 -0.00000000000E+00 -0.00000000000E+00 -0.75280192736E+02  0.75426768580E+02  0.47000000000E+01 0.  1.
         25    2    1    2    0    0  0.39079181040E+01 -0.16473564564E+02  0.54410271932E+02  0.13737731403E+03  0.12500159425E+03 0.  0.
         25    2    1    2    0    0 -0.39079181040E+01  0.16473564564E+02  0.83486652130E+02  0.15127837643E+03  0.12501390298E+03 0.  0.
          5    1    4    4  502    0  0.52447569442E+02  0.22924734548E+02  0.73845560243E+02  0.93549707440E+02  0.47000000000E+01 0. -1.
         -5    1    4    4    0  502 -0.56355487546E+02 -0.64511699837E+01  0.96410918862E+01  0.57728668991E+02  0.47000000000E+01 0. -1.
          5    1    3    3  503    0  0.58604001705E+02  0.15387051921E+02  0.14765344774E+02  0.62540353284E+02  0.47000000000E+01 0. -1.
         -5    1    3    3    0  503 -0.54696083601E+02 -0.31860616485E+02  0.39644927159E+02  0.74836960744E+02  0.47000000000E+01 0. -1.
<mgrwt>
<rscale>  0 0.12615212E+03</rscale>
<asrwt>0</asrwt>
<pdfrwt beam="1">  1        5 0.32811739E-01 0.12615517E+03</pdfrwt>
<pdfrwt beam="2">  1       -5 0.11596828E-01 0.12615517E+03</pdfrwt>
<totfact> 0.39235330E+02</totfact>
</mgrwt>
</event>
<event>
 8    1  0.1865596E-007  0.1430554E+03  0.7546771E-02  0.1209281E+00
          5   -1    0    0  501    0  0.00000000000E+00  0.00000000000E+00  0.12340608564E+03  0.12349555447E+03  0.47000000000E+01 0. -1.
         -5   -1    0    0    0  501 -0.00000000000E+00 -0.00000000000E+00 -0.17034956948E+03  0.17041439441E+03  0.47000000000E+01 0. -1.
         25    2    1    2    0    0 -0.33905693133E+02  0.60711695656E+02 -0.47910439521E+02  0.15085131909E+03  0.12500081696E+03 0.  0.
         25    2    1    2    0    0  0.33905693133E+02 -0.60711695656E+02  0.96695568641E+00  0.14305862979E+03  0.12501732095E+03 0.  0.
          5    1    3    3  502    0 -0.32315560081E+02 -0.25577416180E+02  0.14827205008E+02  0.44050376277E+02  0.47000000000E+01 0.  1.
         -5    1    3    3    0  502 -0.15901330517E+01  0.86289111835E+02 -0.62737644529E+02  0.10680094281E+03  0.47000000000E+01 0.  1.
          5    1    4    4  503    0 -0.37287866590E+02 -0.60141552008E+02 -0.70045084218E+01  0.71263906790E+02  0.47000000000E+01 0. -1.
         -5    1    4    4    0  503  0.71193559723E+02 -0.57014364749E+00  0.79714641083E+01  0.71794722995E+02  0.47000000000E+01 0. -1.
<mgrwt>
<rscale>  0 0.14305176E+03</rscale>
<asrwt>0</asrwt>
<pdfrwt beam="1">  1        5 0.18997420E-01 0.14305536E+03</pdfrwt>
<pdfrwt beam="2">  1       -5 0.26219495E-01 0.14305536E+03</pdfrwt>
<totfact> 0.26046825E+02</totfact>
</mgrwt>
</event>
<event>
 8    1  0.1865596E-007  0.1394419E+03  0.7546771E-02  0.1214083E+00
          5   -1    0    0  501    0  0.00000000000E+00  0.00000000000E+00  0.12624129435E+03  0.12632875523E+03  0.47000000000E+01 0.  1.
         -5   -1    0    0    0  501 -0.00000000000E+00 -0.00000000000E+00 -0.15720231385E+03  0.15727255794E+03  0.47000000000E+01 0.  1.
         25    2    1    2    0    0 -0.25791190376E+02  0.56145066183E+02 -0.36199075154E+02  0.14406393429E+03  0.12500636049E+03 0.  0.
         25    2    1    2    0    0  0.25791190376E+02 -0.56145066183E+02  0.52380556491E+01  0.13953737888E+03  0.12500315564E+03 0.  0.
          5    1    4    4  502    0  0.47892282930E+02 -0.49617107012E+02  0.52465905198E+02  0.86777239416E+02  0.47000000000E+01 0. -1.
         -5    1    4    4    0  502 -0.22101092554E+02 -0.65279591710E+01 -0.47227849549E+02  0.52760139462E+02  0.47000000000E+01 0. -1.
          5    1    3    3  503    0 -0.52738159792E+02 -0.21439669836E+02 -0.16792946256E+02  0.59540456707E+02  0.47000000000E+01 0.  1.
         -5    1    3    3    0  503  0.26946969416E+02  0.77584736019E+02 -0.19406128898E+02  0.84523477583E+02  0.47000000000E+01 0.  1.
<mgrwt>
<rscale>  0 0.13944118E+03</rscale>
<asrwt>0</asrwt>
<pdfrwt beam="1">  1        5 0.19433869E-01 0.13944190E+03</pdfrwt>
<pdfrwt beam="2">  1       -5 0.24197102E-01 0.13944190E+03</pdfrwt>
<totfact> 0.28875890E+02</totfact>
</mgrwt>
</event>
<event>
 8    1  0.1865596E-007  0.1405637E+03  0.7546771E-02  0.1212574E+00
          5   -1    0    0  501    0  0.00000000000E+00  0.00000000000E+00  0.58466607436E+03  0.58468496518E+03  0.47000000000E+01 0.  1.
         -5   -1    0    0    0  501 -0.00000000000E+00 -0.00000000000E+00 -0.55843530889E+02  0.56040966642E+02  0.47000000000E+01 0.  1.
         25    2    1    2    0    0 -0.35767166865E+02  0.53414384278E+02  0.62772534720E+02  0.15393978114E+03  0.12499871371E+03 0.  0.
         25    2    1    2    0    0  0.35767166865E+02 -0.53414384278E+02  0.46605000875E+03  0.48678615068E+03  0.12500303661E+03 0.  0.
          5    1    4    4  502    0  0.74566850628E+02 -0.65091293829E+02  0.30742578902E+03  0.32300123452E+03  0.47000000000E+01 0.  1.
         -5    1    4    4    0  502 -0.38799683763E+02  0.11676909551E+02  0.15862421973E+03  0.16378491616E+03  0.47000000000E+01 0.  1.
          5    1    3    3  503    0 -0.61939879273E+02  0.39409430269E+02 -0.10904905572E+02  0.74368399230E+02  0.47000000000E+01 0.  1.
         -5    1    3    3    0  503  0.26172712408E+02  0.14004954009E+02  0.73677440292E+02  0.79571381913E+02  0.47000000000E+01 0.  1.
<mgrwt>
<rscale>  0 0.14056271E+03</rscale>
<asrwt>0</asrwt>
<pdfrwt beam="1">  1        5 0.89965269E-01 0.14056367E+03</pdfrwt>
<pdfrwt beam="2">  1       -5 0.86079528E-02 0.14056367E+03</pdfrwt>
<totfact> 0.77642166E+01</totfact>
</mgrwt>
</event>
<event>
 8    1  0.1865596E-007  0.1264812E+03  0.7546771E-02  0.1232773E+00
          5   -1    0    0  501    0  0.00000000000E+00  0.00000000000E+00  0.94173026431E+03  0.94174199265E+03  0.47000000000E+01 0.  1.
         -5   -1    0    0    0  501 -0.00000000000E+00 -0.00000000000E+00 -0.16658526353E+02  0.17308856122E+02  0.47000000000E+01 0.  1.
         25    2    1    2    0    0 -0.51319688082E+01  0.18587406884E+02  0.45177203411E+03  0.46914259552E+03  0.12499990131E+03 0.  0.
         25    2    1    2    0    0  0.51319688082E+01 -0.18587406884E+02  0.47329970385E+03  0.48990825325E+03  0.12500263255E+03 0.  0.
          5    1    3    3  502    0 -0.33684109327E+02 -0.14243794434E+02  0.37592009361E+02  0.52656947014E+02  0.47000000000E+01 0. -1.
         -5    1    3    3    0  502  0.28552140519E+02  0.32831201318E+02  0.41418002475E+03  0.41648564851E+03  0.47000000000E+01 0. -1.
          5    1    4    4  503    0 -0.50804105254E+02 -0.41582270957E+02  0.24534878328E+03  0.25402412843E+03  0.47000000000E+01 0.  1.
         -5    1    4    4    0  503  0.55936074062E+02  0.22994864073E+02  0.22795092057E+03  0.23588412482E+03  0.47000000000E+01 0.  1.
<mgrwt>
<rscale>  0 0.12648050E+03</rscale>
<asrwt>0</asrwt>
<pdfrwt beam="1">  1        5 0.14493252E+00 0.12648117E+03</pdfrwt>
<pdfrwt beam="2">  1       -5 0.26137775E-02 0.12648117E+03</pdfrwt>
<totfact> 0.16286080E+02</totfact>
</mgrwt>
</event>
<event>
 8    1  0.1865596E-007  0.1469517E+03  0.7546771E-02  0.1204271E+00
         -5   -1    0    0    0  501 -0.00000000000E+00  0.00000000000E+00  0.20753647363E+03  0.20758968637E+03  0.47000000000E+01 0.  1.
          5   -1    0    0  501    0  0.00000000000E+00 -0.00000000000E+00 -0.12270609342E+03  0.12279607226E+03  0.47000000000E+01 0.  1.
         25    2    1    2    0    0  0.33451689682E+02 -0.69636375977E+02  0.10699475702E+03  0.18177199197E+03  0.12499975453E+03 0.  0.
         25    2    1    2    0    0 -0.33451689682E+02  0.69636375977E+02 -0.22164376810E+02  0.14861376666E+03  0.12500620640E+03 0.  0.
          5    1    4    4  502    0 -0.27234266388E+02  0.10490963142E+03 -0.27944942378E+02  0.11203011129E+03  0.47000000000E+01 0.  1.
         -5    1    4    4    0  502 -0.62174232948E+01 -0.35273255443E+02  0.57805655678E+01  0.36583655370E+02  0.47000000000E+01 0.  1.
          5    1    3    3  503    0  0.22526095674E+01 -0.58403055893E+02 -0.10525775229E+02  0.59572419220E+02  0.47000000000E+01 0. -1.
         -5    1    3    3    0  503  0.31199080115E+02 -0.11233320084E+02  0.11752053225E+03  0.12219957275E+03  0.47000000000E+01 0. -1.
<mgrwt>
<rscale>  0 0.14695029E+03</rscale>
<asrwt>0</asrwt>
<pdfrwt beam="2">  1        5 0.18888875E-01 0.14695167E+03</pdfrwt>
<pdfrwt beam="1">  1       -5 0.31939703E-01 0.14695167E+03</pdfrwt>
<totfact> 0.18059862E+02</totfact>
</mgrwt>
</event>
<event>
 8    1  0.1865596E-007  0.1749270E+03  0.7546771E-02  0.1172807E+00
          5   -1    0    0  501    0  0.00000000000E+00  0.00000000000E+00  0.15728134837E+03  0.15735155717E+03  0.47000000000E+01 0. -1.
         -5   -1    0    0    0  501 -0.00000000000E+00 -0.00000000000E+00 -0.26295674882E+03  0.26299874857E+03  0.47000000000E+01 0. -1.
         25    2    1    2    0    0 -0.45621707989E+02  0.11353842856E+03 -0.16012823401E+03  0.23714395142E+03  0.12499554939E+03 0.  0.
         25    2    1    2    0    0  0.45621707989E+02 -0.11353842856E+03  0.54452833562E+02  0.18320635432E+03  0.12500856844E+03 0.  0.
          5    1    4    4  502    0  0.78734963575E+02 -0.69483501537E+02  0.69340361297E+02  0.12592587971E+03  0.47000000000E+01 0.  1.
         -5    1    4    4    0  502 -0.33113255586E+02 -0.44054927022E+02 -0.14887527735E+02  0.57280474618E+02  0.47000000000E+01 0.  1.
          5    1    3    3  503    0 -0.26582898523E+02  0.49803730509E+02 -0.16076875711E+03  0.17045745900E+03  0.47000000000E+01 0.  1.
         -5    1    3    3    0  503 -0.19038809466E+02  0.63734698050E+02  0.64052309566E+00  0.66686492419E+02  0.47000000000E+01 0.  1.
<mgrwt>
<rscale>  0 0.17492468E+03</rscale>
<asrwt>0</asrwt>
<pdfrwt beam="1">  1        5 0.24205762E-01 0.17492701E+03</pdfrwt>
<pdfrwt beam="2">  1       -5 0.40463516E-01 0.17492701E+03</pdfrwt>
<totfact> 0.74036226E+01</totfact>
</mgrwt>
</event>
<event>
 8    1  0.1865596E-007  0.1876239E+03  0.7546771E-02  0.1160623E+00
         -5   -1    0    0    0  501 -0.00000000000E+00  0.00000000000E+00  0.21578300625E+03  0.21583418586E+03  0.47000000000E+01 0.  1.
          5   -1    0    0  501    0  0.00000000000E+00 -0.00000000000E+00 -0.19378741405E+03  0.19384440112E+03  0.47000000000E+01 0.  1.
         25    2    1    2    0    0 -0.52037784512E+02 -0.12988040203E+03  0.92578667988E+02  0.20922125031E+03  0.12500348783E+03 0.  0.
         25    2    1    2    0    0  0.52037784512E+02  0.12988040203E+03 -0.70583075787E+02  0.20045733667E+03  0.12499729353E+03 0.  0.
          5    1    4    4  502    0  0.15688405443E+02  0.12531269494E+03 -0.93307031813E+02  0.15709134211E+03  0.47000000000E+01 0.  1.
         -5    1    4    4    0  502  0.36349379069E+02  0.45677070820E+01  0.22723956026E+02  0.43365994560E+02  0.47000000000E+01 0.  1.
          5    1    3    3  503    0 -0.83624226655E+02 -0.13120398923E+03  0.77300439402E+02  0.17379570192E+03  0.47000000000E+01 0. -1.
         -5    1    3    3    0  503  0.31586442143E+02  0.13235872059E+01  0.15278228587E+02  0.35425548395E+02  0.47000000000E+01 0. -1.
<mgrwt>
<rscale>  0 0.18762285E+03</rscale>
<asrwt>0</asrwt>
<pdfrwt beam="2">  1        5 0.29821769E-01 0.18762388E+03</pdfrwt>
<pdfrwt beam="1">  1       -5 0.33205706E-01 0.18762388E+03</pdfrwt>
<totfact> 0.75193557E+01</totfact>
</mgrwt>
</event>
<event>
 8    1  0.1865596E-007  0.1334184E+03  0.7546771E-02  0.1222480E+00
         -5   -1    0    0    0  501 -0.00000000000E+00  0.00000000000E+00  0.60377606277E+02  0.60560262051E+02  0.47000000000E+01 0.  1.
          5   -1    0    0  501    0  0.00000000000E+00 -0.00000000000E+00 -0.29421487074E+03  0.29425240894E+03  0.47000000000E+01 0.  1.
         25    2    1    2    0    0  0.62262389437E+01  0.46174343691E+02 -0.12032435375E+03  0.17966194020E+03  0.12501850497E+03 0.  0.
         25    2    1    2    0    0 -0.62262389437E+01 -0.46174343691E+02 -0.11351291072E+03  0.17515073079E+03  0.12498704545E+03 0.  0.
          5    1    3    3  502    0  0.46597105379E+02  0.61124568798E+02 -0.11143603425E+03  0.13545324975E+03  0.47000000000E+01 0. -1.
         -5    1    3    3    0  502 -0.40370866436E+02 -0.14950225106E+02 -0.88883194983E+01  0.44208690447E+02  0.47000000000E+01 0. -1.
          5    1    4    4  503    0 -0.44632873333E+02  0.23290038427E+00  0.18544489557E+01  0.44918555247E+02  0.47000000000E+01 0.  1.
         -5    1    4    4    0  503  0.38406634389E+02 -0.46407244076E+02 -0.11536735968E+03  0.13023217554E+03  0.47000000000E+01 0.  1.
<mgrwt>
<rscale>  0 0.13341100E+03</rscale>
<asrwt>0</asrwt>
<pdfrwt beam="2">  1        5 0.45280763E-01 0.13341837E+03</pdfrwt>
<pdfrwt beam="1">  1       -5 0.93058007E-02 0.13341837E+03</pdfrwt>
<totfact> 0.30581474E+02</totfact>
</mgrwt>
</event>
<event>
 8    1  0.1865596E-007  0.1745544E+03  0.7546771E-02  0.1173180E+00
         -5   -1    0    0    0  501 -0.00000000000E+00  0.00000000000E+00  0.96573448319E+02  0.96687749587E+02  0.47000000000E+01 0. -1.
          5   -1    0    0  501    0  0.00000000000E+00 -0.00000000000E+00 -0.74212538701E+03  0.74214026979E+03  0.47000000000E+01 0. -1.
         25    2    1    2    0    0  0.12177250649E+03 -0.39114482026E+01 -0.46875980076E+01  0.17461730428E+03  0.12500154645E+03 0.  0.
         25    2    1    2    0    0 -0.12177250649E+03  0.39114482026E+01 -0.64086434068E+03  0.66421071510E+03  0.12499971251E+03 0.  0.
          5    1    3    3  502    0  0.75096254504E+02 -0.25201370224E+02  0.54412710297E+02  0.96215329047E+02  0.47000000000E+01 0. -1.
         -5    1    3    3    0  502  0.46676251981E+02  0.21289922021E+02 -0.59100308305E+02  0.78401975232E+02  0.47000000000E+01 0. -1.
          5    1    4    4  503    0 -0.63481673540E+02 -0.27416620232E+02 -0.53363817085E+03  0.53812022943E+03  0.47000000000E+01 0.  1.
         -5    1    4    4    0  503 -0.58290832945E+02  0.31328068435E+02 -0.10722616983E+03  0.12609048566E+03  0.47000000000E+01 0.  1.
<mgrwt>
<rscale>  0 0.17455405E+03</rscale>
<asrwt>0</asrwt>
<pdfrwt beam="2">  1        5 0.11418307E+00 0.17455437E+03</pdfrwt>
<pdfrwt beam="1">  1       -5 0.14867391E-01 0.17455437E+03</pdfrwt>
<totfact> 0.17525570E+01</totfact>
</mgrwt>
</event>
<event>
 8    1  0.1865596E-007  0.1599369E+03  0.7546771E-02  0.1188769E+00
         -5   -1    0    0    0  501 -0.00000000000E+00  0.00000000000E+00  0.35636293660E+03  0.35639392894E+03  0.47000000000E+01 0.  1.
          5   -1    0    0  501    0  0.00000000000E+00 -0.00000000000E+00 -0.73328763524E+02  0.73479232167E+02  0.47000000000E+01 0.  1.
         25    2    1    2    0    0 -0.71859157853E+02  0.69205203217E+02  0.17383513140E+03  0.23621697308E+03  0.12500682679E+03 0.  0.
         25    2    1    2    0    0  0.71859157853E+02 -0.69205203217E+02  0.10919904168E+03  0.19365618802E+03  0.12500075894E+03 0.  0.
          5    1    3    3  502    0 -0.49781566750E+02  0.63301532843E+02  0.19094392829E+03  0.20728473701E+03  0.47000000000E+01 0.  1.
         -5    1    3    3    0  502 -0.22077591103E+02  0.59036703741E+01 -0.17108796891E+02  0.28932236067E+02  0.47000000000E+01 0.  1.
          5    1    4    4  503    0 -0.23572942296E+02  0.16061006733E+02  0.68229172978E+01  0.29703227876E+02  0.47000000000E+01 0.  1.
         -5    1    4    4    0  503  0.95432100150E+02 -0.85266209949E+02  0.10237612438E+03  0.16395296015E+03  0.47000000000E+01 0.  1.
<mgrwt>
<rscale>  0 0.15993569E+03</rscale>
<asrwt>0</asrwt>
<pdfrwt beam="2">  1        5 0.11295307E-01 0.15993688E+03</pdfrwt>
<pdfrwt beam="1">  1       -5 0.54839025E-01 0.15993688E+03</pdfrwt>
<totfact> 0.15412104E+02</totfact>
</mgrwt>
</event>
<event>
 8    1  0.1865596E-007  0.2095551E+03  0.7546771E-02  0.1141919E+00
          5   -1    0    0  501    0  0.00000000000E+00  0.00000000000E+00  0.64305694257E+02  0.64477223218E+02  0.47000000000E+01 0.  1.
         -5   -1    0    0    0  501 -0.00000000000E+00 -0.00000000000E+00 -0.74961212139E+03  0.74962685554E+03  0.47000000000E+01 0.  1.
         25    2    1    2    0    0 -0.13764566542E+03  0.96655628881E+02 -0.46507227380E+03  0.51010337905E+03  0.12499839062E+03 0.  0.
         25    2    1    2    0    0  0.13764566542E+03 -0.96655628881E+02 -0.22023415334E+03  0.30400069971E+03  0.12499881328E+03 0.  0.
          5    1    4    4  502    0  0.30896509905E+02  0.19754770518E+02 -0.54784953488E+01  0.37375783521E+02  0.47000000000E+01 0. -1.
         -5    1    4    4    0  502  0.10674915552E+03 -0.11641039940E+03 -0.21475565799E+03  0.26662491619E+03  0.47000000000E+01 0. -1.
          5    1    3    3  503    0 -0.10572014830E+03  0.17204453999E+02 -0.35339108733E+03  0.36929675547E+03  0.47000000000E+01 0.  1.
         -5    1    3    3    0  503 -0.31925517125E+02  0.79451174882E+02 -0.11168118647E+03  0.14080662358E+03  0.47000000000E+01 0.  1.
<mgrwt>
<rscale>  0 0.20955504E+03</rscale>
<asrwt>0</asrwt>
<pdfrwt beam="1">  1        5 0.99075122E-02 0.20955511E+03</pdfrwt>
<pdfrwt beam="2">  1       -5 0.11533926E+00 0.20955511E+03</pdfrwt>
<totfact> 0.36913858E+01</totfact>
</mgrwt>
</event>
<event>
 8    1  0.1865596E-007  0.1520262E+03  0.7546771E-02  0.1198006E+00
         -5   -1    0    0    0  501 -0.00000000000E+00  0.00000000000E+00  0.66241126699E+02  0.66407656685E+02  0.47000000000E+01 0. -1.
          5   -1    0    0  501    0  0.00000000000E+00 -0.00000000000E+00 -0.34831944827E+03  0.34835115622E+03  0.47000000000E+01 0. -1.
         25    2    1    2    0    0  0.28439705387E+00  0.86527061472E+02 -0.13877897156E+03  0.20584356064E+03  0.12499982105E+03 0.  0.
         25    2    1    2    0    0 -0.28439705387E+00 -0.86527061472E+02 -0.14329935001E+03  0.20891525227E+03  0.12499546259E+03 0.  0.
          5    1    3    3  502    0 -0.50012688667E+02  0.73591018176E+02 -0.48138690550E+02  0.10127354300E+03  0.47000000000E+01 0. -1.
         -5    1    3    3    0  502  0.50297085721E+02  0.12936043295E+02 -0.90640281010E+02  0.10457001764E+03  0.47000000000E+01 0. -1.
          5    1    4    4  503    0 -0.45722774193E+02 -0.87633448457E+02 -0.12563315872E+03  0.15992490093E+03  0.47000000000E+01 0. -1.
         -5    1    4    4    0  503  0.45438377139E+02  0.11063869856E+01 -0.17666191294E+02  0.48990351336E+02  0.47000000000E+01 0. -1.
<mgrwt>
<rscale>  0 0.15202531E+03</rscale>
<asrwt>0</asrwt>
<pdfrwt beam="2">  1        5 0.53602856E-01 0.15202621E+03</pdfrwt>
<pdfrwt beam="1">  1       -5 0.10206192E-01 0.15202621E+03</pdfrwt>
<totfact> 0.19034399E+02</totfact>
</mgrwt>
</event>
<event>
 8    1  0.1865596E-007  0.1490420E+03  0.7546771E-02  0.1201657E+00
          5   -1    0    0  501    0  0.00000000000E+00  0.00000000000E+00  0.15774919480E+03  0.15781919547E+03  0.47000000000E+01 0.  1.
         -5   -1    0    0    0  501 -0.00000000000E+00 -0.00000000000E+00 -0.15604897441E+03  0.15611973742E+03  0.47000000000E+01 0.  1.
         25    2    1    2    0    0 -0.80728551977E+02  0.83577295102E+01 -0.48407085792E+02  0.15670599708E+03  0.12500629112E+03 0.  0.
         25    2    1    2    0    0  0.80728551977E+02 -0.83577295102E+01  0.50107306182E+02  0.15723293581E+03  0.12499801288E+03 0.  0.
          5    1    3    3  502    0 -0.65213665729E+02 -0.53729173285E+02 -0.31982836007E+02  0.90468989487E+02  0.47000000000E+01 0.  1.
         -5    1    3    3    0  502 -0.15514886247E+02  0.62086902795E+02 -0.16424249786E+02  0.66237007594E+02  0.47000000000E+01 0.  1.
          5    1    4    4  503    0  0.60140044286E+02 -0.59972193861E+02  0.54931003253E+02  0.10125706929E+03  0.47000000000E+01 0.  1.
         -5    1    4    4    0  503  0.20588507691E+02  0.51614464351E+02 -0.48236970705E+01  0.55975866519E+02  0.47000000000E+01 0.  1.
<mgrwt>
<rscale>  0 0.14904028E+03</rscale>
<asrwt>0</asrwt>
<pdfrwt beam="1">  1        5 0.24279935E-01 0.14904202E+03</pdfrwt>
<pdfrwt beam="2">  1       -5 0.24018363E-01 0.14904202E+03</pdfrwt>
<totfact> 0.19680460E+02</totfact>
</mgrwt>
</event>
<event>
 8    1  0.1865596E-007  0.1606800E+03  0.7546771E-02  0.1187933E+00
         -5   -1    0    0    0  501 -0.00000000000E+00  0.00000000000E+00  0.12224824502E+03  0.12233856061E+03  0.47000000000E+01 0.  1.
          5   -1    0    0  501    0  0.00000000000E+00 -0.00000000000E+00 -0.21779004002E+03  0.21784074810E+03  0.47000000000E+01 0.  1.
         25    2    1    2    0    0 -0.97831570703E+02 -0.24913757641E+02 -0.17726228458E+02  0.16165482696E+03  0.12500540931E+03 0.  0.
         25    2    1    2    0    0  0.97831570703E+02  0.24913757641E+02 -0.77815566538E+02  0.17852448175E+03  0.12499606651E+03 0.  0.
          5    1    3    3  502    0  0.20868032412E+02 -0.10968735144E+02 -0.33264441917E+02  0.41041454938E+02  0.47000000000E+01 0. -1.
         -5    1    3    3    0  502 -0.11869960311E+03 -0.13945022497E+02  0.15538213459E+02  0.12061337202E+03  0.47000000000E+01 0. -1.
          5    1    4    4  503    0  0.42269527012E+02 -0.69592375321E+01 -0.10134158178E+03  0.11012424846E+03  0.47000000000E+01 0.  1.
         -5    1    4    4    0  503  0.55562043691E+02  0.31872995173E+02  0.23526015246E+02  0.68400233287E+02  0.47000000000E+01 0.  1.
<mgrwt>
<rscale>  0 0.16067819E+03</rscale>
<asrwt>0</asrwt>
<pdfrwt beam="2">  1        5 0.33517008E-01 0.16068000E+03</pdfrwt>
<pdfrwt beam="1">  1       -5 0.18818270E-01 0.16068000E+03</pdfrwt>
<totfact> 0.17009337E+02</totfact>
</mgrwt>
</event>
<event>
 8    1  0.1865596E-007  0.1284615E+03  0.7546771E-02  0.1229758E+00
         -5   -1    0    0    0  501 -0.00000000000E+00  0.00000000000E+00  0.11643509289E+03  0.11652991400E+03  0.47000000000E+01 0. -1.
          5   -1    0    0  501    0  0.00000000000E+00 -0.00000000000E+00 -0.14773080976E+03  0.14780555522E+03  0.47000000000E+01 0. -1.
         25    2    1    2    0    0 -0.28943475687E+02 -0.64508198151E+01  0.11405209813E+02  0.12896296355E+03  0.12498811662E+03 0.  0.
         25    2    1    2    0    0  0.28943475687E+02  0.64508198151E+01 -0.42700926689E+02  0.13537250566E+03  0.12499203290E+03 0.  0.
          5    1    3    3  502    0  0.32419141131E+02  0.38711624836E+02 -0.47599384379E+01  0.50934640698E+02  0.47000000000E+01 0. -1.
         -5    1    3    3    0  502 -0.61362616819E+02 -0.45162444651E+02  0.16165148250E+02  0.78028322855E+02  0.47000000000E+01 0. -1.
          5    1    4    4  503    0  0.62384055982E+02 -0.33281945377E+02 -0.43634303440E+02  0.83219593639E+02  0.47000000000E+01 0. -1.
         -5    1    4    4    0  503 -0.33440580294E+02  0.39732765193E+02  0.93337675058E+00  0.52152912023E+02  0.47000000000E+01 0. -1.
<mgrwt>
<rscale>  0 0.12846051E+03</rscale>
<asrwt>0</asrwt>
<pdfrwt beam="2">  1        5 0.22740861E-01 0.12846146E+03</pdfrwt>
<pdfrwt beam="1">  1       -5 0.17926135E-01 0.12846146E+03</pdfrwt>
<totfact> 0.36652804E+02</totfact>
</mgrwt>
</event>
<event>
 8    1  0.1865596E-007  0.1323611E+03  0.7546771E-02  0.1223995E+00
         -5   -1    0    0    0  501 -0.00000000000E+00  0.00000000000E+00  0.27499442673E+03  0.27503458825E+03  0.47000000000E+01 0. -1.
          5   -1    0    0  501    0  0.00000000000E+00 -0.00000000000E+00 -0.66824355262E+02  0.66989435407E+02  0.47000000000E+01 0. -1.
         25    2    1    2    0    0 -0.35444619639E+02  0.25247695178E+02  0.14173535142E+03  0.19392874661E+03  0.12500272695E+03 0.  0.
         25    2    1    2    0    0  0.35444619639E+02 -0.25247695178E+02  0.66434720048E+02  0.14809527705E+03  0.12499948753E+03 0.  0.
          5    1    3    3  502    0 -0.54800317992E+01 -0.47527656180E+02  0.81842482794E+02  0.94916757427E+02  0.47000000000E+01 0. -1.
         -5    1    3    3    0  502 -0.29964587839E+02  0.72775351358E+02  0.59892868628E+02  0.99011989184E+02  0.47000000000E+01 0. -1.
          5    1    4    4  503    0 -0.62197726438E+01 -0.57135064685E+02 -0.66053831505E+01  0.58041556448E+02  0.47000000000E+01 0.  1.
         -5    1    4    4    0  503  0.41664392282E+02  0.31887369508E+02  0.73040103199E+02  0.90053720599E+02  0.47000000000E+01 0.  1.
<mgrwt>
<rscale>  0 0.13236029E+03</rscale>
<asrwt>0</asrwt>
<pdfrwt beam="2">  1        5 0.10296458E-01 0.13236106E+03</pdfrwt>
<pdfrwt beam="1">  1       -5 0.42322623E-01 0.13236106E+03</pdfrwt>
<totfact> 0.29416035E+02</totfact>
</mgrwt>
</event>
<event>
 8    1  0.1865596E-007  0.1346122E+03  0.7546771E-02  0.1220771E+00
         -5   -1    0    0    0  501 -0.00000000000E+00  0.00000000000E+00  0.30897780318E+03  0.30901354801E+03  0.47000000000E+01 0.  1.
          5   -1    0    0  501    0  0.00000000000E+00 -0.00000000000E+00 -0.63121251978E+02  0.63295990800E+02  0.47000000000E+01 0.  1.
         25    2    1    2    0    0  0.98730942275E+01 -0.48939265173E+02  0.17316444647E+03  0.21933161996E+03  0.12501161677E+03 0.  0.
         25    2    1    2    0    0 -0.98730942275E+01  0.48939265173E+02  0.72692104727E+02  0.15297791885E+03  0.12500228758E+03 0.  0.
          5    1    4    4  502    0  0.67085700108E+00  0.90668388489E+02  0.42871007132E+02  0.10040527861E+03  0.47000000000E+01 0. -1.
         -5    1    4    4    0  502 -0.10543951229E+02 -0.41729123316E+02  0.29821097595E+02  0.52572640241E+02  0.47000000000E+01 0. -1.
          5    1    3    3  503    0  0.45937782960E+02  0.15510101198E+02  0.11602527696E+03  0.12583639393E+03  0.47000000000E+01 0. -1.
         -5    1    3    3    0  503 -0.36064688733E+02 -0.64449366371E+02  0.57139169510E+02  0.93495226035E+02  0.47000000000E+01 0. -1.
<mgrwt>
<rscale>  0 0.13461000E+03</rscale>
<asrwt>0</asrwt>
<pdfrwt beam="2">  1        5 0.97271529E-02 0.13461216E+03</pdfrwt>
<pdfrwt beam="1">  1       -5 0.47551238E-01 0.13461216E+03</pdfrwt>
<totfact> 0.25639404E+02</totfact>
</mgrwt>
</event>
<event>
 8    1  0.1865596E-007  0.1520838E+03  0.7546771E-02  0.1197936E+00
         -5   -1    0    0    0  501 -0.00000000000E+00  0.00000000000E+00  0.97115709557E+02  0.97229373354E+02  0.47000000000E+01 0. -1.
          5   -1    0    0  501    0  0.00000000000E+00 -0.00000000000E+00 -0.23798473829E+03  0.23803114430E+03  0.47000000000E+01 0. -1.
         25    2    1    2    0    0 -0.47091682299E+02  0.72711121835E+02 -0.73832108889E+02  0.16905755753E+03  0.12499897470E+03 0.  0.
         25    2    1    2    0    0  0.47091682299E+02 -0.72711121835E+02 -0.67036919844E+02  0.16620296013E+03  0.12499976621E+03 0.  0.
          5    1    3    3  502    0 -0.65980806921E+02  0.45110646574E+02 -0.98718040014E+02  0.12710538439E+03  0.47000000000E+01 0. -1.
         -5    1    3    3    0  502  0.18889124622E+02  0.27600475261E+02  0.24885931125E+02  0.41952173145E+02  0.47000000000E+01 0. -1.
          5    1    4    4  503    0  0.35259506581E+02  0.13056360051E+02  0.20424514882E+02  0.43045930705E+02  0.47000000000E+01 0. -1.
         -5    1    4    4    0  503  0.11832175718E+02 -0.85767481886E+02 -0.87461434726E+02  0.12315702942E+03  0.47000000000E+01 0. -1.
<mgrwt>
<rscale>  0 0.15208361E+03</rscale>
<asrwt>0</asrwt>
<pdfrwt beam="2">  1        5 0.36625349E-01 0.15208378E+03</pdfrwt>
<pdfrwt beam="1">  1       -5 0.14953192E-01 0.15208378E+03</pdfrwt>
<totfact> 0.21318253E+02</totfact>
</mgrwt>
</event>
<event>
 8    1  0.1865596E-007  0.1415557E+03  0.7546771E-02  0.1211276E+00
          5   -1    0    0  501    0  0.00000000000E+00  0.00000000000E+00  0.13463896887E+03  0.13472097809E+03  0.47000000000E+01 0. -1.
         -5   -1    0    0    0  501 -0.00000000000E+00 -0.00000000000E+00 -0.14879345313E+03  0.14886766504E+03  0.47000000000E+01 0. -1.
         25    2    1    2    0    0  0.51897489617E+02 -0.41460722814E+02 -0.12395185700E+02  0.14209736302E+03  0.12500271591E+03 0.  0.
         25    2    1    2    0    0 -0.51897489617E+02  0.41460722814E+02 -0.17592985637E+01  0.14149128012E+03  0.12491735769E+03 0.  0.
          5    1    3    3  502    0  0.13587504673E+02 -0.19565502807E+02  0.55732793483E+02  0.60791968653E+02  0.47000000000E+01 0. -1.
         -5    1    3    3    0  502  0.38309984944E+02 -0.21895220007E+02 -0.68127979183E+02  0.81305394366E+02  0.47000000000E+01 0. -1.
          5    1    4    4  503    0 -0.33650212600E+02  0.85697304221E+02  0.76238560517E+01  0.92501772631E+02  0.47000000000E+01 0. -1.
         -5    1    4    4    0  503 -0.18247277017E+02 -0.44236581407E+02 -0.93831546154E+01  0.48989507485E+02  0.47000000000E+01 0. -1.
<mgrwt>
<rscale>  0 0.14153687E+03</rscale>
<asrwt>0</asrwt>
<pdfrwt beam="1">  1        5 0.20725705E-01 0.14155571E+03</pdfrwt>
<pdfrwt beam="2">  1       -5 0.22903317E-01 0.14155571E+03</pdfrwt>
<totfact> 0.28573424E+02</totfact>
</mgrwt>
</event>
<event>
 8    1  0.1865596E-007  0.1403179E+03  0.7546771E-02  0.1212903E+00
          5   -1    0    0  501    0  0.00000000000E+00  0.00000000000E+00  0.18623523702E+03  0.18629453430E+03  0.47000000000E+01 0. -1.
         -5   -1    0    0    0  501 -0.00000000000E+00 -0.00000000000E+00 -0.10599479160E+03  0.10609894366E+03  0.47000000000E+01 0. -1.
         25    2    1    2    0    0 -0.63743413062E+02  0.71099972041E+00  0.31108513321E+02  0.14372490288E+03  0.12500151950E+03 0.  0.
         25    2    1    2    0    0  0.63743413062E+02 -0.71099972041E+00  0.49131932101E+02  0.14866857508E+03  0.12499868093E+03 0.  0.
          5    1    3    3  502    0  0.42386773581E+01  0.52261825911E+02 -0.42462386641E+00  0.52645371484E+02  0.47000000000E+01 0.  1.
         -5    1    3    3    0  502 -0.67982090420E+02 -0.51550826191E+02  0.31533137187E+02  0.91079531398E+02  0.47000000000E+01 0.  1.
          5    1    4    4  503    0 -0.13939695098E+02 -0.16054688479E+02 -0.29705380620E+02  0.36831613586E+02  0.47000000000E+01 0. -1.
         -5    1    4    4    0  503  0.77683108160E+02  0.15343688758E+02  0.78837312721E+02  0.11183696149E+03  0.47000000000E+01 0. -1.
<mgrwt>
<rscale>  0 0.14031725E+03</rscale>
<asrwt>0</asrwt>
<pdfrwt beam="1">  1        5 0.28664148E-01 0.14031788E+03</pdfrwt>
<pdfrwt beam="2">  1       -5 0.16319464E-01 0.14031788E+03</pdfrwt>
<totfact> 0.28793827E+02</totfact>
</mgrwt>
</event>
<event>
 8    1  0.1865596E-007  0.1470845E+03  0.7546771E-02  0.1204102E+00
          5   -1    0    0  501    0  0.00000000000E+00  0.00000000000E+00  0.23603376672E+03  0.23608055623E+03  0.47000000000E+01 0. -1.
         -5   -1    0    0    0  501 -0.00000000000E+00 -0.00000000000E+00 -0.11202526273E+03  0.11212381321E+03  0.47000000000E+01 0. -1.
         25    2    1    2    0    0  0.76869584160E+02  0.99798918313E+01 -0.12396878507E+02  0.14760460301E+03  0.12499962009E+03 0.  0.
         25    2    1    2    0    0 -0.76869584160E+02 -0.99798918313E+01  0.13640538249E+03  0.20059976643E+03  0.12500122684E+03 0.  0.
          5    1    4    4  502    0  0.68562011498E+01  0.83577013836E+00  0.11239424678E+03  0.11270431543E+03  0.47000000000E+01 0.  1.
         -5    1    4    4    0  502 -0.83725785310E+02 -0.10815661970E+02  0.24011135709E+02  0.87895451007E+02  0.47000000000E+01 0.  1.
          5    1    3    3  503    0  0.61539162860E+02  0.55592112014E+02 -0.39716980684E+02  0.92071059722E+02  0.47000000000E+01 0. -1.
         -5    1    3    3    0  503  0.15330421301E+02 -0.45612220183E+02  0.27320102178E+02  0.55533543289E+02  0.47000000000E+01 0. -1.
<mgrwt>
<rscale>  0 0.14708412E+03</rscale>
<asrwt>0</asrwt>
<pdfrwt beam="1">  1        5 0.36324067E-01 0.14708446E+03</pdfrwt>
<pdfrwt beam="2">  1       -5 0.17245836E-01 0.14708446E+03</pdfrwt>
<totfact> 0.16525029E+02</totfact>
</mgrwt>
</event>
<event>
 8    1  0.1865596E-007  0.1308778E+03  0.7546771E-02  0.1226165E+00
          5   -1    0    0  501    0  0.00000000000E+00  0.00000000000E+00  0.60992936801E+02  0.61173755317E+02  0.47000000000E+01 0. -1.
         -5   -1    0    0    0  501 -0.00000000000E+00 -0.00000000000E+00 -0.29027395809E+03  0.29031200586E+03  0.47000000000E+01 0. -1.
         25    2    1    2    0    0  0.27847293405E+02  0.26947678633E+02 -0.14738867583E+03  0.19709872292E+03  0.12499134242E+03 0.  0.
         25    2    1    2    0    0 -0.27847293405E+02 -0.26947678633E+02 -0.81892345458E+02  0.15438703826E+03  0.12500940846E+03 0.  0.
          5    1    4    4  502    0 -0.69556983757E+02 -0.15474598639E+01 -0.78807092256E+02  0.10522935147E+03  0.47000000000E+01 0.  1.
         -5    1    4    4    0  502  0.41709690352E+02 -0.25400218769E+02 -0.30852532017E+01  0.49157686786E+02  0.47000000000E+01 0.  1.
          5    1    3    3  503    0  0.29175068959E+01  0.52772589504E+02 -0.15163370721E+03  0.16064970965E+03  0.47000000000E+01 0.  1.
         -5    1    3    3    0  503  0.24929786509E+02 -0.25824910870E+02  0.42450313743E+01  0.36449013268E+02  0.47000000000E+01 0.  1.
<mgrwt>
<rscale>  0 0.13087350E+03</rscale>
<asrwt>0</asrwt>
<pdfrwt beam="1">  1        5 0.94003647E-02 0.13087781E+03</pdfrwt>
<pdfrwt beam="2">  1       -5 0.44674367E-01 0.13087781E+03</pdfrwt>
<totfact> 0.30693856E+02</totfact>
</mgrwt>
</event>
<event>
 8    1  0.1865596E-007  0.1491716E+03  0.7546771E-02  0.1201495E+00
         -5   -1    0    0    0  501 -0.00000000000E+00  0.00000000000E+00  0.15191723452E+04  0.15191796156E+04  0.47000000000E+01 0. -1.
          5   -1    0    0  501    0  0.00000000000E+00 -0.00000000000E+00 -0.17031592401E+02  0.17668195712E+02  0.47000000000E+01 0. -1.
         25    2    1    2    0    0 -0.76179618282E+02  0.28696137948E+02  0.10546822148E+04  0.10651791827E+04  0.12500125786E+03 0.  0.
         25    2    1    2    0    0  0.76179618282E+02 -0.28696137948E+02  0.44745853795E+03  0.47166862855E+03  0.12500139760E+03 0.  0.
          5    1    3    3  502    0 -0.46376026769E+02  0.14305218124E+02  0.11509227865E+03  0.12499479080E+03  0.47000000000E+01 0.  1.
         -5    1    3    3    0  502 -0.29803591513E+02  0.14390919823E+02  0.93958993618E+03  0.94018439192E+03  0.47000000000E+01 0.  1.
          5    1    4    4  503    0  0.23827881757E+02 -0.11169541535E+01  0.38402516987E+03  0.38479401844E+03  0.47000000000E+01 0.  1.
         -5    1    4    4    0  503  0.52351736525E+02 -0.27579183794E+02  0.63433368084E+02  0.86874610114E+02  0.47000000000E+01 0.  1.
<mgrwt>
<rscale>  0 0.14917152E+03</rscale>
<asrwt>0</asrwt>
<pdfrwt beam="2">  1        5 0.26697739E-02 0.14917155E+03</pdfrwt>
<pdfrwt beam="1">  1       -5 0.23376833E+00 0.14917155E+03</pdfrwt>
<totfact> 0.39255165E+01</totfact>
</mgrwt>
</event>
<event>
 8    1  0.1865596E-007  0.1302191E+03  0.7546771E-02  0.1227135E+00
         -5   -1    0    0    0  501 -0.00000000000E+00  0.00000000000E+00  0.11589659902E+02  0.12506407024E+02  0.47000000000E+01 0. -1.
          5   -1    0    0  501    0  0.00000000000E+00 -0.00000000000E+00 -0.14252255276E+04  0.14252332773E+04  0.47000000000E+01 0. -1.
         25    2    1    2    0    0 -0.14434727377E+02 -0.33538339912E+02 -0.62426061383E+03  0.63769767262E+03  0.12499530424E+03 0.  0.
         25    2    1    2    0    0  0.14434727377E+02  0.33538339912E+02 -0.78937525391E+03  0.80004201168E+03  0.12498298831E+03 0.  0.
          5    1    3    3  502    0  0.19472504355E+02  0.12585696652E+01 -0.53960176014E+03  0.53997491791E+03  0.47000000000E+01 0.  1.
         -5    1    3    3    0  502 -0.33907231733E+02 -0.34796909577E+02 -0.84658853694E+02  0.97722754713E+02  0.47000000000E+01 0.  1.
          5    1    4    4  503    0  0.10706648408E+02 -0.46740987504E+02 -0.23876927101E+03  0.24358203344E+03  0.47000000000E+01 0. -1.
         -5    1    4    4    0  503  0.37280789695E+01  0.80279327415E+02 -0.55060598290E+03  0.55645997824E+03  0.47000000000E+01 0. -1.
<mgrwt>
<rscale>  0 0.13021612E+03</rscale>
<asrwt>0</asrwt>
<pdfrwt beam="2">  1        5 0.21933645E+00 0.13021908E+03</pdfrwt>
<pdfrwt beam="1">  1       -5 0.18541409E-02 0.13021908E+03</pdfrwt>
<totfact> 0.83755278E+01</totfact>
</mgrwt>
</event>
<event>
 8    1  0.1865596E-007  0.1405581E+03  0.7546771E-02  0.1212580E+00
         -5   -1    0    0    0  501 -0.00000000000E+00  0.00000000000E+00  0.14373200378E+03  0.14380882765E+03  0.47000000000E+01 0. -1.
          5   -1    0    0  501    0  0.00000000000E+00 -0.00000000000E+00 -0.13927033045E+03  0.13934961408E+03  0.47000000000E+01 0. -1.
         25    2    1    2    0    0  0.46263945935E+02  0.44633477883E+02  0.19059757234E+02  0.14184429265E+03  0.12499611583E+03 0.  0.
         25    2    1    2    0    0 -0.46263945935E+02 -0.44633477883E+02 -0.14598083903E+02  0.14131414908E+03  0.12499633849E+03 0.  0.
          5    1    3    3  502    0 -0.21469448433E+02  0.60702331585E+00  0.50462046231E+02  0.55043744450E+02  0.47000000000E+01 0.  1.
         -5    1    3    3    0  502  0.67733394367E+02  0.44026454567E+02 -0.31402288997E+02  0.86800548204E+02  0.47000000000E+01 0.  1.
          5    1    4    4  503    0  0.31227017622E+02  0.10922245486E+02 -0.29647886859E+02  0.44671123461E+02  0.47000000000E+01 0.  1.
         -5    1    4    4    0  503 -0.77490963557E+02 -0.55555723369E+02  0.15049802956E+02  0.96643025621E+02  0.47000000000E+01 0.  1.
<mgrwt>
<rscale>  0 0.14055807E+03</rscale>
<asrwt>0</asrwt>
<pdfrwt beam="2">  1        5 0.21438213E-01 0.14055812E+03</pdfrwt>
<pdfrwt beam="1">  1       -5 0.22124624E-01 0.14055812E+03</pdfrwt>
<totfact> 0.28561334E+02</totfact>
</mgrwt>
</event>
<event>
 8    1  0.1865596E-007  0.1605413E+03  0.7546771E-02  0.1188090E+00
          5   -1    0    0  501    0  0.00000000000E+00  0.00000000000E+00  0.93781665957E+03  0.93782843685E+03  0.47000000000E+01 0.  1.
         -5   -1    0    0    0  501 -0.00000000000E+00 -0.00000000000E+00 -0.31407373106E+02  0.31757095041E+02  0.47000000000E+01 0.  1.
         25    2    1    2    0    0 -0.84487542774E+02  0.54838095580E+02  0.27826926736E+03  0.32125430723E+03  0.12500073257E+03 0.  0.
         25    2    1    2    0    0  0.84487542774E+02 -0.54838095580E+02  0.62814001910E+03  0.64833122467E+03  0.12501252604E+03 0.  0.
          5    1    4    4  502    0  0.52376221905E+02 -0.95107951423E+02  0.43823539445E+03  0.45150984707E+03  0.47000000000E+01 0.  1.
         -5    1    4    4    0  502  0.32111320869E+02  0.40269855843E+02  0.18990462465E+03  0.19682137760E+03  0.47000000000E+01 0.  1.
          5    1    3    3  503    0 -0.37822296498E+02  0.77899666747E+02  0.86488706363E+02  0.12247967391E+03  0.47000000000E+01 0. -1.
         -5    1    3    3    0  503 -0.46665246276E+02 -0.23061571167E+02  0.19178056100E+03  0.19877463332E+03  0.47000000000E+01 0. -1.
<mgrwt>
<rscale>  0 0.16053896E+03</rscale>
<asrwt>0</asrwt>
<pdfrwt beam="1">  1        5 0.14430728E+00 0.16054125E+03</pdfrwt>
<pdfrwt beam="2">  1       -5 0.48597115E-02 0.16054125E+03</pdfrwt>
<totfact> 0.64525564E+01</totfact>
</mgrwt>
</event>
<event>
 8    1  0.1865596E-007  0.1544123E+03  0.7546771E-02  0.1195163E+00
          5   -1    0    0  501    0  0.00000000000E+00  0.00000000000E+00  0.19669392524E+03  0.19675007046E+03  0.47000000000E+01 0.  1.
         -5   -1    0    0    0  501 -0.00000000000E+00 -0.00000000000E+00 -0.15756087242E+03  0.15763095672E+03  0.47000000000E+01 0.  1.
         25    2    1    2    0    0 -0.74260507883E+02 -0.51897990878E+02 -0.65664307430E+02  0.16776468408E+03  0.12500065387E+03 0.  0.
         25    2    1    2    0    0  0.74260507883E+02  0.51897990878E+02  0.10479736025E+03  0.18661634310E+03  0.12504058664E+03 0.  0.
          5    1    3    3  502    0  0.20843605106E+02 -0.52625703401E+02 -0.38933572618E+02  0.68860973048E+02  0.47000000000E+01 0. -1.
         -5    1    3    3    0  502 -0.95104112989E+02  0.72771252325E+00 -0.26730734812E+02  0.98903711036E+02  0.47000000000E+01 0. -1.
          5    1    4    4  503    0  0.67980018140E+02  0.56216827628E+02  0.13151979014E+03  0.15843345535E+03  0.47000000000E+01 0.  1.
         -5    1    4    4    0  503  0.62804897438E+01 -0.43188367507E+01 -0.26722429896E+02  0.28182887749E+02  0.47000000000E+01 0.  1.
<mgrwt>
<rscale>  0 0.15440426E+03</rscale>
<asrwt>0</asrwt>
<pdfrwt beam="1">  1        5 0.30270314E-01 0.15441235E+03</pdfrwt>
<pdfrwt beam="2">  1       -5 0.24249844E-01 0.15441235E+03</pdfrwt>
<totfact> 0.12743743E+02</totfact>
</mgrwt>
</event>
<event>
 8    1  0.1865596E-007  0.1313129E+03  0.7546771E-02  0.1225521E+00
          5   -1    0    0  501    0  0.00000000000E+00  0.00000000000E+00  0.77887500937E+03  0.77888918995E+03  0.47000000000E+01 0.  1.
         -5   -1    0    0    0  501 -0.00000000000E+00 -0.00000000000E+00 -0.21899396936E+02  0.22398071036E+02  0.47000000000E+01 0.  1.
         25    2    1    2    0    0 -0.26428261885E+02  0.30312064060E+02  0.36502875312E+03  0.38792919861E+03  0.12500319309E+03 0.  0.
         25    2    1    2    0    0  0.26428261885E+02 -0.30312064060E+02  0.39194685932E+03  0.41335806237E+03  0.12500109177E+03 0.  0.
          5    1    4    4  502    0 -0.47778446183E+02 -0.28518499720E+02  0.14219172703E+03  0.15276341833E+03  0.47000000000E+01 0. -1.
         -5    1    4    4    0  502  0.74206708068E+02 -0.17935643408E+01  0.24975513230E+03  0.26059464404E+03  0.47000000000E+01 0. -1.
          5    1    3    3  503    0 -0.18402905449E+02  0.67299933196E+02  0.32578543467E+03  0.33320592339E+03  0.47000000000E+01 0. -1.
         -5    1    3    3    0  503 -0.80253564357E+01 -0.36987869135E+02  0.39243318447E+02  0.54723275229E+02  0.47000000000E+01 0. -1.
<mgrwt>
<rscale>  0 0.13131238E+03</rscale>
<asrwt>0</asrwt>
<pdfrwt beam="1">  1        5 0.11986639E+00 0.13131288E+03</pdfrwt>
<pdfrwt beam="2">  1       -5 0.34085878E-02 0.13131288E+03</pdfrwt>
<totfact> 0.17658246E+02</totfact>
</mgrwt>
</event>
<event>
 8    1  0.1865596E-007  0.1422015E+03  0.7546771E-02  0.1210397E+00
          5   -1    0    0  501    0  0.00000000000E+00  0.00000000000E+00  0.83377408765E+02  0.83509773634E+02  0.47000000000E+01 0.  1.
         -5   -1    0    0    0  501 -0.00000000000E+00 -0.00000000000E+00 -0.24768026667E+03  0.24772485644E+03  0.47000000000E+01 0.  1.
         25    2    1    2    0    0 -0.36483153695E+02 -0.57141244006E+02 -0.57473845212E+02  0.15337697867E+03  0.12500044973E+03 0.  0.
         25    2    1    2    0    0  0.36483153695E+02  0.57141244006E+02 -0.10682901269E+03  0.17785765140E+03  0.12499905575E+03 0.  0.
          5    1    3    3  502    0  0.33960244431E+01 -0.80235870302E+02 -0.11528897325E+01  0.80453384142E+02  0.47000000000E+01 0.  1.
         -5    1    3    3    0  502 -0.39879178138E+02  0.23094626296E+02 -0.56320955479E+02  0.72923594528E+02  0.47000000000E+01 0.  1.
          5    1    4    4  503    0  0.48101126715E+02  0.22703397611E+02  0.10950467269E+02  0.54508397406E+02  0.47000000000E+01 0. -1.
         -5    1    4    4    0  503 -0.11617973020E+02  0.34437846395E+02 -0.11777947996E+03  0.12334925400E+03  0.47000000000E+01 0. -1.
<mgrwt>
<rscale>  0 0.14220115E+03</rscale>
<asrwt>0</asrwt>
<pdfrwt beam="1">  1        5 0.12840906E-01 0.14220146E+03</pdfrwt>
<pdfrwt beam="2">  1       -5 0.38118268E-01 0.14220146E+03</pdfrwt>
<totfact> 0.25283128E+02</totfact>
</mgrwt>
</event>
<event>
 8    1  0.1865596E-007  0.1570183E+03  0.7546771E-02  0.1192106E+00
         -5   -1    0    0    0  501 -0.00000000000E+00  0.00000000000E+00  0.10205870816E+03  0.10216687287E+03  0.47000000000E+01 0. -1.
          5   -1    0    0  501    0  0.00000000000E+00 -0.00000000000E+00 -0.25045949177E+03  0.25050358683E+03  0.47000000000E+01 0. -1.
         25    2    1    2    0    0  0.91096786426E+02  0.27045614840E+02 -0.10789446605E+03  0.19051157811E+03  0.12499342308E+03 0.  0.
         25    2    1    2    0    0 -0.91096786426E+02 -0.27045614840E+02 -0.40506317560E+02  0.16215888158E+03  0.12499860533E+03 0.  0.
          5    1    4    4  502    0 -0.23050396909E+02  0.74200383170E+01  0.42618876748E+02  0.49242628093E+02  0.47000000000E+01 0. -1.
         -5    1    4    4    0  502 -0.68046389517E+02 -0.34465653157E+02 -0.83125194308E+02  0.11291625349E+03  0.47000000000E+01 0. -1.
          5    1    3    3  503    0  0.78597811539E+02 -0.25148847383E+02 -0.10878969546E+03  0.13662857805E+03  0.47000000000E+01 0.  1.
         -5    1    3    3    0  503  0.12498974887E+02  0.52194462222E+02  0.89522940864E+00  0.53883000061E+02  0.47000000000E+01 0.  1.
<mgrwt>
<rscale>  0 0.15701725E+03</rscale>
<asrwt>0</asrwt>
<pdfrwt beam="2">  1        5 0.38543942E-01 0.15701828E+03</pdfrwt>
<pdfrwt beam="1">  1       -5 0.15713052E-01 0.15701828E+03</pdfrwt>
<totfact> 0.17747696E+02</totfact>
</mgrwt>
</event>
<event>
 8    1  0.1865596E-007  0.1551478E+03  0.7546771E-02  0.1194287E+00
         -5   -1    0    0    0  501 -0.00000000000E+00  0.00000000000E+00  0.26356046631E+03  0.26360236988E+03  0.47000000000E+01 0. -1.
          5   -1    0    0  501    0  0.00000000000E+00 -0.00000000000E+00 -0.10125196801E+03  0.10136099361E+03  0.47000000000E+01 0. -1.
         25    2    1    2    0    0  0.90318124338E+02  0.16968732988E+02  0.13855275827E+03  0.20800889959E+03  0.12500213598E+03 0.  0.
         25    2    1    2    0    0 -0.90318124338E+02 -0.16968732988E+02  0.23755740037E+02  0.15695446390E+03  0.12500026828E+03 0.  0.
          5    1    3    3  502    0  0.10178877641E+03 -0.34836101605E+01  0.44996910868E+02  0.11144461643E+03  0.47000000000E+01 0. -1.
         -5    1    3    3    0  502 -0.11470652074E+02  0.20452343149E+02  0.93555847400E+02  0.96564283159E+02  0.47000000000E+01 0. -1.
          5    1    4    4  503    0 -0.64714677643E+02  0.27686517820E+02  0.60987316813E+02  0.93252751078E+02  0.47000000000E+01 0. -1.
         -5    1    4    4    0  503 -0.25603446694E+02 -0.44655250808E+02 -0.37231576776E+02  0.63701712823E+02  0.47000000000E+01 0. -1.
<mgrwt>
<rscale>  0 0.15514741E+03</rscale>
<asrwt>0</asrwt>
<pdfrwt beam="2">  1        5 0.15588836E-01 0.15514779E+03</pdfrwt>
<pdfrwt beam="1">  1       -5 0.40559373E-01 0.15514779E+03</pdfrwt>
<totfact> 0.16160021E+02</totfact>
</mgrwt>
</event>
<event>
 8    1  0.1865596E-007  0.1342616E+03  0.7546771E-02  0.1221271E+00
          5   -1    0    0  501    0  0.00000000000E+00  0.00000000000E+00  0.24375081287E+03  0.24379612133E+03  0.47000000000E+01 0. -1.
         -5   -1    0    0    0  501 -0.00000000000E+00 -0.00000000000E+00 -0.85088905503E+02  0.85218612050E+02  0.47000000000E+01 0. -1.
         25    2    1    2    0    0 -0.67204039809E+01  0.48499529167E+02  0.19520498701E+02  0.13565883764E+03  0.12499960880E+03 0.  0.
         25    2    1    2    0    0  0.67204039809E+01 -0.48499529167E+02  0.13914140866E+03  0.19335589574E+03  0.12501520969E+03 0.  0.
          5    1    3    3  502    0 -0.49834784926E+02  0.48495613555E+01 -0.28320658577E+02  0.57716321229E+02  0.47000000000E+01 0. -1.
         -5    1    3    3    0  502  0.43114380945E+02  0.43649967812E+02  0.47841157278E+02  0.77942516408E+02  0.47000000000E+01 0. -1.
          5    1    4    4  503    0 -0.28444289037E+01  0.23300176971E+02 -0.11184403031E+02  0.26422904720E+02  0.47000000000E+01 0.  1.
         -5    1    4    4    0  503  0.95648328846E+01 -0.71799706138E+02  0.15032581170E+03  0.16693299102E+03  0.47000000000E+01 0.  1.
<mgrwt>
<rscale>  0 0.13425794E+03</rscale>
<asrwt>0</asrwt>
<pdfrwt beam="1">  1        5 0.37513587E-01 0.13426158E+03</pdfrwt>
<pdfrwt beam="2">  1       -5 0.13104064E-01 0.13426158E+03</pdfrwt>
<totfact> 0.24702058E+02</totfact>
</mgrwt>
</event>
<event>
 8    1  0.1865596E-007  0.1510672E+03  0.7546771E-02  0.1199169E+00
         -5   -1    0    0    0  501 -0.00000000000E+00  0.00000000000E+00  0.24124652297E+02  0.24578218985E+02  0.47000000000E+01 0. -1.
          5   -1    0    0  501    0  0.00000000000E+00 -0.00000000000E+00 -0.10763305034E+04  0.10763407651E+04  0.47000000000E+01 0. -1.
         25    2    1    2    0    0 -0.84365962206E+02  0.89433291131E+01 -0.32786544098E+03  0.36099308381E+03  0.12499064147E+03 0.  0.
         25    2    1    2    0    0  0.84365962206E+02 -0.89433291131E+01 -0.72434041014E+03  0.73992590026E+03  0.12499483749E+03 0.  0.
          5    1    3    3  502    0  0.23118627537E+02 -0.22793671839E+02 -0.12443974090E+03  0.12869095357E+03  0.47000000000E+01 0.  1.
         -5    1    3    3    0  502 -0.10748458974E+03  0.31737000952E+02 -0.20342570008E+03  0.23230213024E+03  0.47000000000E+01 0.  1.
          5    1    4    4  503    0  0.74127708944E+02 -0.38616492771E+02 -0.68142750350E+03  0.68655056862E+03  0.47000000000E+01 0. -1.
         -5    1    4    4    0  503  0.10238253262E+02  0.29673163658E+02 -0.42912906636E+02  0.53375331636E+02  0.47000000000E+01 0. -1.
<mgrwt>
<rscale>  0 0.15106636E+03</rscale>
<asrwt>0</asrwt>
<pdfrwt beam="2">  1        5 0.16562495E+00 0.15106723E+03</pdfrwt>
<pdfrwt beam="1">  1       -5 0.37471649E-02 0.15106723E+03</pdfrwt>
<totfact> 0.66430844E+01</totfact>
</mgrwt>
</event>
<event>
 8    1  0.1865596E-007  0.1347027E+03  0.7546771E-02  0.1220646E+00
          5   -1    0    0  501    0  0.00000000000E+00  0.00000000000E+00  0.37779317019E+02  0.38070550225E+02  0.47000000000E+01 0. -1.
         -5   -1    0    0    0  501 -0.00000000000E+00 -0.00000000000E+00 -0.49132647232E+03  0.49134895177E+03  0.47000000000E+01 0. -1.
         25    2    1    2    0    0  0.46553077044E+02 -0.18642720838E+02 -0.27024825630E+03  0.30195852023E+03  0.12502034987E+03 0.  0.
         25    2    1    2    0    0 -0.46553077044E+02  0.18642720838E+02 -0.18329889901E+03  0.22746098177E+03  0.12500108731E+03 0.  0.
          5    1    4    4  502    0  0.24590934899E+02 -0.31402136601E+02 -0.96341498915E+02  0.10437711759E+03  0.47000000000E+01 0. -1.
         -5    1    4    4    0  502 -0.71144011943E+02  0.50044857439E+02 -0.86957400091E+02  0.12308386418E+03  0.47000000000E+01 0. -1.
          5    1    3    3  503    0 -0.36479867534E+02  0.38861128183E+01 -0.33070894052E+02  0.49615084819E+02  0.47000000000E+01 0. -1.
         -5    1    3    3    0  503  0.83032944578E+02 -0.22528833657E+02 -0.23717736225E+03  0.25234343541E+03  0.47000000000E+01 0. -1.
<mgrwt>
<rscale>  0 0.13469827E+03</rscale>
<asrwt>0</asrwt>
<pdfrwt beam="1">  1        5 0.58363347E-02 0.13470274E+03</pdfrwt>
<pdfrwt beam="2">  1       -5 0.75612815E-01 0.13470274E+03</pdfrwt>
<totfact> 0.22220550E+02</totfact>
</mgrwt>
</event>
<event>
 8    1  0.1865596E-007  0.1314236E+03  0.7546771E-02  0.1225359E+00
         -5   -1    0    0    0  501 -0.00000000000E+00  0.00000000000E+00  0.75074985080E+02  0.75221960788E+02  0.47000000000E+01 0. -1.
          5   -1    0    0  501    0  0.00000000000E+00 -0.00000000000E+00 -0.39390718224E+03  0.39393522084E+03  0.47000000000E+01 0. -1.
         25    2    1    2    0    0  0.35985547993E+02 -0.18759123231E+02 -0.79787509223E+01  0.13166344295E+03  0.12499894950E+03 0.  0.
         25    2    1    2    0    0 -0.35985547993E+02  0.18759123231E+02 -0.31085344624E+03  0.33749373868E+03  0.12500117696E+03 0.  0.
          5    1    4    4  502    0 -0.63284042531E+02  0.14890464223E+02 -0.30078665141E+03  0.30776824988E+03  0.47000000000E+01 0.  1.
         -5    1    4    4    0  502  0.27298494538E+02  0.38686590072E+01 -0.10066794827E+02  0.29725488804E+02  0.47000000000E+01 0.  1.
          5    1    3    3  503    0 -0.43424983827E+02 -0.20892559331E+02  0.11437871386E+02  0.49750810622E+02  0.47000000000E+01 0. -1.
         -5    1    3    3    0  503  0.79410531820E+02  0.21334360999E+01 -0.19416622308E+02  0.81912632331E+02  0.47000000000E+01 0. -1.
<mgrwt>
<rscale>  0 0.13142306E+03</rscale>
<asrwt>0</asrwt>
<pdfrwt beam="2">  1        5 0.60614566E-01 0.13142358E+03</pdfrwt>
<pdfrwt beam="1">  1       -5 0.11563461E-01 0.13142358E+03</pdfrwt>
<totfact> 0.11160488E+02</totfact>
</mgrwt>
</event>
<event>
 8    1  0.1865596E-007  0.1254124E+03  0.7546771E-02  0.1234428E+00
         -5   -1    0    0    0  501 -0.00000000000E+00  0.00000000000E+00  0.59879557119E+02  0.60063727497E+02  0.47000000000E+01 0. -1.
          5   -1    0    0  501    0  0.00000000000E+00 -0.00000000000E+00 -0.26500497745E+03  0.26504665264E+03  0.47000000000E+01 0. -1.
         25    2    1    2    0    0 -0.66031239450E+01 -0.76707892690E+01 -0.85394802446E+02  0.15172154968E+03  0.12499885639E+03 0.  0.
         25    2    1    2    0    0  0.66031239450E+01  0.76707892690E+01 -0.11973061789E+03  0.17338883046E+03  0.12500329361E+03 0.  0.
          5    1    3    3  502    0  0.10790143860E+00 -0.65355017574E+02 -0.57274445701E+02  0.87027249153E+02  0.47000000000E+01 0.  1.
         -5    1    3    3    0  502 -0.67110253836E+01  0.57684228305E+02 -0.28120356746E+02  0.64694300525E+02  0.47000000000E+01 0.  1.
          5    1    4    4  503    0 -0.45680875309E+02  0.40829724732E+02 -0.74492762819E+02  0.96566404629E+02  0.47000000000E+01 0.  1.
         -5    1    4    4    0  503  0.52283999254E+02 -0.33158935463E+02 -0.45237855070E+02  0.76822425829E+02  0.47000000000E+01 0.  1.
<mgrwt>
<rscale>  0 0.12541128E+03</rscale>
<asrwt>0</asrwt>
<pdfrwt beam="2">  1        5 0.40787369E-01 0.12541238E+03</pdfrwt>
<pdfrwt beam="1">  1       -5 0.92296124E-02 0.12541238E+03</pdfrwt>
<totfact> 0.37636906E+02</totfact>
</mgrwt>
</event>
<event>
 8    1  0.1865596E-007  0.1363230E+03  0.7546771E-02  0.1218364E+00
         -5   -1    0    0    0  501 -0.00000000000E+00  0.00000000000E+00  0.10437998469E+04  0.10438104284E+04  0.47000000000E+01 0. -1.
          5   -1    0    0  501    0  0.00000000000E+00 -0.00000000000E+00 -0.17672895217E+02  0.18287187464E+02  0.47000000000E+01 0. -1.
         25    2    1    2    0    0 -0.45649604085E+02 -0.29554630647E+02  0.56715636072E+03  0.58330977577E+03  0.12500637764E+03 0.  0.
         25    2    1    2    0    0  0.45649604085E+02  0.29554630647E+02  0.45897059096E+03  0.47878784007E+03  0.12500571943E+03 0.  0.
          5    1    4    4  502    0  0.54920582965E+01  0.75084175751E+02  0.25461388832E+03  0.26555247745E+03  0.47000000000E+01 0. -1.
         -5    1    4    4    0  502  0.40157545789E+02 -0.45529545104E+02  0.20435670264E+03  0.21323536263E+03  0.47000000000E+01 0. -1.
          5    1    3    3  503    0  0.25793249018E+02 -0.25229728542E+02  0.39685526328E+03  0.39851978733E+03  0.47000000000E+01 0. -1.
         -5    1    3    3    0  503 -0.71442853103E+02 -0.43249021044E+01  0.17030109744E+03  0.18478998844E+03  0.47000000000E+01 0. -1.
<mgrwt>
<rscale>  0 0.13632284E+03</rscale>
<asrwt>0</asrwt>
<pdfrwt beam="2">  1        5 0.27669740E-02 0.13632299E+03</pdfrwt>
<pdfrwt beam="1">  1       -5 0.16063267E+00 0.13632299E+03</pdfrwt>
<totfact> 0.11486565E+02</totfact>
</mgrwt>
</event>
<event>
 8    1  0.1865596E-007  0.1298004E+03  0.7546771E-02  0.1227761E+00
         -5   -1    0    0    0  501 -0.00000000000E+00  0.00000000000E+00  0.41699562915E+02  0.41963597884E+02  0.47000000000E+01 0. -1.
          5   -1    0    0  501    0  0.00000000000E+00 -0.00000000000E+00 -0.49924360658E+03  0.49926572956E+03  0.47000000000E+01 0. -1.
         25    2    1    2    0    0 -0.33402415139E+02 -0.99119794585E+01 -0.10964265898E+03  0.16991071806E+03  0.12503667769E+03 0.  0.
         25    2    1    2    0    0  0.33402415139E+02  0.99119794585E+01 -0.34790138469E+03  0.37131860939E+03  0.12501266951E+03 0.  0.
          5    1    4    4  502    0  0.62149092683E+02 -0.16433392665E+02 -0.91482767069E+02  0.11190957415E+03  0.47000000000E+01 0.  1.
         -5    1    4    4    0  502 -0.28746677544E+02  0.26345372124E+02 -0.25641861762E+03  0.25940903524E+03  0.47000000000E+01 0.  1.
          5    1    3    3  503    0  0.82646716304E+01  0.33485102281E+02  0.97377720254E+01  0.36145139037E+02  0.47000000000E+01 0. -1.
         -5    1    3    3    0  503 -0.41667086769E+02 -0.43397081740E+02 -0.11938043101E+03  0.13376557902E+03  0.47000000000E+01 0. -1.
<mgrwt>
<rscale>  0 0.12979460E+03</rscale>
<asrwt>0</asrwt>
<pdfrwt beam="2">  1        5 0.76828717E-01 0.12980038E+03</pdfrwt>
<pdfrwt beam="1">  1       -5 0.64373299E-02 0.12980038E+03</pdfrwt>
<totfact> 0.17937798E+02</totfact>
</mgrwt>
</event>
<event>
 8    1  0.1865596E-007  0.1466645E+03  0.7546771E-02  0.1204634E+00
         -5   -1    0    0    0  501 -0.00000000000E+00  0.00000000000E+00  0.11741132625E+04  0.11741226695E+04  0.47000000000E+01 0.  1.
          5   -1    0    0  501    0  0.00000000000E+00 -0.00000000000E+00 -0.24660392606E+02  0.25104281776E+02  0.47000000000E+01 0.  1.
         25    2    1    2    0    0 -0.76530677913E+02 -0.54027740060E+01  0.88281491447E+03  0.89491417810E+03  0.12499231306E+03 0.  0.
         25    2    1    2    0    0  0.76530677913E+02  0.54027740060E+01  0.26663795540E+03  0.30431277322E+03  0.12499732018E+03 0.  0.
          5    1    3    3  502    0 -0.48981848702E+02 -0.63679763085E+02  0.55314359359E+03  0.55896713576E+03  0.47000000000E+01 0. -1.
         -5    1    3    3    0  502 -0.27548829211E+02  0.58276989079E+02  0.32967132088E+03  0.33594704234E+03  0.47000000000E+01 0. -1.
          5    1    4    4  503    0  0.92546964956E+02  0.33667000825E+02  0.12650717076E+03  0.16038878365E+03  0.47000000000E+01 0.  1.
         -5    1    4    4    0  503 -0.16016287043E+02 -0.28264226819E+02  0.14013078464E+03  0.14392398956E+03  0.47000000000E+01 0.  1.
<mgrwt>
<rscale>  0 0.14666340E+03</rscale>
<asrwt>0</asrwt>
<pdfrwt beam="2">  1        5 0.38287763E-02 0.14666446E+03</pdfrwt>
<pdfrwt beam="1">  1       -5 0.18066764E+00 0.14666446E+03</pdfrwt>
<totfact> 0.49420163E+01</totfact>
</mgrwt>
</event>
<event>
 8    1  0.1865596E-007  0.1278197E+03  0.7546771E-02  0.1230730E+00
          5   -1    0    0  501    0  0.00000000000E+00  0.00000000000E+00  0.17612207259E+03  0.17618477361E+03  0.47000000000E+01 0. -1.
         -5   -1    0    0    0  501 -0.00000000000E+00 -0.00000000000E+00 -0.93126256914E+02  0.93244783912E+02  0.47000000000E+01 0. -1.
         25    2    1    2    0    0 -0.26591507868E+02  0.17802607631E+01  0.31576105939E+02  0.13165485758E+03  0.12500269373E+03 0.  0.
         25    2    1    2    0    0  0.26591507868E+02 -0.17802607631E+01  0.51419709733E+02  0.13777469994E+03  0.12501041467E+03 0.  0.
          5    1    4    4  502    0  0.75708615651E+02  0.11091839163E+02  0.34302612386E+02  0.83985609460E+02  0.47000000000E+01 0. -1.
         -5    1    4    4    0  502 -0.49117107783E+02 -0.12872099926E+02  0.17117097346E+02  0.53789090484E+02  0.47000000000E+01 0. -1.
          5    1    3    3  503    0 -0.59964163358E+02 -0.37319539325E+02  0.36785218804E+02  0.79772747384E+02  0.47000000000E+01 0.  1.
         -5    1    3    3    0  503  0.33372655490E+02  0.39099800088E+02 -0.52091128654E+01  0.51882110195E+02  0.47000000000E+01 0.  1.
<mgrwt>
<rscale>  0 0.12781783E+03</rscale>
<asrwt>0</asrwt>
<pdfrwt beam="1">  1        5 0.27109644E-01 0.12781972E+03</pdfrwt>
<pdfrwt beam="2">  1       -5 0.14341057E-01 0.12781972E+03</pdfrwt>
<totfact> 0.39243440E+02</totfact>
</mgrwt>
</event>
<event>
 8    1  0.1865596E-007  0.1841872E+03  0.7546771E-02  0.1163811E+00
          5   -1    0    0  501    0  0.00000000000E+00  0.00000000000E+00  0.10072758248E+03  0.10083717505E+03  0.47000000000E+01 0.  1.
         -5   -1    0    0    0  501 -0.00000000000E+00 -0.00000000000E+00 -0.34508034112E+03  0.34511234668E+03  0.47000000000E+01 0.  1.
         25    2    1    2    0    0 -0.12345719906E+03  0.55303552303E+02 -0.15735205610E+03  0.24224900000E+03  0.12499898218E+03 0.  0.
         25    2    1    2    0    0  0.12345719906E+03 -0.55303552303E+02 -0.87000702541E+02  0.20370052172E+03  0.12499846964E+03 0.  0.
          5    1    4    4  502    0  0.93421628161E+02 -0.94746895799E+02 -0.73595981357E+02  0.15212834497E+03  0.47000000000E+01 0. -1.
         -5    1    4    4    0  502  0.30035570896E+02  0.39443343495E+02 -0.13404721184E+02  0.51572176754E+02  0.47000000000E+01 0. -1.
          5    1    3    3  503    0 -0.95561233307E+02  0.16223449893E+02 -0.16690662933E+03  0.19306750776E+03  0.47000000000E+01 0. -1.
         -5    1    3    3    0  503 -0.27895965750E+02  0.39080102410E+02  0.95545732322E+01  0.49181492242E+02  0.47000000000E+01 0. -1.
<mgrwt>
<rscale>  0 0.18418707E+03</rscale>
<asrwt>0</asrwt>
<pdfrwt beam="1">  1        5 0.15507443E-01 0.18418716E+03</pdfrwt>
<pdfrwt beam="2">  1       -5 0.53100175E-01 0.18418716E+03</pdfrwt>
<totfact> 0.97497639E+01</totfact>
</mgrwt>
</event>
<event>
 8    1  0.1865596E-007  0.1276401E+03  0.7546771E-02  0.1231001E+00
         -5   -1    0    0    0  501 -0.00000000000E+00  0.00000000000E+00  0.12909907737E+03  0.12918460348E+03  0.47000000000E+01 0. -1.
          5   -1    0    0  501    0  0.00000000000E+00 -0.00000000000E+00 -0.12604475885E+03  0.12613235601E+03  0.47000000000E+01 0. -1.
         25    2    1    2    0    0 -0.25449725560E+02 -0.42609235421E+01 -0.12446909804E+00  0.12763727424E+03  0.12500165712E+03 0.  0.
         25    2    1    2    0    0  0.25449725560E+02  0.42609235421E+01  0.31787876174E+01  0.12767968525E+03  0.12500461326E+03 0.  0.
          5    1    3    3  502    0 -0.18231536629E+02  0.24931834853E+01 -0.61978064933E+02  0.64822645924E+02  0.47000000000E+01 0.  1.
         -5    1    3    3    0  502 -0.72181889305E+01 -0.67541070274E+01  0.61853595834E+02  0.62814628319E+02  0.47000000000E+01 0.  1.
          5    1    4    4  503    0 -0.32868989796E+02 -0.28918030999E+01 -0.41853474529E+02  0.53502676059E+02  0.47000000000E+01 0.  1.
         -5    1    4    4    0  503  0.58318715356E+02  0.71527266420E+01  0.45032262146E+02  0.74177009195E+02  0.47000000000E+01 0.  1.
<mgrwt>
<rscale>  0 0.12763938E+03</rscale>
<asrwt>0</asrwt>
<pdfrwt beam="2">  1        5 0.19404819E-01 0.12764011E+03</pdfrwt>
<pdfrwt beam="1">  1       -5 0.19874714E-01 0.12764011E+03</pdfrwt>
<totfact> 0.40666239E+02</totfact>
</mgrwt>
</event>
<event>
 8    1  0.1865596E-007  0.1395073E+03  0.7546771E-02  0.1213995E+00
          5   -1    0    0  501    0  0.00000000000E+00  0.00000000000E+00  0.62956473061E+02  0.63131667967E+02  0.47000000000E+01 0. -1.
         -5   -1    0    0    0  501 -0.00000000000E+00 -0.00000000000E+00 -0.62812701473E+03  0.62814459851E+03  0.47000000000E+01 0. -1.
         25    2    1    2    0    0 -0.16844933145E+02  0.59610437853E+02 -0.52909896428E+03  0.54718098106E+03  0.12499662380E+03 0.  0.
         25    2    1    2    0    0  0.16844933145E+02 -0.59610437853E+02 -0.36071577393E+02  0.14409528541E+03  0.12500054604E+03 0.  0.
          5    1    4    4  502    0  0.52585062108E+02  0.16372722502E+02 -0.11250535492E+02  0.56408504216E+02  0.47000000000E+01 0.  1.
         -5    1    4    4    0  502 -0.35740128963E+02 -0.75983160355E+02 -0.24821041901E+02  0.87686781198E+02  0.47000000000E+01 0.  1.
          5    1    3    3  503    0  0.52742866157E+02  0.39943841291E+02 -0.22543345894E+03  0.23498862695E+03  0.47000000000E+01 0. -1.
         -5    1    3    3    0  503 -0.69587799302E+02  0.19666596562E+02 -0.30366550534E+03  0.31219235411E+03  0.47000000000E+01 0. -1.
<mgrwt>
<rscale>  0 0.13950644E+03</rscale>
<asrwt>0</asrwt>
<pdfrwt beam="1">  1        5 0.97004408E-02 0.13950732E+03</pdfrwt>
<pdfrwt beam="2">  1       -5 0.96649750E-01 0.13950732E+03</pdfrwt>
<totfact> 0.53053172E+01</totfact>
</mgrwt>
</event>
<event>
 8    1  0.1865596E-007  0.1801344E+03  0.7546771E-02  0.1167688E+00
         -5   -1    0    0    0  501 -0.00000000000E+00  0.00000000000E+00  0.62263363273E+03  0.62265137164E+03  0.47000000000E+01 0. -1.
          5   -1    0    0  501    0  0.00000000000E+00 -0.00000000000E+00 -0.52215578442E+02  0.52426678628E+02  0.47000000000E+01 0. -1.
         25    2    1    2    0    0 -0.11000387569E+03 -0.68729357475E+02  0.30815746249E+03  0.35691298585E+03  0.12490508610E+03 0.  0.
         25    2    1    2    0    0  0.11000387569E+03  0.68729357475E+02  0.26226059180E+03  0.31816506442E+03  0.12499525176E+03 0.  0.
          5    1    4    4  502    0  0.52328124493E+02  0.62681533261E+02  0.24375560054E+03  0.25711104608E+03  0.47000000000E+01 0.  1.
         -5    1    4    4    0  502  0.57675751195E+02  0.60478242131E+01  0.18504991264E+02  0.61054018339E+02  0.47000000000E+01 0.  1.
          5    1    3    3  503    0 -0.65167083115E+01 -0.72540016446E+02  0.16245639060E+03  0.17809741806E+03  0.47000000000E+01 0. -1.
         -5    1    3    3    0  503 -0.10348716738E+03  0.38106589711E+01  0.14570107189E+03  0.17881556779E+03  0.47000000000E+01 0. -1.
<mgrwt>
<rscale>  0 0.18011873E+03</rscale>
<asrwt>0</asrwt>
<pdfrwt beam="2">  1        5 0.80507693E-02 0.18013437E+03</pdfrwt>
<pdfrwt beam="1">  1       -5 0.95807388E-01 0.18013437E+03</pdfrwt>
<totfact> 0.80680778E+01</totfact>
</mgrwt>
</event>
<event>
 8    1  0.1865596E-007  0.1556620E+03  0.7546771E-02  0.1193684E+00
         -5   -1    0    0    0  501 -0.00000000000E+00  0.00000000000E+00  0.50185835549E+02  0.50405437105E+02  0.47000000000E+01 0.  1.
          5   -1    0    0  501    0  0.00000000000E+00 -0.00000000000E+00 -0.48157230000E+03  0.48159523475E+03  0.47000000000E+01 0.  1.
         25    2    1    2    0    0 -0.28414999177E+02  0.88303854309E+02 -0.21835421278E+03  0.26815895812E+03  0.12500272683E+03 0.  0.
         25    2    1    2    0    0  0.28414999177E+02 -0.88303854309E+02 -0.21303225168E+03  0.26384171374E+03  0.12499890715E+03 0.  0.
          5    1    4    4  502    0  0.40720893126E+02 -0.11486279681E+03 -0.19212477123E+03  0.22756465224E+03  0.47000000000E+01 0.  1.
         -5    1    4    4    0  502 -0.12305893949E+02  0.26558942497E+02 -0.20907480441E+02  0.36277061497E+02  0.47000000000E+01 0.  1.
          5    1    3    3  503    0  0.15099064867E+02 -0.25765187899E+02 -0.24031979168E+02  0.38619330523E+02  0.47000000000E+01 0.  1.
         -5    1    3    3    0  503 -0.43514064043E+02  0.11406904221E+03 -0.19432223361E+03  0.22953962759E+03  0.47000000000E+01 0.  1.
<mgrwt>
<rscale>  0 0.15566125E+03</rscale>
<asrwt>0</asrwt>
<pdfrwt beam="2">  1        5 0.74106700E-01 0.15566202E+03</pdfrwt>
<pdfrwt beam="1">  1       -5 0.77395547E-02 0.15566202E+03</pdfrwt>
<totfact> 0.15118413E+02</totfact>
</mgrwt>
</event>
<event>
 8    1  0.1865596E-007  0.1489928E+03  0.7546771E-02  0.1201717E+00
         -5   -1    0    0    0  501 -0.00000000000E+00  0.00000000000E+00  0.54239892324E+03  0.54241928610E+03  0.47000000000E+01 0. -1.
          5   -1    0    0  501    0  0.00000000000E+00 -0.00000000000E+00 -0.41216407899E+02  0.41483518174E+02  0.47000000000E+01 0. -1.
         25    2    1    2    0    0  0.40348713556E+02  0.70326184166E+02  0.28086994796E+03  0.31794149062E+03  0.12500029170E+03 0.  0.
         25    2    1    2    0    0 -0.40348713556E+02 -0.70326184166E+02  0.22031256738E+03  0.26596131365E+03  0.12499600853E+03 0.  0.
          5    1    3    3  502    0 -0.39688311081E+01 -0.33112087352E+02  0.41885369639E+02  0.53746033704E+02  0.47000000000E+01 0.  1.
         -5    1    3    3    0  502  0.44317544664E+02  0.10343827152E+03  0.23898457832E+03  0.26419545692E+03  0.47000000000E+01 0.  1.
          5    1    4    4  503    0 -0.52108355247E+02  0.34983447125E+01  0.27713368850E+02  0.59309694952E+02  0.47000000000E+01 0. -1.
         -5    1    4    4    0  503  0.11759641692E+02 -0.73824528879E+02  0.19259919853E+03  0.20665161870E+03  0.47000000000E+01 0. -1.
<mgrwt>
<rscale>  0 0.14899193E+03</rscale>
<asrwt>0</asrwt>
<pdfrwt beam="2">  1        5 0.63630991E-02 0.14899283E+03</pdfrwt>
<pdfrwt beam="1">  1       -5 0.83468102E-01 0.14899283E+03</pdfrwt>
<totfact> 0.15803640E+02</totfact>
</mgrwt>
</event>
<event>
 8    1  0.1865596E-007  0.1258010E+03  0.7546771E-02  0.1233826E+00
          5   -1    0    0  501    0  0.00000000000E+00  0.00000000000E+00  0.10548426210E+03  0.10558891775E+03  0.47000000000E+01 0.  1.
         -5   -1    0    0    0  501 -0.00000000000E+00 -0.00000000000E+00 -0.15091173043E+03  0.15098490117E+03  0.47000000000E+01 0.  1.
         25    2    1    2    0    0  0.14032705660E+02  0.19801799640E+01 -0.33697556369E+02  0.13023604684E+03  0.12500025861E+03 0.  0.
         25    2    1    2    0    0 -0.14032705660E+02 -0.19801799640E+01 -0.11729911955E+02  0.12633777208E+03  0.12499121520E+03 0.  0.
          5    1    4    4  502    0 -0.12036282926E+02  0.40788275942E+02 -0.52022524723E+02  0.67357172146E+02  0.47000000000E+01 0. -1.
         -5    1    4    4    0  502 -0.19964227343E+01 -0.42768455906E+02  0.40292612768E+02  0.58980599929E+02  0.47000000000E+01 0. -1.
          5    1    3    3  503    0 -0.19078102949E+02  0.57619750553E+02 -0.16974729984E+02  0.63200008891E+02  0.47000000000E+01 0. -1.
         -5    1    3    3    0  503  0.33110808609E+02 -0.55639570589E+02 -0.16722826385E+02  0.67036037952E+02  0.47000000000E+01 0. -1.
<mgrwt>
<rscale>  0 0.12579880E+03</rscale>
<asrwt>0</asrwt>
<pdfrwt beam="1">  1        5 0.16242027E-01 0.12580104E+03</pdfrwt>
<pdfrwt beam="2">  1       -5 0.23230868E-01 0.12580104E+03</pdfrwt>
<totfact> 0.41847355E+02</totfact>
</mgrwt>
</event>
<event>
 8    1  0.1865596E-007  0.2279582E+03  0.7546771E-02  0.1128086E+00
         -5   -1    0    0    0  501 -0.00000000000E+00  0.00000000000E+00  0.11101021256E+04  0.11101120751E+04  0.47000000000E+01 0.  1.
          5   -1    0    0  501    0  0.00000000000E+00 -0.00000000000E+00 -0.70787441552E+02  0.70943300469E+02  0.47000000000E+01 0.  1.
         25    2    1    2    0    0  0.19062918424E+03 -0.14617326728E+00  0.86375996757E+03  0.89333433752E+03  0.12500179905E+03 0.  0.
         25    2    1    2    0    0 -0.19062918424E+03  0.14617326728E+00  0.17555471649E+03  0.28772103805E+03  0.12499771999E+03 0.  0.
          5    1    3    3  502    0  0.13808991442E+03  0.22398651785E+02  0.35896146957E+03  0.38528684211E+03  0.47000000000E+01 0.  1.
         -5    1    3    3    0  502  0.52539269821E+02 -0.22544825052E+02  0.50479849800E+03  0.50804749541E+03  0.47000000000E+01 0.  1.
          5    1    4    4  503    0 -0.20134861770E+02  0.53227792915E+01  0.97977206653E+02  0.10027645617E+03  0.47000000000E+01 0.  1.
         -5    1    4    4    0  503 -0.17049432247E+03 -0.51766060242E+01  0.77577509840E+02  0.18744458189E+03  0.47000000000E+01 0.  1.
<mgrwt>
<rscale>  0 0.22795768E+03</rscale>
<asrwt>0</asrwt>
<pdfrwt beam="2">  1        5 0.10903130E-01 0.22795824E+03</pdfrwt>
<pdfrwt beam="1">  1       -5 0.17079769E+00 0.22795824E+03</pdfrwt>
<totfact> 0.10957038E+01</totfact>
</mgrwt>
</event>
<event>
 8    1  0.1865596E-007  0.1322861E+03  0.7546771E-02  0.1224103E+00
         -5   -1    0    0    0  501 -0.00000000000E+00  0.00000000000E+00  0.59821495359E+02  0.60005843940E+02  0.47000000000E+01 0. -1.
          5   -1    0    0  501    0  0.00000000000E+00 -0.00000000000E+00 -0.31266420227E+03  0.31269952572E+03  0.47000000000E+01 0. -1.
         25    2    1    2    0    0 -0.35551957276E+02 -0.24701862841E+02 -0.78385802022E+02  0.15376515571E+03  0.12500106183E+03 0.  0.
         25    2    1    2    0    0  0.35551957276E+02  0.24701862841E+02 -0.17445690489E+03  0.21894021395E+03  0.12500192768E+03 0.  0.
          5    1    3    3  502    0 -0.39254022346E+02  0.13586961449E+02 -0.10070995481E+03  0.10904159202E+03  0.47000000000E+01 0.  1.
         -5    1    3    3    0  502  0.37020650699E+01 -0.38288824290E+02  0.22324152793E+02  0.44723563691E+02  0.47000000000E+01 0.  1.
          5    1    4    4  503    0  0.23396795578E+02  0.65276009021E+02 -0.45366471540E+02  0.82997434521E+02  0.47000000000E+01 0. -1.
         -5    1    4    4    0  503  0.12155161698E+02 -0.40574146181E+02 -0.12909043335E+03  0.13594277943E+03  0.47000000000E+01 0. -1.
<mgrwt>
<rscale>  0 0.13228587E+03</rscale>
<asrwt>0</asrwt>
<pdfrwt beam="2">  1        5 0.48119082E-01 0.13228607E+03</pdfrwt>
<pdfrwt beam="1">  1       -5 0.92202050E-02 0.13228607E+03</pdfrwt>
<totfact> 0.27279254E+02</totfact>
</mgrwt>
</event>
<event>
 8    1  0.1865596E-007  0.1581217E+03  0.7546771E-02  0.1190840E+00
         -5   -1    0    0    0  501 -0.00000000000E+00  0.00000000000E+00  0.19968622170E+03  0.19974152582E+03  0.47000000000E+01 0. -1.
          5   -1    0    0  501    0  0.00000000000E+00 -0.00000000000E+00 -0.12512083464E+03  0.12520907819E+03  0.47000000000E+01 0. -1.
         25    2    1    2    0    0 -0.77879005719E+02 -0.57558702946E+02  0.40435257687E+02  0.16318734953E+03  0.12496782453E+03 0.  0.
         25    2    1    2    0    0  0.77879005719E+02  0.57558702946E+02  0.34130129375E+02  0.16176325448E+03  0.12499736378E+03 0.  0.
          5    1    4    4  502    0  0.29003877446E+02  0.79582447675E+02  0.58131810756E+02  0.10283962420E+03  0.47000000000E+01 0. -1.
         -5    1    4    4    0  502  0.48875128273E+02 -0.22023744729E+02 -0.24001681381E+02  0.58923630274E+02  0.47000000000E+01 0. -1.
          5    1    3    3  503    0 -0.10062378814E+03 -0.54133941213E+01  0.22563934235E+02  0.10337152753E+03  0.47000000000E+01 0. -1.
         -5    1    3    3    0  503  0.22744782423E+02 -0.52145308825E+02  0.17871323452E+02  0.59815822002E+02  0.47000000000E+01 0. -1.
<mgrwt>
<rscale>  0 0.15811590E+03</rscale>
<asrwt>0</asrwt>
<pdfrwt beam="2">  1        5 0.19260401E-01 0.15812174E+03</pdfrwt>
<pdfrwt beam="1">  1       -5 0.30731999E-01 0.15812174E+03</pdfrwt>
<totfact> 0.19253253E+02</totfact>
</mgrwt>
</event>
<event>
 8    1  0.1865596E-007  0.1322739E+03  0.7546771E-02  0.1224134E+00
         -5   -1    0    0    0  501 -0.00000000000E+00  0.00000000000E+00  0.54424908494E+03  0.54426937857E+03  0.47000000000E+01 0. -1.
          5   -1    0    0  501    0  0.00000000000E+00 -0.00000000000E+00 -0.39189862124E+02  0.39470689040E+02  0.47000000000E+01 0. -1.
         25    2    1    2    0    0 -0.27504509009E+02 -0.33383835559E+02  0.37745841019E+03  0.39995115885E+03  0.12496039190E+03 0.  0.
         25    2    1    2    0    0  0.27504509009E+02  0.33383835559E+02  0.12760081262E+03  0.18378890877E+03  0.12500166844E+03 0.  0.
          5    1    3    3  502    0  0.89812383107E+01 -0.75564785703E+02  0.21387293167E+03  0.22705598512E+03  0.47000000000E+01 0. -1.
         -5    1    3    3    0  502 -0.36485747319E+02  0.42180950144E+02  0.16358547853E+03  0.17289517373E+03  0.47000000000E+01 0. -1.
          5    1    4    4  503    0  0.81464337754E+01 -0.83486823818E+01  0.13617764810E+03  0.13675710849E+03  0.47000000000E+01 0. -1.
         -5    1    4    4    0  503  0.19358075233E+02  0.41732517941E+02 -0.85768354807E+01  0.47031800277E+02  0.47000000000E+01 0. -1.
<mgrwt>
<rscale>  0 0.13226419E+03</rscale>
<asrwt>0</asrwt>
<pdfrwt beam="2">  1        5 0.60523727E-02 0.13227394E+03</pdfrwt>
<pdfrwt beam="1">  1       -5 0.83753791E-01 0.13227394E+03</pdfrwt>
<totfact> 0.16407778E+02</totfact>
</mgrwt>
</event>
<event>
 8    1  0.1865596E-007  0.1251522E+03  0.7546771E-02  0.1234852E+00
          5   -1    0    0  501    0  0.00000000000E+00  0.00000000000E+00  0.54648390142E+02  0.54850128032E+02  0.47000000000E+01 0. -1.
         -5   -1    0    0    0  501 -0.00000000000E+00 -0.00000000000E+00 -0.28689381720E+03  0.28693231318E+03  0.47000000000E+01 0. -1.
         25    2    1    2    0    0  0.45967612200E+01 -0.15708783924E+01 -0.12689109137E+03  0.17818961712E+03  0.12500637066E+03 0.  0.
         25    2    1    2    0    0 -0.45967612200E+01  0.15708783924E+01 -0.10535433568E+03  0.16359282409E+03  0.12505789929E+03 0.  0.
          5    1    4    4  502    0 -0.30471742536E+02 -0.23914547714E+02  0.11867041926E+02  0.40784180384E+02  0.47000000000E+01 0.  1.
         -5    1    4    4    0  502  0.25874981316E+02  0.25485426106E+02 -0.11722137761E+03  0.12280864371E+03  0.47000000000E+01 0.  1.
          5    1    3    3  503    0 -0.31905708265E+02 -0.34725523817E+02 -0.62836958648E+01  0.47805973036E+02  0.47000000000E+01 0. -1.
         -5    1    3    3    0  503  0.36502469485E+02  0.33154645425E+02 -0.12060739551E+03  0.13038364408E+03  0.47000000000E+01 0. -1.
<mgrwt>
<rscale>  0 0.12513934E+03</rscale>
<asrwt>0</asrwt>
<pdfrwt beam="1">  1        5 0.84259243E-02 0.12515221E+03</pdfrwt>
<pdfrwt beam="2">  1       -5 0.44155989E-01 0.12515221E+03</pdfrwt>
<totfact> 0.37368417E+02</totfact>
</mgrwt>
</event>
<event>
 8    1  0.1865596E-007  0.1333103E+03  0.7546771E-02  0.1222626E+00
          5   -1    0    0  501    0  0.00000000000E+00  0.00000000000E+00  0.17340487973E+02  0.17966149369E+02  0.47000000000E+01 0. -1.
         -5   -1    0    0    0  501 -0.00000000000E+00 -0.00000000000E+00 -0.10064427257E+04  0.10064537000E+04  0.47000000000E+01 0. -1.
         25    2    1    2    0    0  0.29769472688E+02 -0.35518537140E+02 -0.50460226436E+03  0.52191481749E+03  0.12499537404E+03 0.  0.
         25    2    1    2    0    0 -0.29769472688E+02  0.35518537140E+02 -0.48449997339E+03  0.50250503184E+03  0.12499317912E+03 0.  0.
          5    1    4    4  502    0 -0.78319487742E+02  0.27991649727E+02 -0.32760497075E+03  0.33803044460E+03  0.47000000000E+01 0.  1.
         -5    1    4    4    0  502  0.48550015054E+02  0.75268874130E+01 -0.15689500264E+03  0.16447458724E+03  0.47000000000E+01 0.  1.
          5    1    3    3  503    0  0.65660709262E+02 -0.30479009172E+02 -0.45246938566E+03  0.45824767725E+03  0.47000000000E+01 0. -1.
         -5    1    3    3    0  503 -0.35891236574E+02 -0.50395279685E+01 -0.52132878697E+02  0.63667140239E+02  0.47000000000E+01 0. -1.
<mgrwt>
<rscale>  0 0.13330977E+03</rscale>
<asrwt>0</asrwt>
<pdfrwt beam="1">  1        5 0.27167401E-02 0.13331028E+03</pdfrwt>
<pdfrwt beam="2">  1       -5 0.15488627E+00 0.13331028E+03</pdfrwt>
<totfact> 0.13002274E+02</totfact>
</mgrwt>
</event>
<event>
 8    1  0.1865596E-007  0.1389061E+03  0.7546771E-02  0.1214820E+00
          5   -1    0    0  501    0  0.00000000000E+00  0.00000000000E+00  0.33859053807E+02  0.34183702619E+02  0.47000000000E+01 0. -1.
         -5   -1    0    0    0  501 -0.00000000000E+00 -0.00000000000E+00 -0.68417783647E+03  0.68419397975E+03  0.47000000000E+01 0. -1.
         25    2    1    2    0    0  0.58843280652E+02  0.14401630257E+02 -0.47401123363E+03  0.49394488894E+03  0.12499986028E+03 0.  0.
         25    2    1    2    0    0 -0.58843280652E+02 -0.14401630257E+02 -0.17630754904E+03  0.22443279343E+03  0.12496314771E+03 0.  0.
          5    1    4    4  502    0 -0.62473476703E+02  0.27227386942E+02 -0.16828883514E+03  0.18162457963E+03  0.47000000000E+01 0. -1.
         -5    1    4    4    0  502  0.36301960513E+01 -0.41629017198E+02 -0.80187138959E+01  0.42808213801E+02  0.47000000000E+01 0. -1.
          5    1    3    3  503    0  0.94639785895E+02  0.35341023200E+01 -0.39743050315E+03  0.40858569944E+03  0.47000000000E+01 0.  1.
         -5    1    3    3    0  503 -0.35796505243E+02  0.10867527937E+02 -0.76580730481E+02  0.85359189500E+02  0.47000000000E+01 0.  1.
<mgrwt>
<rscale>  0 0.13889784E+03</rscale>
<asrwt>0</asrwt>
<pdfrwt beam="1">  1        5 0.52353005E-02 0.13890610E+03</pdfrwt>
<pdfrwt beam="2">  1       -5 0.10528433E+00 0.13890610E+03</pdfrwt>
<totfact> 0.12279125E+02</totfact>
</mgrwt>
</event>
<event>
 8    1  0.1865596E-007  0.1642698E+03  0.7546771E-02  0.1183960E+00
          5   -1    0    0  501    0  0.00000000000E+00  0.00000000000E+00  0.18344539201E+03  0.18350559078E+03  0.47000000000E+01 0.  1.
         -5   -1    0    0    0  501 -0.00000000000E+00 -0.00000000000E+00 -0.14718200651E+03  0.14725703053E+03  0.47000000000E+01 0.  1.
         25    2    1    2    0    0 -0.29060430518E+02  0.10254334976E+03  0.11895047955E+02  0.16469989330E+03  0.12499966194E+03 0.  0.
         25    2    1    2    0    0  0.29060430518E+02 -0.10254334976E+03  0.24368337540E+02  0.16606272801E+03  0.12499346607E+03 0.  0.
          5    1    3    3  502    0  0.12658936264E+01 -0.18122898812E+02 -0.28220047607E+02  0.33889571183E+02  0.47000000000E+01 0. -1.
         -5    1    3    3    0  502 -0.30326324144E+02  0.12066624857E+03  0.40115095562E+02  0.13081032212E+03  0.47000000000E+01 0. -1.
          5    1    4    4  503    0  0.39779011266E+02 -0.90927744857E+01  0.53527920803E+02  0.67471301978E+02  0.47000000000E+01 0. -1.
         -5    1    4    4    0  503 -0.10718580748E+02 -0.93450575272E+02 -0.29159583263E+02  0.98591426037E+02  0.47000000000E+01 0. -1.
<mgrwt>
<rscale>  0 0.16426861E+03</rscale>
<asrwt>0</asrwt>
<pdfrwt beam="1">  1        5 0.28232770E-01 0.16426979E+03</pdfrwt>
<pdfrwt beam="2">  1       -5 0.22653788E-01 0.16426979E+03</pdfrwt>
<totfact> 0.16960063E+02</totfact>
</mgrwt>
</event>
<event>
 8    1  0.1865596E-007  0.1260503E+03  0.7546771E-02  0.1233438E+00
          5   -1    0    0  501    0  0.00000000000E+00  0.00000000000E+00  0.13511453935E+04  0.13511535680E+04  0.47000000000E+01 0. -1.
         -5   -1    0    0    0  501 -0.00000000000E+00 -0.00000000000E+00 -0.20558038827E+02  0.21088455619E+02  0.47000000000E+01 0. -1.
         25    2    1    2    0    0 -0.15429096214E+02 -0.50726939527E+01  0.21250539995E+03  0.24707733941E+03  0.12499950963E+03 0.  0.
         25    2    1    2    0    0  0.15429096214E+02  0.50726939527E+01  0.11180819547E+04  0.11251646843E+04  0.12499807973E+03 0.  0.
          5    1    3    3  502    0 -0.67655667241E+02 -0.47835275241E+01  0.15498743546E+03  0.16924351272E+03  0.47000000000E+01 0. -1.
         -5    1    3    3    0  502  0.52226571027E+02 -0.28916642854E+00  0.57517964489E+02  0.77833826691E+02  0.47000000000E+01 0. -1.
          5    1    4    4  503    0  0.16504791765E+02  0.33953449978E+02  0.10533650969E+03  0.11199604989E+03  0.47000000000E+01 0. -1.
         -5    1    4    4    0  503 -0.10756955504E+01 -0.28880756025E+02  0.10127454451E+04  0.10131686344E+04  0.47000000000E+01 0. -1.
<mgrwt>
<rscale>  0 0.12604990E+03</rscale>
<asrwt>0</asrwt>
<pdfrwt beam="1">  1        5 0.20791002E+00 0.12605025E+03</pdfrwt>
<pdfrwt beam="2">  1       -5 0.32042042E-02 0.12605025E+03</pdfrwt>
<totfact> 0.41141854E+01</totfact>
</mgrwt>
</event>
<event>
 8    1  0.1865596E-007  0.1358501E+03  0.7546771E-02  0.1219028E+00
          5   -1    0    0  501    0  0.00000000000E+00  0.00000000000E+00  0.68031873923E+02  0.68194031040E+02  0.47000000000E+01 0.  1.
         -5   -1    0    0    0  501 -0.00000000000E+00 -0.00000000000E+00 -0.33888171148E+03  0.33891430241E+03  0.47000000000E+01 0.  1.
         25    2    1    2    0    0 -0.37263217802E+02  0.37987376061E+02 -0.22666647027E+03  0.26425383703E+03  0.12498325287E+03 0.  0.
         25    2    1    2    0    0  0.37263217802E+02 -0.37987376061E+02 -0.44183367285E+02  0.14285449642E+03  0.12499459613E+03 0.  0.
          5    1    3    3  502    0 -0.40556233216E+02 -0.37632202008E+02 -0.63681634239E+02  0.84489237303E+02  0.47000000000E+01 0. -1.
         -5    1    3    3    0  502  0.32930154140E+01  0.75619578069E+02 -0.16298483603E+03  0.17976459973E+03  0.47000000000E+01 0. -1.
          5    1    4    4  503    0  0.64995514074E+02 -0.11789012750E+02 -0.70147548417E+02  0.96468472676E+02  0.47000000000E+01 0. -1.
         -5    1    4    4    0  503 -0.27732296272E+02 -0.26198363311E+02  0.25964181133E+02  0.46386023742E+02  0.47000000000E+01 0. -1.
<mgrwt>
<rscale>  0 0.13584744E+03</rscale>
<asrwt>0</asrwt>
<pdfrwt beam="1">  1        5 0.10481423E-01 0.13585005E+03</pdfrwt>
<pdfrwt beam="2">  1       -5 0.52150627E-01 0.13585005E+03</pdfrwt>
<totfact> 0.18565792E+02</totfact>
</mgrwt>
</event>
<event>
 8    1  0.1865596E-007  0.1318264E+03  0.7546771E-02  0.1224771E+00
         -5   -1    0    0    0  501 -0.00000000000E+00  0.00000000000E+00  0.91877264762E+03  0.91878466901E+03  0.47000000000E+01 0. -1.
          5   -1    0    0  501    0  0.00000000000E+00 -0.00000000000E+00 -0.19686497749E+02  0.20239767627E+02  0.47000000000E+01 0. -1.
         25    2    1    2    0    0 -0.28646297149E+02  0.30536312403E+02  0.34134014325E+03  0.36591159040E+03  0.12500048754E+03 0.  0.
         25    2    1    2    0    0  0.28646297149E+02 -0.30536312403E+02  0.55774600663E+03  0.57311284624E+03  0.12499859959E+03 0.  0.
          5    1    3    3  502    0  0.57402823027E+01 -0.36347988241E+02  0.37049444871E+02  0.52429747809E+02  0.47000000000E+01 0. -1.
         -5    1    3    3    0  502 -0.34386579452E+02  0.66884300643E+02  0.30429069837E+03  0.31348184259E+03  0.47000000000E+01 0. -1.
          5    1    4    4  503    0  0.65876821802E+02 -0.40186478598E+02  0.22073812401E+03  0.23388483941E+03  0.47000000000E+01 0.  1.
         -5    1    4    4    0  503 -0.37230524653E+02  0.96501661959E+01  0.33700788261E+03  0.33922800683E+03  0.47000000000E+01 0.  1.
<mgrwt>
<rscale>  0 0.13182595E+03</rscale>
<asrwt>0</asrwt>
<pdfrwt beam="2">  1        5 0.30721754E-02 0.13182640E+03</pdfrwt>
<pdfrwt beam="1">  1       -5 0.14139314E+00 0.13182640E+03</pdfrwt>
<totfact> 0.13608431E+02</totfact>
</mgrwt>
</event>
<event>
 8    1  0.1865596E-007  0.1579642E+03  0.7546771E-02  0.1191019E+00
          5   -1    0    0  501    0  0.00000000000E+00  0.00000000000E+00  0.29491445061E+03  0.29495189977E+03  0.47000000000E+01 0. -1.
         -5   -1    0    0    0  501 -0.00000000000E+00 -0.00000000000E+00 -0.94951776395E+02  0.95068027436E+02  0.47000000000E+01 0. -1.
         25    2    1    2    0    0  0.33133514468E+02 -0.90715525340E+02  0.35318459491E+02  0.16186438837E+03  0.12500220127E+03 0.  0.
         25    2    1    2    0    0 -0.33133514468E+02  0.90715525340E+02  0.16464421472E+03  0.22815553884E+03  0.12498038303E+03 0.  0.
          5    1    3    3  502    0  0.48406837594E+02 -0.12746288329E+02  0.60239633428E+02  0.78463961330E+02  0.47000000000E+01 0.  1.
         -5    1    3    3    0  502 -0.15273323126E+02 -0.77969237012E+02 -0.24921173937E+02  0.83400427037E+02  0.47000000000E+01 0.  1.
          5    1    4    4  503    0 -0.60134250018E+02  0.62108094461E+02  0.16737854846E+03  0.18844418778E+03  0.47000000000E+01 0.  1.
         -5    1    4    4    0  503  0.27000735550E+02  0.28607430879E+02 -0.27343337409E+01  0.39711351056E+02  0.47000000000E+01 0.  1.
<mgrwt>
<rscale>  0 0.15795988E+03</rscale>
<asrwt>0</asrwt>
<pdfrwt beam="1">  1        5 0.45383277E-01 0.15796419E+03</pdfrwt>
<pdfrwt beam="2">  1       -5 0.14619789E-01 0.15796419E+03</pdfrwt>
<totfact> 0.14467851E+02</totfact>
</mgrwt>
</event>
<event>
 8    1  0.1865596E-007  0.1267150E+03  0.7546771E-02  0.1232417E+00
          5   -1    0    0  501    0  0.00000000000E+00  0.00000000000E+00  0.29909308023E+02  0.30276339052E+02  0.47000000000E+01 0.  1.
         -5   -1    0    0    0  501 -0.00000000000E+00 -0.00000000000E+00 -0.67330122785E+03  0.67331763190E+03  0.47000000000E+01 0.  1.
         25    2    1    2    0    0 -0.20318074562E+02 -0.40555366712E+01 -0.48216111882E+03  0.49853388012E+03  0.12500965399E+03 0.  0.
         25    2    1    2    0    0  0.20318074562E+02  0.40555366712E+01 -0.16123080101E+03  0.20506009084E+03  0.12499999251E+03 0.  0.
          5    1    3    3  502    0  0.34175443618E+02  0.42581890191E+02 -0.20294048224E+03  0.21020967545E+03  0.47000000000E+01 0. -1.
         -5    1    3    3    0  502 -0.54493518180E+02 -0.46637426862E+02 -0.27922063658E+03  0.28832420467E+03  0.47000000000E+01 0. -1.
          5    1    4    4  503    0 -0.44778626438E+02 -0.21247499612E+02 -0.35465544297E+02  0.61126724579E+02  0.47000000000E+01 0.  1.
         -5    1    4    4    0  503  0.65096701000E+02  0.25303036283E+02 -0.12576525672E+03  0.14393336626E+03  0.47000000000E+01 0.  1.
<mgrwt>
<rscale>  0 0.12671259E+03</rscale>
<asrwt>0</asrwt>
<pdfrwt beam="1">  1        5 0.46309275E-02 0.12671498E+03</pdfrwt>
<pdfrwt beam="2">  1       -5 0.10361429E+00 0.12671498E+03</pdfrwt>
<totfact> 0.15182596E+02</totfact>
</mgrwt>
</event>
<event>
 8    1  0.1865596E-007  0.1372367E+03  0.7546771E-02  0.1217100E+00
         -5   -1    0    0    0  501 -0.00000000000E+00  0.00000000000E+00  0.43320140172E+03  0.43322689720E+03  0.47000000000E+01 0. -1.
          5   -1    0    0  501    0  0.00000000000E+00 -0.00000000000E+00 -0.45318470017E+02  0.45561537778E+02  0.47000000000E+01 0. -1.
         25    2    1    2    0    0 -0.40826044242E+01  0.56496303370E+02  0.24408385294E+03  0.28001935771E+03  0.12500165389E+03 0.  0.
         25    2    1    2    0    0  0.40826044242E+01 -0.56496303370E+02  0.14379907877E+03  0.19876907726E+03  0.12498988386E+03 0.  0.
          5    1    4    4  502    0  0.38594141970E+02 -0.53401055116E+02  0.14940441473E+03  0.16335528649E+03  0.47000000000E+01 0.  1.
         -5    1    4    4    0  502 -0.34511537546E+02 -0.30952482538E+01 -0.56053359682E+01  0.35413790772E+02  0.47000000000E+01 0.  1.
          5    1    3    3  503    0 -0.59987619913E+02  0.45356582206E+02  0.17359694806E+03  0.18924514384E+03  0.47000000000E+01 0.  1.
         -5    1    3    3    0  503  0.55905015488E+02  0.11139721164E+02  0.70486904883E+02  0.90774213873E+02  0.47000000000E+01 0.  1.
<mgrwt>
<rscale>  0 0.13723403E+03</rscale>
<asrwt>0</asrwt>
<pdfrwt beam="2">  1        5 0.69927309E-02 0.13723671E+03</pdfrwt>
<pdfrwt beam="1">  1       -5 0.66667029E-01 0.13723671E+03</pdfrwt>
<totfact> 0.21903270E+02</totfact>
</mgrwt>
</event>
<event>
 8    1  0.1865596E-007  0.1681924E+03  0.7546771E-02  0.1179748E+00
          5   -1    0    0  501    0  0.00000000000E+00  0.00000000000E+00  0.10520157064E+03  0.10530650723E+03  0.47000000000E+01 0.  1.
         -5   -1    0    0    0  501 -0.00000000000E+00 -0.00000000000E+00 -0.28013804481E+03  0.28017746902E+03  0.47000000000E+01 0.  1.
         25    2    1    2    0    0  0.11166245469E+03 -0.13993835279E+02 -0.12652639524E+03  0.21046337095E+03  0.12498628167E+03 0.  0.
         25    2    1    2    0    0 -0.11166245469E+03  0.13993835279E+02 -0.48410078934E+02  0.17502060531E+03  0.12499738128E+03 0.  0.
          5    1    4    4  502    0 -0.22353992688E+02  0.36917001913E+02  0.30918365266E+02  0.53297291958E+02  0.47000000000E+01 0. -1.
         -5    1    4    4    0  502 -0.89308462001E+02 -0.22923166633E+02 -0.79328444200E+02  0.12172331335E+03  0.47000000000E+01 0. -1.
          5    1    3    3  503    0  0.61281620613E+02  0.35301433192E+01 -0.14196113606E+03  0.15473510619E+03  0.47000000000E+01 0. -1.
         -5    1    3    3    0  503  0.50380834076E+02 -0.17523978599E+02  0.15434740824E+02  0.55728264754E+02  0.47000000000E+01 0. -1.
<mgrwt>
<rscale>  0 0.16819032E+03</rscale>
<asrwt>0</asrwt>
<pdfrwt beam="1">  1        5 0.16195962E-01 0.16819238E+03</pdfrwt>
<pdfrwt beam="2">  1       -5 0.43109265E-01 0.16819238E+03</pdfrwt>
<totfact> 0.13623816E+02</totfact>
</mgrwt>
</event>
<event>
 8    1  0.1865596E-007  0.1290116E+03  0.7546771E-02  0.1228930E+00
          5   -1    0    0  501    0  0.00000000000E+00  0.00000000000E+00  0.13976448979E+02  0.14745545974E+02  0.47000000000E+01 0. -1.
         -5   -1    0    0    0  501 -0.00000000000E+00 -0.00000000000E+00 -0.15438688775E+04  0.15438760316E+04  0.47000000000E+01 0. -1.
         25    2    1    2    0    0 -0.31895325359E+02 -0.42108270633E+00 -0.11543624628E+04  0.11615492577E+04  0.12500597397E+03 0.  0.
         25    2    1    2    0    0  0.31895325359E+02  0.42108270633E+00 -0.37552996571E+03  0.39707231982E+03  0.12500473163E+03 0.  0.
          5    1    3    3  502    0 -0.29374732733E+02 -0.31054170096E+02 -0.10811824913E+04  0.10820373865E+04  0.47000000000E+01 0.  1.
         -5    1    3    3    0  502 -0.25205926266E+01  0.30633087390E+02 -0.73179971530E+02  0.79511871210E+02  0.47000000000E+01 0.  1.
          5    1    4    4  503    0  0.26040588616E+02 -0.41471365911E+02 -0.55251273801E+02  0.73978238034E+02  0.47000000000E+01 0. -1.
         -5    1    4    4    0  503  0.58547367436E+01  0.41892448618E+02 -0.32027869191E+03  0.32309408179E+03  0.47000000000E+01 0. -1.
<mgrwt>
<rscale>  0 0.12901126E+03</rscale>
<asrwt>0</asrwt>
<pdfrwt beam="1">  1        5 0.22099358E-02 0.12901156E+03</pdfrwt>
<pdfrwt beam="2">  1       -5 0.23757787E+00 0.12901156E+03</pdfrwt>
<totfact> 0.48270984E+01</totfact>
</mgrwt>
</event>
<event>
 8    1  0.1865596E-007  0.1500753E+03  0.7546771E-02  0.1200381E+00
         -5   -1    0    0    0  501 -0.00000000000E+00  0.00000000000E+00  0.36879591838E+02  0.37177873717E+02  0.47000000000E+01 0.  1.
          5   -1    0    0  501    0  0.00000000000E+00 -0.00000000000E+00 -0.72941517699E+03  0.72943031910E+03  0.47000000000E+01 0.  1.
         25    2    1    2    0    0 -0.45843804199E+02 -0.69251171350E+02 -0.18986838804E+03  0.24201605691E+03  0.12499755162E+03 0.  0.
         25    2    1    2    0    0  0.45843804199E+02  0.69251171350E+02 -0.50266719711E+03  0.52459213590E+03  0.12500087553E+03 0.  0.
          5    1    3    3  502    0 -0.97079997582E+01 -0.58988075252E+02 -0.19481604871E+03  0.20383626055E+03  0.47000000000E+01 0.  1.
         -5    1    3    3    0  502 -0.36135804441E+02 -0.10263096098E+02  0.49476606701E+01  0.38179796362E+02  0.47000000000E+01 0.  1.
          5    1    4    4  503    0  0.47889549903E+02  0.37421256282E+02 -0.48299025258E+03  0.48682176769E+03  0.47000000000E+01 0.  1.
         -5    1    4    4    0  503 -0.20457457042E+01  0.31829915068E+02 -0.19676944533E+02  0.37770368212E+02  0.47000000000E+01 0.  1.
<mgrwt>
<rscale>  0 0.15007462E+03</rscale>
<asrwt>0</asrwt>
<pdfrwt beam="2">  1        5 0.11224182E+00 0.15007531E+03</pdfrwt>
<pdfrwt beam="1">  1       -5 0.56978934E-02 0.15007531E+03</pdfrwt>
<totfact> 0.93148506E+01</totfact>
</mgrwt>
</event>
<event>
 8    1  0.1865596E-007  0.1482701E+03  0.7546771E-02  0.1202638E+00
         -5   -1    0    0    0  501 -0.00000000000E+00  0.00000000000E+00  0.48445495906E+03  0.48447775734E+03  0.47000000000E+01 0. -1.
          5   -1    0    0  501    0  0.00000000000E+00 -0.00000000000E+00 -0.46882576960E+02  0.47117576576E+02  0.47000000000E+01 0. -1.
         25    2    1    2    0    0  0.31731861909E+02 -0.73004677843E+02  0.26889569495E+03  0.30706500721E+03  0.12508968719E+03 0.  0.
         25    2    1    2    0    0 -0.31731861909E+02  0.73004677843E+02  0.16867668715E+03  0.22453032671E+03  0.12500179510E+03 0.  0.
          5    1    4    4  502    0 -0.18041036400E+02  0.10596497251E+03  0.14812896669E+03  0.18308013318E+03  0.47000000000E+01 0. -1.
         -5    1    4    4    0  502 -0.13690825510E+02 -0.32960294663E+02  0.20547720455E+02  0.41450193526E+02  0.47000000000E+01 0. -1.
          5    1    3    3  503    0 -0.44978571025E+02 -0.14872095253E+02  0.12618437674E+03  0.13486600017E+03  0.47000000000E+01 0. -1.
         -5    1    3    3    0  503  0.76710432935E+02 -0.58132582590E+02  0.14271131821E+03  0.17219900704E+03  0.47000000000E+01 0. -1.
<mgrwt>
<rscale>  0 0.14825157E+03</rscale>
<asrwt>0</asrwt>
<pdfrwt beam="2">  1        5 0.72325341E-02 0.14827010E+03</pdfrwt>
<pdfrwt beam="1">  1       -5 0.74551370E-01 0.14827010E+03</pdfrwt>
<totfact> 0.16484155E+02</totfact>
</mgrwt>
</event>
<event>
 8    1  0.1865596E-007  0.1326599E+03  0.7546771E-02  0.1223563E+00
         -5   -1    0    0    0  501 -0.00000000000E+00  0.00000000000E+00  0.23038651792E+03  0.23043445410E+03  0.47000000000E+01 0.  1.
          5   -1    0    0  501    0  0.00000000000E+00 -0.00000000000E+00 -0.76985220335E+02  0.77128555996E+02  0.47000000000E+01 0.  1.
         25    2    1    2    0    0  0.26777482874E+02 -0.35445533231E+02  0.61765072794E+02  0.14633378899E+03  0.12500093667E+03 0.  0.
         25    2    1    2    0    0 -0.26777482874E+02  0.35445533231E+02  0.91636224788E+02  0.16122922111E+03  0.12499697848E+03 0.  0.
          5    1    3    3  502    0 -0.49652658277E+02 -0.94817527210E+01  0.32819003325E+02  0.60452188446E+02  0.47000000000E+01 0. -1.
         -5    1    3    3    0  502  0.76430141151E+02 -0.25963780510E+02  0.28946069469E+02  0.85881600547E+02  0.47000000000E+01 0. -1.
          5    1    4    4  503    0  0.43960001786E+02 -0.13607789951E+02  0.27935201395E+02  0.54038127109E+02  0.47000000000E+01 0. -1.
         -5    1    4    4    0  503 -0.70737484660E+02  0.49053323183E+02  0.63701023392E+02  0.10719109400E+03  0.47000000000E+01 0. -1.
<mgrwt>
<rscale>  0 0.13265898E+03</rscale>
<asrwt>0</asrwt>
<pdfrwt beam="2">  1        5 0.11858593E-01 0.13265992E+03</pdfrwt>
<pdfrwt beam="1">  1       -5 0.35458793E-01 0.13265992E+03</pdfrwt>
<totfact> 0.32911567E+02</totfact>
</mgrwt>
</event>
<event>
 8    1  0.1865596E-007  0.1495333E+03  0.7546771E-02  0.1201048E+00
         -5   -1    0    0    0  501 -0.00000000000E+00  0.00000000000E+00  0.47064580287E+03  0.47066927004E+03  0.47000000000E+01 0. -1.
          5   -1    0    0  501    0  0.00000000000E+00 -0.00000000000E+00 -0.52569552539E+02  0.52779236960E+02  0.47000000000E+01 0. -1.
         25    2    1    2    0    0  0.49278720863E+02  0.65622931692E+02  0.29117420204E+03  0.32732521500E+03  0.12499847579E+03 0.  0.
         25    2    1    2    0    0 -0.49278720863E+02 -0.65622931692E+02  0.12690204830E+03  0.19612329200E+03  0.12500181723E+03 0.  0.
          5    1    4    4  502    0  0.19757954182E+02 -0.76610009481E+02  0.72577280104E+02  0.10746637564E+03  0.47000000000E+01 0. -1.
         -5    1    4    4    0  502 -0.69036675045E+02  0.10987077789E+02  0.54324768195E+02  0.88656916363E+02  0.47000000000E+01 0. -1.
          5    1    3    3  503    0  0.67062916490E+02  0.23533255166E+02  0.64654951687E+02  0.96195642544E+02  0.47000000000E+01 0. -1.
         -5    1    3    3    0  503 -0.17784195627E+02  0.42089676526E+02  0.22651925035E+03  0.23112957246E+03  0.47000000000E+01 0. -1.
<mgrwt>
<rscale>  0 0.14953263E+03</rscale>
<asrwt>0</asrwt>
<pdfrwt beam="2">  1        5 0.81055585E-02 0.14953333E+03</pdfrwt>
<pdfrwt beam="1">  1       -5 0.72424979E-01 0.14953333E+03</pdfrwt>
<totfact> 0.14526986E+02</totfact>
</mgrwt>
</event>
<event>
 8    1  0.1865596E-007  0.1359325E+03  0.7546771E-02  0.1218910E+00
          5   -1    0    0  501    0  0.00000000000E+00  0.00000000000E+00  0.64886937925E+03  0.64888640094E+03  0.47000000000E+01 0.  1.
         -5   -1    0    0    0  501 -0.00000000000E+00 -0.00000000000E+00 -0.36339773842E+02  0.36642450285E+02  0.47000000000E+01 0.  1.
         25    2    1    2    0    0  0.48836287085E+02  0.21637865187E+02  0.14549126601E+03  0.19911138555E+03  0.12499782088E+03 0.  0.
         25    2    1    2    0    0 -0.48836287085E+02 -0.21637865187E+02  0.46703833940E+03  0.48641746568E+03  0.12499584113E+03 0.  0.
          5    1    4    4  502    0 -0.86358895240E+02 -0.70137938126E+00  0.37337294614E+03  0.38325943906E+03  0.47000000000E+01 0. -1.
         -5    1    4    4    0  502  0.37522608155E+02 -0.20936485805E+02  0.93665393258E+02  0.10315802661E+03  0.47000000000E+01 0. -1.
          5    1    3    3  503    0  0.77838388965E+02 -0.16372797519E+02  0.12179385683E+03  0.14554283513E+03  0.47000000000E+01 0.  1.
         -5    1    3    3    0  503 -0.29002101880E+02  0.38010662705E+02  0.23697409177E+02  0.53568550423E+02  0.47000000000E+01 0.  1.
<mgrwt>
<rscale>  0 0.13593201E+03</rscale>
<asrwt>0</asrwt>
<pdfrwt beam="1">  1        5 0.99850653E-01 0.13593247E+03</pdfrwt>
<pdfrwt beam="2">  1       -5 0.56153264E-02 0.13593247E+03</pdfrwt>
<totfact> 0.12354591E+02</totfact>
</mgrwt>
</event>
<event>
 8    1  0.1865596E-007  0.1491825E+03  0.7546771E-02  0.1201483E+00
         -5   -1    0    0    0  501 -0.00000000000E+00  0.00000000000E+00  0.17077662792E+02  0.17712610379E+02  0.47000000000E+01 0.  1.
          5   -1    0    0  501    0  0.00000000000E+00 -0.00000000000E+00 -0.13215846230E+04  0.13215929803E+04  0.47000000000E+01 0.  1.
         25    2    1    2    0    0  0.44297823694E+02 -0.68307675351E+02 -0.53166966231E+03  0.55220290870E+03  0.12500874716E+03 0.  0.
         25    2    1    2    0    0 -0.44297823694E+02  0.68307675351E+02 -0.77283729787E+03  0.78710268201E+03  0.12499962940E+03 0.  0.
          5    1    3    3  502    0 -0.23066663140E+02  0.10479602887E+02 -0.28402590163E+02  0.38349578264E+02  0.47000000000E+01 0. -1.
         -5    1    3    3    0  502  0.67364486834E+02 -0.78787278238E+02 -0.50326707214E+03  0.51385333044E+03  0.47000000000E+01 0. -1.
          5    1    4    4  503    0 -0.10409754082E+02 -0.34720892758E+02 -0.12507415833E+03  0.13030555804E+03  0.47000000000E+01 0. -1.
         -5    1    4    4    0  503 -0.33888069613E+02  0.10302856811E+03 -0.64776313954E+03  0.65679712397E+03  0.47000000000E+01 0. -1.
<mgrwt>
<rscale>  0 0.14918060E+03</rscale>
<asrwt>0</asrwt>
<pdfrwt beam="2">  1        5 0.20337012E+00 0.14918251E+03</pdfrwt>
<pdfrwt beam="1">  1       -5 0.26768188E-02 0.14918251E+03</pdfrwt>
<totfact> 0.61865393E+01</totfact>
</mgrwt>
</event>
<event>
 8    1  0.1865596E-007  0.1389382E+03  0.7546771E-02  0.1214766E+00
         -5   -1    0    0    0  501 -0.00000000000E+00  0.00000000000E+00  0.45019784898E+03  0.45022238197E+03  0.47000000000E+01 0. -1.
          5   -1    0    0  501    0  0.00000000000E+00 -0.00000000000E+00 -0.42912302855E+02  0.43168920953E+02  0.47000000000E+01 0. -1.
         25    2    1    2    0    0  0.58254845288E+02  0.16884226030E+02  0.21996014735E+03  0.26016472551E+03  0.12499805555E+03 0.  0.
         25    2    1    2    0    0 -0.58254845288E+02 -0.16884226030E+02  0.18732539878E+03  0.23322657741E+03  0.12500050918E+03 0.  0.
          5    1    4    4  502    0 -0.43221134571E+02  0.62158322563E+01  0.92989575069E-01  0.43918124861E+02  0.47000000000E+01 0.  1.
         -5    1    4    4    0  502 -0.15033710717E+02 -0.23100058286E+02  0.18723240920E+03  0.18930845255E+03  0.47000000000E+01 0.  1.
          5    1    3    3  503    0 -0.19994240236E+02 -0.30487502694E+02  0.24127243354E+02  0.43971255782E+02  0.47000000000E+01 0.  1.
         -5    1    3    3    0  503  0.78249085524E+02  0.47371728724E+02  0.19583290400E+03  0.21619346973E+03  0.47000000000E+01 0.  1.
<mgrwt>
<rscale>  0 0.13893768E+03</rscale>
<asrwt>0</asrwt>
<pdfrwt beam="2">  1        5 0.66235194E-02 0.13893823E+03</pdfrwt>
<pdfrwt beam="1">  1       -5 0.69282839E-01 0.13893823E+03</pdfrwt>
<totfact> 0.22120230E+02</totfact>
</mgrwt>
</event>
<event>
 8    1  0.1865596E-007  0.1442120E+03  0.7546771E-02  0.1207772E+00
         -5   -1    0    0    0  501 -0.00000000000E+00  0.00000000000E+00  0.10575082425E+03  0.10585521635E+03  0.47000000000E+01 0. -1.
          5   -1    0    0  501    0  0.00000000000E+00 -0.00000000000E+00 -0.19703009125E+03  0.19708614070E+03  0.47000000000E+01 0. -1.
         25    2    1    2    0    0 -0.34820809265E+02  0.62914078610E+02 -0.37259979750E+02  0.14894770286E+03  0.12500576807E+03 0.  0.
         25    2    1    2    0    0  0.34820809265E+02 -0.62914078610E+02 -0.54019287253E+02  0.15399365420E+03  0.12500116836E+03 0.  0.
          5    1    3    3  502    0 -0.15621243632E+02 -0.33893282445E+02 -0.33020268057E+02  0.50052032427E+02  0.47000000000E+01 0.  1.
         -5    1    3    3    0  502 -0.19199565633E+02  0.96807361055E+02 -0.42397116930E+01  0.98895670432E+02  0.47000000000E+01 0.  1.
          5    1    4    4  503    0  0.77254624709E+02 -0.65549096537E+02 -0.38753340419E+02  0.10857657431E+03  0.47000000000E+01 0. -1.
         -5    1    4    4    0  503 -0.42433815444E+02  0.26350179267E+01 -0.15265946834E+02  0.45417079886E+02  0.47000000000E+01 0. -1.
<mgrwt>
<rscale>  0 0.14421104E+03</rscale>
<asrwt>0</asrwt>
<pdfrwt beam="2">  1        5 0.30324663E-01 0.14421204E+03</pdfrwt>
<pdfrwt beam="1">  1       -5 0.16281699E-01 0.14421204E+03</pdfrwt>
<totfact> 0.26136780E+02</totfact>
</mgrwt>
</event>
<event>
 8    1  0.1865596E-007  0.1547344E+03  0.7546771E-02  0.1194775E+00
         -5   -1    0    0    0  501 -0.00000000000E+00  0.00000000000E+00  0.71952813984E+02  0.72106153969E+02  0.47000000000E+01 0. -1.
          5   -1    0    0  501    0  0.00000000000E+00 -0.00000000000E+00 -0.37312479516E+03  0.37315439534E+03  0.47000000000E+01 0. -1.
         25    2    1    2    0    0  0.17682787974E+02  0.89463018078E+02 -0.76891389298E+02  0.17278602551E+03  0.12500564895E+03 0.  0.
         25    2    1    2    0    0 -0.17682787974E+02 -0.89463018078E+02 -0.22428059188E+03  0.27247452380E+03  0.12499707850E+03 0.  0.
          5    1    3    3  502    0 -0.34893234881E+02  0.34948956332E+02  0.16657182585E+02  0.52330862030E+02  0.47000000000E+01 0. -1.
         -5    1    3    3    0  502  0.52576022855E+02  0.54514061745E+02 -0.93548571882E+02  0.12045516348E+03  0.47000000000E+01 0. -1.
          5    1    4    4  503    0 -0.45285195667E+02  0.45244185284E+01 -0.29614021751E+02  0.54500454988E+02  0.47000000000E+01 0.  1.
         -5    1    4    4    0  503  0.27602407693E+02 -0.93987436606E+02 -0.19466657013E+03  0.21797406882E+03  0.47000000000E+01 0.  1.
<mgrwt>
<rscale>  0 0.15473264E+03</rscale>
<asrwt>0</asrwt>
<pdfrwt beam="2">  1        5 0.57417886E-01 0.15473437E+03</pdfrwt>
<pdfrwt beam="1">  1       -5 0.11083736E-01 0.15473437E+03</pdfrwt>
<totfact> 0.14272625E+02</totfact>
</mgrwt>
</event>
<event>
 8    1  0.1865596E-007  0.1629679E+03  0.7546771E-02  0.1185388E+00
         -5   -1    0    0    0  501 -0.00000000000E+00  0.00000000000E+00  0.89602123327E+03  0.89603355991E+03  0.47000000000E+01 0. -1.
          5   -1    0    0  501    0  0.00000000000E+00 -0.00000000000E+00 -0.29440435528E+02  0.29813239409E+02  0.47000000000E+01 0. -1.
         25    2    1    2    0    0  0.35863175852E+02  0.98221788054E+02  0.43464651673E+03  0.46419407615E+03  0.12499943517E+03 0.  0.
         25    2    1    2    0    0 -0.35863175852E+02 -0.98221788054E+02  0.43193428101E+03  0.46165272316E+03  0.12498930619E+03 0.  0.
          5    1    4    4  502    0 -0.46156043981E+02 -0.38058524234E+02  0.60518444243E+02  0.85225605052E+02  0.47000000000E+01 0.  1.
         -5    1    4    4    0  502  0.10292868129E+02 -0.60163263820E+02  0.37141583677E+03  0.37642711811E+03  0.47000000000E+01 0.  1.
          5    1    3    3  503    0 -0.23907563959E+01 -0.26123036606E+02  0.13318590429E+03  0.13582600583E+03  0.47000000000E+01 0. -1.
         -5    1    3    3    0  503  0.38253932248E+02  0.12434482466E+03  0.30146061245E+03  0.32836807033E+03  0.47000000000E+01 0. -1.
<mgrwt>
<rscale>  0 0.16296599E+03</rscale>
<asrwt>0</asrwt>
<pdfrwt beam="2">  1        5 0.45589231E-02 0.16296793E+03</pdfrwt>
<pdfrwt beam="1">  1       -5 0.13787905E+00 0.16296793E+03</pdfrwt>
<totfact> 0.81438297E+01</totfact>
</mgrwt>
</event>
<event>
 8    1  0.1865596E-007  0.1492378E+03  0.7546771E-02  0.1201414E+00
          5   -1    0    0  501    0  0.00000000000E+00  0.00000000000E+00  0.27011054690E+03  0.27015143447E+03  0.47000000000E+01 0. -1.
         -5   -1    0    0    0  501 -0.00000000000E+00 -0.00000000000E+00 -0.96729156889E+02  0.96843274379E+02  0.47000000000E+01 0. -1.
         25    2    1    2    0    0 -0.10608791667E+01  0.81498832450E+02  0.15974423342E+02  0.15009036059E+03  0.12501499504E+03 0.  0.
         25    2    1    2    0    0  0.10608791667E+01 -0.81498832450E+02  0.15740696667E+03  0.21690434826E+03  0.12500943158E+03 0.  0.
          5    1    4    4  502    0 -0.56617302511E+02 -0.21425966735E+02  0.94934907358E+02  0.11269124912E+03  0.47000000000E+01 0.  1.
         -5    1    4    4    0  502  0.57678181678E+02 -0.60072865715E+02  0.62472059311E+02  0.10421309914E+03  0.47000000000E+01 0.  1.
          5    1    3    3  503    0  0.52758866758E+02  0.35983432884E+02 -0.24632714693E+02  0.68608790230E+02  0.47000000000E+01 0. -1.
         -5    1    3    3    0  503 -0.53819745924E+02  0.45515399567E+02  0.40607138036E+02  0.81481570361E+02  0.47000000000E+01 0. -1.
<mgrwt>
<rscale>  0 0.14923668E+03</rscale>
<asrwt>0</asrwt>
<pdfrwt beam="1">  1        5 0.41567392E-01 0.14923784E+03</pdfrwt>
<pdfrwt beam="2">  1       -5 0.14893332E-01 0.14923784E+03</pdfrwt>
<totfact> 0.16482829E+02</totfact>
</mgrwt>
</event>
<event>
 8    1  0.1865596E-007  0.1306473E+03  0.7546771E-02  0.1226499E+00
         -5   -1    0    0    0  501 -0.00000000000E+00  0.00000000000E+00  0.25780565519E+02  0.26205487182E+02  0.47000000000E+01 0. -1.
          5   -1    0    0  501    0  0.00000000000E+00 -0.00000000000E+00 -0.65639670326E+03  0.65641352975E+03  0.47000000000E+01 0. -1.
         25    2    1    2    0    0  0.28450342826E+02  0.25172281964E+02 -0.30968896904E+03  0.33611797177E+03  0.12499987048E+03 0.  0.
         25    2    1    2    0    0 -0.28450342826E+02 -0.25172281964E+02 -0.32092716870E+03  0.34650104516E+03  0.12500264358E+03 0.  0.
          5    1    4    4  502    0 -0.71296160239E+02 -0.49934570886E+00 -0.12122643347E+03  0.14071719860E+03  0.47000000000E+01 0. -1.
         -5    1    4    4    0  502  0.42845817413E+02 -0.24672936255E+02 -0.19970073523E+03  0.20578384656E+03  0.47000000000E+01 0. -1.
          5    1    3    3  503    0  0.67314283200E+02  0.30971402655E+00 -0.95303122099E+02  0.11677364312E+03  0.47000000000E+01 0. -1.
         -5    1    3    3    0  503 -0.38863940374E+02  0.24862567937E+02 -0.21438584694E+03  0.21934432865E+03  0.47000000000E+01 0. -1.
<mgrwt>
<rscale>  0 0.13064667E+03</rscale>
<asrwt>0</asrwt>
<pdfrwt beam="2">  1        5 0.10101808E+00 0.13064734E+03</pdfrwt>
<pdfrwt beam="1">  1       -5 0.40002220E-02 0.13064734E+03</pdfrwt>
<totfact> 0.20774476E+02</totfact>
</mgrwt>
</event>
<event>
 8    1  0.1865596E-007  0.1349662E+03  0.7546771E-02  0.1220270E+00
          5   -1    0    0  501    0  0.00000000000E+00  0.00000000000E+00  0.18628126477E+03  0.18634054740E+03  0.47000000000E+01 0. -1.
         -5   -1    0    0    0  501 -0.00000000000E+00 -0.00000000000E+00 -0.10017878638E+03  0.10028897866E+03  0.47000000000E+01 0. -1.
         25    2    1    2    0    0 -0.48362712368E+01  0.50661683863E+02  0.20299392598E+02  0.13648417234E+03  0.12500347287E+03 0.  0.
         25    2    1    2    0    0  0.48362712368E+01 -0.50661683863E+02  0.65803085799E+02  0.15014535372E+03  0.12499434151E+03 0.  0.
          5    1    4    4  502    0  0.33980848476E+02  0.21605096374E+01  0.80796292865E+02  0.87803740273E+02  0.47000000000E+01 0.  1.
         -5    1    4    4    0  502 -0.29144577240E+02 -0.52822193500E+02 -0.14993207066E+02  0.62341613444E+02  0.47000000000E+01 0.  1.
          5    1    3    3  503    0 -0.14830640270E+02  0.35091486344E+02 -0.50343141484E+02  0.63307836791E+02  0.47000000000E+01 0. -1.
         -5    1    3    3    0  503  0.99943690331E+01  0.15570197519E+02  0.70642534082E+02  0.73176335551E+02  0.47000000000E+01 0. -1.
<mgrwt>
<rscale>  0 0.13496404E+03</rscale>
<asrwt>0</asrwt>
<pdfrwt beam="1">  1        5 0.28671693E-01 0.13496616E+03</pdfrwt>
<pdfrwt beam="2">  1       -5 0.15425158E-01 0.13496616E+03</pdfrwt>
<totfact> 0.31466474E+02</totfact>
</mgrwt>
</event>
<event>
 8    1  0.1865596E-007  0.1534207E+03  0.7546771E-02  0.1196339E+00
         -5   -1    0    0    0  501 -0.00000000000E+00  0.00000000000E+00  0.21275414704E+03  0.21280605509E+03  0.47000000000E+01 0.  1.
          5   -1    0    0  501    0  0.00000000000E+00 -0.00000000000E+00 -0.11534247971E+03  0.11543819829E+03  0.47000000000E+01 0.  1.
         25    2    1    2    0    0 -0.16773498805E+01  0.88896788668E+02  0.82308301172E+02  0.17410503756E+03  0.12502981694E+03 0.  0.
         25    2    1    2    0    0  0.16773498805E+01 -0.88896788668E+02  0.15103366161E+02  0.15413921582E+03  0.12500133458E+03 0.  0.
          5    1    3    3  502    0  0.23843614564E+02 -0.25924608232E+02  0.15684078922E+02  0.38841776467E+02  0.47000000000E+01 0.  1.
         -5    1    3    3    0  502 -0.25520964444E+02  0.11482139690E+03  0.66624222251E+02  0.13526326110E+03  0.47000000000E+01 0.  1.
          5    1    4    4  503    0 -0.61381390477E+02 -0.39392156821E+02  0.78134507280E+01  0.73502089278E+02  0.47000000000E+01 0. -1.
         -5    1    4    4    0  503  0.63058740358E+02 -0.49504631848E+02  0.72899154325E+01  0.80637126542E+02  0.47000000000E+01 0. -1.
<mgrwt>
<rscale>  0 0.15341489E+03</rscale>
<asrwt>0</asrwt>
<pdfrwt beam="2">  1        5 0.17756353E-01 0.15342069E+03</pdfrwt>
<pdfrwt beam="1">  1       -5 0.32742763E-01 0.15342069E+03</pdfrwt>
<totfact> 0.19549711E+02</totfact>
</mgrwt>
</event>
<event>
 8    1  0.1865596E-007  0.1786555E+03  0.7546771E-02  0.1169113E+00
         -5   -1    0    0    0  501 -0.00000000000E+00  0.00000000000E+00  0.89406906584E+01  0.10100789546E+02  0.47000000000E+01 0. -1.
          5   -1    0    0  501    0  0.00000000000E+00 -0.00000000000E+00 -0.34517618294E+04  0.34517650292E+04  0.47000000000E+01 0. -1.
         25    2    1    2    0    0  0.66198335988E+02  0.10913589027E+03 -0.14259307491E+04  0.14370790830E+04  0.12499970903E+03 0.  0.
         25    2    1    2    0    0 -0.66198335988E+02 -0.10913589027E+03 -0.20168903896E+04  0.20247867357E+04  0.12498647668E+03 0.  0.
          5    1    4    4  502    0 -0.33490885211E+02 -0.24091974146E+02 -0.14923051776E+03  0.15489964506E+03  0.47000000000E+01 0. -1.
         -5    1    4    4    0  502 -0.32707450777E+02 -0.85043916129E+02 -0.18676598718E+04  0.18698870907E+04  0.47000000000E+01 0. -1.
          5    1    3    3  503    0  0.23174209471E+01  0.26107390553E+01 -0.73709537909E+03  0.73711862971E+03  0.47000000000E+01 0. -1.
         -5    1    3    3    0  503  0.63880915041E+02  0.10652515122E+03 -0.68883537005E+03  0.69996045330E+03  0.47000000000E+01 0. -1.
<mgrwt>
<rscale>  0 0.17865319E+03</rscale>
<asrwt>0</asrwt>
<pdfrwt beam="2">  1        5 0.53112876E+00 0.17865551E+03</pdfrwt>
<pdfrwt beam="1">  1       -5 0.14649782E-02 0.17865551E+03</pdfrwt>
<totfact> 0.85064263E-01</totfact>
</mgrwt>
</event>
<event>
 8    1  0.1865596E-007  0.1555072E+03  0.7546771E-02  0.1193866E+00
         -5   -1    0    0    0  501 -0.00000000000E+00  0.00000000000E+00  0.58215431972E+02  0.58404850138E+02  0.47000000000E+01 0.  1.
          5   -1    0    0  501    0  0.00000000000E+00 -0.00000000000E+00 -0.54485089788E+03  0.54487116910E+03  0.47000000000E+01 0.  1.
         25    2    1    2    0    0  0.85856595260E+02  0.34468006705E+02 -0.95815232945E+02  0.18265550533E+03  0.12499230508E+03 0.  0.
         25    2    1    2    0    0 -0.85856595260E+02 -0.34468006705E+02 -0.39082023296E+03  0.42062051391E+03  0.12498705449E+03 0.  0.
          5    1    3    3  502    0  0.31297131874E+02  0.56537054078E+02  0.58856015488E+01  0.65059044360E+02  0.47000000000E+01 0.  1.
         -5    1    3    3    0  502  0.54559463385E+02 -0.22069047374E+02 -0.10170083449E+03  0.11759646097E+03  0.47000000000E+01 0.  1.
          5    1    4    4  503    0 -0.93630684370E+00  0.40099259528E+02 -0.75420517193E+02  0.85552157768E+02  0.47000000000E+01 0.  1.
         -5    1    4    4    0  503 -0.84920288416E+02 -0.74567266232E+02 -0.31539971577E+03  0.33506835614E+03  0.47000000000E+01 0.  1.
<mgrwt>
<rscale>  0 0.15550610E+03</rscale>
<asrwt>0</asrwt>
<pdfrwt beam="2">  1        5 0.83839342E-01 0.15550715E+03</pdfrwt>
<pdfrwt beam="1">  1       -5 0.89723506E-02 0.15550715E+03</pdfrwt>
<totfact> 0.88063551E+01</totfact>
</mgrwt>
</event>
<event>
 8    1  0.1865596E-007  0.1302707E+03  0.7546771E-02  0.1227055E+00
          5   -1    0    0  501    0  0.00000000000E+00  0.00000000000E+00  0.34398443753E+03  0.34401654504E+03  0.47000000000E+01 0. -1.
         -5   -1    0    0    0  501 -0.00000000000E+00 -0.00000000000E+00 -0.52730267751E+02  0.52939315609E+02  0.47000000000E+01 0. -1.
         25    2    1    2    0    0  0.29595326865E+02  0.21614914072E+02  0.94304624290E+02  0.16082118024E+03  0.12500800762E+03 0.  0.
         25    2    1    2    0    0 -0.29595326865E+02 -0.21614914072E+02  0.19694954549E+03  0.23613468041E+03  0.12500950340E+03 0.  0.
          5    1    4    4  502    0 -0.51265138397E+02 -0.10478560719E+02  0.18091303980E+02  0.55563476577E+02  0.47000000000E+01 0. -1.
         -5    1    4    4    0  502  0.21669811532E+02 -0.11136353353E+02  0.17885824151E+03  0.18057120383E+03  0.47000000000E+01 0. -1.
          5    1    3    3  503    0 -0.47527106456E+02  0.11477501633E+02  0.54318127264E+02  0.73233242734E+02  0.47000000000E+01 0. -1.
         -5    1    3    3    0  503  0.77122433321E+02  0.10137412439E+02  0.39986497026E+02  0.87587937507E+02  0.47000000000E+01 0. -1.
<mgrwt>
<rscale>  0 0.13027037E+03</rscale>
<asrwt>0</asrwt>
<pdfrwt beam="1">  1        5 0.52939231E-01 0.13027073E+03</pdfrwt>
<pdfrwt beam="2">  1       -5 0.81308996E-02 0.13027073E+03</pdfrwt>
<totfact> 0.27516954E+02</totfact>
</mgrwt>
</event>
<event>
 8    1  0.1865596E-007  0.1424904E+03  0.7546771E-02  0.1210025E+00
         -5   -1    0    0    0  501 -0.00000000000E+00  0.00000000000E+00  0.60544766496E+03  0.60546590739E+03  0.47000000000E+01 0. -1.
          5   -1    0    0  501    0  0.00000000000E+00 -0.00000000000E+00 -0.33916515130E+02  0.34240619132E+02  0.47000000000E+01 0. -1.
         25    2    1    2    0    0 -0.65757338636E+02 -0.18636951434E+02  0.32704275174E+03  0.35672579267E+03  0.12499986457E+03 0.  0.
         25    2    1    2    0    0  0.65757338636E+02  0.18636951434E+02  0.24448839809E+03  0.28298073385E+03  0.12502861828E+03 0.  0.
          5    1    4    4  502    0  0.56061601684E+02 -0.33272232612E+01  0.25133511357E+03  0.25757601385E+03  0.47000000000E+01 0. -1.
         -5    1    4    4    0  502  0.96957369522E+01  0.21964174695E+02 -0.68467154872E+01  0.25404719996E+02  0.47000000000E+01 0. -1.
          5    1    3    3  503    0 -0.86439576612E+02 -0.35640933830E+02  0.14453691031E+03  0.17220651850E+03  0.47000000000E+01 0. -1.
         -5    1    3    3    0  503  0.20682237976E+02  0.17003982396E+02  0.18250584143E+03  0.18451927417E+03  0.47000000000E+01 0. -1.
<mgrwt>
<rscale>  0 0.14248411E+03</rscale>
<asrwt>0</asrwt>
<pdfrwt beam="2">  1        5 0.52442593E-02 0.14249042E+03</pdfrwt>
<pdfrwt beam="1">  1       -5 0.93172136E-01 0.14249042E+03</pdfrwt>
<totfact> 0.16613925E+02</totfact>
</mgrwt>
</event>
<event>
 8    1  0.1865596E-007  0.1402767E+03  0.7546771E-02  0.1212957E+00
          5   -1    0    0  501    0  0.00000000000E+00  0.00000000000E+00  0.14778778830E+03  0.14786250495E+03  0.47000000000E+01 0. -1.
         -5   -1    0    0    0  501 -0.00000000000E+00 -0.00000000000E+00 -0.13801877498E+03  0.13809877714E+03  0.47000000000E+01 0. -1.
         25    2    1    2    0    0 -0.63615607910E+02 -0.22677703894E+01 -0.22374507412E+02  0.14204988021E+03  0.12500184612E+03 0.  0.
         25    2    1    2    0    0  0.63615607910E+02  0.22677703894E+01  0.32143520728E+02  0.14391140188E+03  0.12500078925E+03 0.  0.
          5    1    3    3  502    0  0.29763812720E+02  0.49796654713E+01 -0.36085130645E+02  0.47274816441E+02  0.47000000000E+01 0. -1.
         -5    1    3    3    0  502 -0.93379420630E+02 -0.72474358607E+01  0.13710623233E+02  0.94775063773E+02  0.47000000000E+01 0. -1.
          5    1    4    4  503    0  0.28977345685E+02  0.52350236847E+02 -0.20352034461E+02  0.63376093029E+02  0.47000000000E+01 0.  1.
         -5    1    4    4    0  503  0.34638262225E+02 -0.50082466458E+02  0.52495555190E+02  0.80535308847E+02  0.47000000000E+01 0.  1.
<mgrwt>
<rscale>  0 0.14027646E+03</rscale>
<asrwt>0</asrwt>
<pdfrwt beam="1">  1        5 0.22748484E-01 0.14027669E+03</pdfrwt>
<pdfrwt beam="2">  1       -5 0.21245559E-01 0.14027669E+03</pdfrwt>
<totfact> 0.27542867E+02</totfact>
</mgrwt>
</event>
<event>
 8    1  0.1865596E-007  0.1435270E+03  0.7546771E-02  0.1208664E+00
          5   -1    0    0  501    0  0.00000000000E+00  0.00000000000E+00  0.22961175307E+02  0.23437268857E+02  0.47000000000E+01 0. -1.
         -5   -1    0    0    0  501 -0.00000000000E+00 -0.00000000000E+00 -0.99018077986E+03  0.99019193432E+03  0.47000000000E+01 0. -1.
         25    2    1    2    0    0 -0.69763681279E+02  0.10348468716E+02 -0.64687337554E+03  0.66260483091E+03  0.12500374371E+03 0.  0.
         25    2    1    2    0    0  0.69763681279E+02 -0.10348468716E+02 -0.32034622901E+03  0.35102437227E+03  0.12498936536E+03 0.  0.
          5    1    3    3  502    0 -0.37392687037E+02  0.67589369714E+02 -0.33124072267E+03  0.34016031853E+03  0.47000000000E+01 0.  1.
         -5    1    3    3    0  502 -0.32370994242E+02 -0.57240900998E+02 -0.31563265286E+03  0.32244451239E+03  0.47000000000E+01 0.  1.
          5    1    4    4  503    0  0.14594119784E+01  0.33111092559E+02 -0.21745823748E+03  0.22001965681E+03  0.47000000000E+01 0. -1.
         -5    1    4    4    0  503  0.68304269300E+02 -0.43459561275E+02 -0.10288799153E+03  0.13100471546E+03  0.47000000000E+01 0. -1.
<mgrwt>
<rscale>  0 0.14352386E+03</rscale>
<asrwt>0</asrwt>
<pdfrwt beam="1">  1        5 0.35699699E-02 0.14352699E+03</pdfrwt>
<pdfrwt beam="2">  1       -5 0.15237295E+00 0.14352699E+03</pdfrwt>
<totfact> 0.89424231E+01</totfact>
</mgrwt>
</event>
<event>
 8    1  0.1865596E-007  0.1404808E+03  0.7546771E-02  0.1212684E+00
          5   -1    0    0  501    0  0.00000000000E+00  0.00000000000E+00  0.31331553262E+02  0.31682112143E+02  0.47000000000E+01 0.  1.
         -5   -1    0    0    0  501 -0.00000000000E+00 -0.00000000000E+00 -0.74704568421E+03  0.74706046897E+03  0.47000000000E+01 0.  1.
         25    2    1    2    0    0 -0.61505067214E+02 -0.18078719324E+02 -0.51455257675E+03  0.53338467476E+03  0.12500057457E+03 0.  0.
         25    2    1    2    0    0  0.61505067214E+02  0.18078719324E+02 -0.20116155420E+03  0.24535790636E+03  0.12499927175E+03 0.  0.
          5    1    4    4  502    0  0.80649433010E+02 -0.27360903314E+02 -0.15847568715E+03  0.17997106293E+03  0.47000000000E+01 0. -1.
         -5    1    4    4    0  502 -0.19144365796E+02  0.45439622638E+02 -0.42685867048E+02  0.65386843424E+02  0.47000000000E+01 0. -1.
          5    1    3    3  503    0 -0.79675159074E+02 -0.56039256504E+02 -0.33502238446E+03  0.34892781107E+03  0.47000000000E+01 0. -1.
         -5    1    3    3    0  503  0.18170091860E+02  0.37960537180E+02 -0.17953019229E+03  0.18445686369E+03  0.47000000000E+01 0. -1.
<mgrwt>
<rscale>  0 0.14048052E+03</rscale>
<asrwt>0</asrwt>
<pdfrwt beam="1">  1        5 0.48483429E-02 0.14048081E+03</pdfrwt>
<pdfrwt beam="2">  1       -5 0.11495820E+00 0.14048081E+03</pdfrwt>
<totfact> 0.11250331E+02</totfact>
</mgrwt>
</event>
<event>
 8    1  0.1865596E-007  0.1372688E+03  0.7546771E-02  0.1217057E+00
         -5   -1    0    0    0  501 -0.00000000000E+00  0.00000000000E+00  0.36052180886E+03  0.36055244370E+03  0.47000000000E+01 0. -1.
          5   -1    0    0  501    0  0.00000000000E+00 -0.00000000000E+00 -0.64130581047E+02  0.64302577129E+02  0.47000000000E+01 0. -1.
         25    2    1    2    0    0 -0.15700586092E+02  0.54498592155E+02  0.23995815703E+03  0.27643869425E+03  0.12498731777E+03 0.  0.
         25    2    1    2    0    0  0.15700586092E+02 -0.54498592155E+02  0.56433070781E+02  0.14841632658E+03  0.12500443820E+03 0.  0.
          5    1    4    4  502    0  0.65620003101E+02 -0.44438258787E+02  0.11264634478E+02  0.80185570029E+02  0.47000000000E+01 0. -1.
         -5    1    4    4    0  502 -0.49919417009E+02 -0.10060333368E+02  0.45168436303E+02  0.68230756555E+02  0.47000000000E+01 0. -1.
          5    1    3    3  503    0 -0.29018970829E+02 -0.98264384608E+01  0.37505698514E+01  0.31222048860E+02  0.47000000000E+01 0. -1.
         -5    1    3    3    0  503  0.13318384737E+02  0.64325030615E+02  0.23620758718E+03  0.24521664539E+03  0.47000000000E+01 0. -1.
<mgrwt>
<rscale>  0 0.13726487E+03</rscale>
<asrwt>0</asrwt>
<pdfrwt beam="2">  1        5 0.98818300E-02 0.13726877E+03</pdfrwt>
<pdfrwt beam="1">  1       -5 0.55480482E-01 0.13726877E+03</pdfrwt>
<totfact> 0.18081822E+02</totfact>
</mgrwt>
</event>
<event>
 8    1  0.1865596E-007  0.1372278E+03  0.7546771E-02  0.1217110E+00
         -5   -1    0    0    0  501 -0.00000000000E+00  0.00000000000E+00  0.49133199529E+02  0.49357484700E+02  0.47000000000E+01 0. -1.
          5   -1    0    0  501    0  0.00000000000E+00 -0.00000000000E+00 -0.38265085468E+03  0.38267971802E+03  0.47000000000E+01 0. -1.
         25    2    1    2    0    0 -0.18546992603E+02 -0.53500371212E+02 -0.17453554953E+03  0.22202108443E+03  0.12499769288E+03 0.  0.
         25    2    1    2    0    0  0.18546992603E+02  0.53500371212E+02 -0.15898210562E+03  0.21001611830E+03  0.12500071753E+03 0.  0.
          5    1    3    3  502    0  0.32519970161E+02 -0.74140788418E+02 -0.91475546236E+02  0.12224676080E+03  0.47000000000E+01 0.  1.
         -5    1    3    3    0  502 -0.51066962764E+02  0.20640417206E+02 -0.83060003296E+02  0.99774323630E+02  0.47000000000E+01 0.  1.
          5    1    4    4  503    0  0.19119082672E+02  0.93388336558E+02 -0.96412436718E+02  0.13566270188E+03  0.47000000000E+01 0. -1.
         -5    1    4    4    0  503 -0.57209006923E+00 -0.39887965346E+02 -0.62569668901E+02  0.74353416417E+02  0.47000000000E+01 0. -1.
<mgrwt>
<rscale>  0 0.13722708E+03</rscale>
<asrwt>0</asrwt>
<pdfrwt beam="2">  1        5 0.58888833E-01 0.13722777E+03</pdfrwt>
<pdfrwt beam="1">  1       -5 0.75784270E-02 0.13722777E+03</pdfrwt>
<totfact> 0.25111028E+02</totfact>
</mgrwt>
</event>
<event>
 8    1  0.1865596E-007  0.1701703E+03  0.7546771E-02  0.1177679E+00
          5   -1    0    0  501    0  0.00000000000E+00  0.00000000000E+00  0.10002293050E+03  0.10013329429E+03  0.47000000000E+01 0.  1.
         -5   -1    0    0    0  501 -0.00000000000E+00 -0.00000000000E+00 -0.28917924323E+03  0.28921743501E+03  0.47000000000E+01 0.  1.
         25    2    1    2    0    0 -0.11317338878E+03 -0.22658299021E+02 -0.93290290758E+02  0.19406447544E+03  0.12504530314E+03 0.  0.
         25    2    1    2    0    0  0.11317338878E+03  0.22658299021E+02 -0.95866021978E+02  0.19528625386E+03  0.12499924933E+03 0.  0.
          5    1    3    3  502    0 -0.67713412299E+02 -0.36655766739E+01  0.19648128330E+02  0.70757908423E+02  0.47000000000E+01 0.  1.
         -5    1    3    3    0  502 -0.45459976483E+02 -0.18992722347E+02 -0.11293841909E+03  0.12330656702E+03  0.47000000000E+01 0.  1.
          5    1    4    4  503    0 -0.24962221098E+02  0.18624630023E+02 -0.22890456057E+02  0.38936516333E+02  0.47000000000E+01 0. -1.
         -5    1    4    4    0  503  0.13813560988E+03  0.40336689977E+01 -0.72975565922E+02  0.15634973753E+03  0.47000000000E+01 0. -1.
<mgrwt>
<rscale>  0 0.17016187E+03</rscale>
<asrwt>0</asrwt>
<pdfrwt beam="1">  1        5 0.15399571E-01 0.17017033E+03</pdfrwt>
<pdfrwt beam="2">  1       -5 0.44500541E-01 0.17017033E+03</pdfrwt>
<totfact> 0.14030858E+02</totfact>
</mgrwt>
</event>
<event>
 8    1  0.1865596E-007  0.1728125E+03  0.7546771E-02  0.1174947E+00
          5   -1    0    0  501    0  0.00000000000E+00  0.00000000000E+00  0.70521406741E+02  0.70677852321E+02  0.47000000000E+01 0. -1.
         -5   -1    0    0    0  501 -0.00000000000E+00 -0.00000000000E+00 -0.67773003654E+03  0.67774633340E+03  0.47000000000E+01 0. -1.
         25    2    1    2    0    0  0.11808562428E+03  0.17144993278E+02 -0.53306826321E+03  0.56037905766E+03  0.12499899823E+03 0.  0.
         25    2    1    2    0    0 -0.11808562428E+03 -0.17144993278E+02 -0.74140366586E+02  0.18804512806E+03  0.12500404303E+03 0.  0.
          5    1    4    4  502    0 -0.13183602288E+03 -0.90962889442E+01 -0.93936671226E+02  0.16220255116E+03  0.47000000000E+01 0. -1.
         -5    1    4    4    0  502  0.13750398605E+02 -0.80487043334E+01  0.19796304640E+02  0.25842576896E+02  0.47000000000E+01 0. -1.
          5    1    3    3  503    0 -0.44047339085E+01 -0.36828836284E+02 -0.14928636189E+03  0.15389695484E+03  0.47000000000E+01 0.  1.
         -5    1    3    3    0  503  0.12249035819E+03  0.53973829562E+02 -0.38378190132E+03  0.40648210281E+03  0.47000000000E+01 0.  1.
<mgrwt>
<rscale>  0 0.17281163E+03</rscale>
<asrwt>0</asrwt>
<pdfrwt beam="1">  1        5 0.10862736E-01 0.17281255E+03</pdfrwt>
<pdfrwt beam="2">  1       -5 0.10427944E+00 0.17281255E+03</pdfrwt>
<totfact> 0.38445522E+01</totfact>
</mgrwt>
</event>
<event>
 8    1  0.1865596E-007  0.1936573E+03  0.7546771E-02  0.1155204E+00
          5   -1    0    0  501    0  0.00000000000E+00  0.00000000000E+00  0.11920375587E+03  0.11929637636E+03  0.47000000000E+01 0.  1.
         -5   -1    0    0    0  501 -0.00000000000E+00 -0.00000000000E+00 -0.31503524702E+03  0.31507030463E+03  0.47000000000E+01 0.  1.
         25    2    1    2    0    0 -0.70910361180E+02  0.12980489622E+03 -0.10783865345E+03  0.22165588352E+03  0.12499826045E+03 0.  0.
         25    2    1    2    0    0  0.70910361180E+02 -0.12980489622E+03 -0.87992837696E+02  0.21271079748E+03  0.12500221387E+03 0.  0.
          5    1    4    4  502    0 -0.58739523890E+01 -0.24497245272E+02 -0.77786202373E+02  0.81898727843E+02  0.47000000000E+01 0.  1.
         -5    1    4    4    0  502  0.76784313569E+02 -0.10530765094E+03 -0.10206635323E+02  0.13081206963E+03  0.47000000000E+01 0.  1.
          5    1    3    3  503    0  0.33822261821E+01 -0.21008683117E+02 -0.28005216142E+02  0.35485015872E+02  0.47000000000E+01 0.  1.
         -5    1    3    3    0  503 -0.74292587362E+02  0.15081357933E+03 -0.79833437308E+02  0.18617086765E+03  0.47000000000E+01 0.  1.
<mgrwt>
<rscale>  0 0.19365665E+03</rscale>
<asrwt>0</asrwt>
<pdfrwt beam="1">  1        5 0.18348861E-01 0.19365728E+03</pdfrwt>
<pdfrwt beam="2">  1       -5 0.48476782E-01 0.19365728E+03</pdfrwt>
<totfact> 0.88140929E+01</totfact>
</mgrwt>
</event>
<event>
 8    1  0.1865596E-007  0.1324152E+03  0.7546771E-02  0.1223916E+00
         -5   -1    0    0    0  501 -0.00000000000E+00  0.00000000000E+00  0.12794460584E+04  0.12794546910E+04  0.47000000000E+01 0.  1.
          5   -1    0    0  501    0  0.00000000000E+00 -0.00000000000E+00 -0.13596452143E+02  0.14385878871E+02  0.47000000000E+01 0.  1.
         25    2    1    2    0    0  0.41585038633E+02  0.13418443515E+02  0.72698282154E+03  0.73894370649E+03  0.12499763389E+03 0.  0.
         25    2    1    2    0    0 -0.41585038633E+02 -0.13418443515E+02  0.53886678469E+03  0.55489686337E+03  0.12499498899E+03 0.  0.
          5    1    4    4  502    0  0.44622062558E+02 -0.15487673311E+01  0.20333777345E+03  0.20823512494E+03  0.47000000000E+01 0. -1.
         -5    1    4    4    0  502 -0.86207101191E+02 -0.11869676184E+02  0.33552901124E+03  0.34666173843E+03  0.47000000000E+01 0. -1.
          5    1    3    3  503    0 -0.27556911601E+02  0.47377494605E+02  0.28126611535E+03  0.28659505930E+03  0.47000000000E+01 0.  1.
         -5    1    3    3    0  503  0.69141950234E+02 -0.33959051089E+02  0.44571670619E+03  0.45234864719E+03  0.47000000000E+01 0.  1.
<mgrwt>
<rscale>  0 0.13241455E+03</rscale>
<asrwt>0</asrwt>
<pdfrwt beam="2">  1        5 0.21531503E-02 0.13241517E+03</pdfrwt>
<pdfrwt beam="1">  1       -5 0.19689932E+00 0.13241517E+03</pdfrwt>
<totfact> 0.93626449E+01</totfact>
</mgrwt>
</event>
<event>
 8    1  0.1865596E-007  0.2026758E+03  0.7546771E-02  0.1147503E+00
          5   -1    0    0  501    0  0.00000000000E+00  0.00000000000E+00  0.21248093701E+03  0.21253291179E+03  0.47000000000E+01 0.  1.
         -5   -1    0    0    0  501 -0.00000000000E+00 -0.00000000000E+00 -0.26522135998E+03  0.26526300117E+03  0.47000000000E+01 0.  1.
         25    2    1    2    0    0 -0.10663867181E+03  0.11865255644E+03 -0.15082857594E+03  0.25263206323E+03  0.12499385816E+03 0.  0.
         25    2    1    2    0    0  0.10663867181E+03 -0.11865255644E+03  0.98088152972E+02  0.22516384972E+03  0.12500895165E+03 0.  0.
          5    1    3    3  502    0  0.60010036136E+01 -0.10790221243E+02 -0.53913172196E+02  0.55508207096E+02  0.47000000000E+01 0. -1.
         -5    1    3    3    0  502 -0.11263967543E+03  0.12944277768E+03 -0.96915403745E+02  0.19712385614E+03  0.47000000000E+01 0. -1.
          5    1    4    4  503    0  0.11564964480E+02  0.17566463666E+02 -0.13095744437E+02  0.25217406122E+02  0.47000000000E+01 0.  1.
         -5    1    4    4    0  503  0.95073707334E+02 -0.13621902011E+03  0.11118389741E+03  0.19994644360E+03  0.47000000000E+01 0.  1.
<mgrwt>
<rscale>  0 0.20267346E+03</rscale>
<asrwt>0</asrwt>
<pdfrwt beam="1">  1        5 0.32696576E-01 0.20267578E+03</pdfrwt>
<pdfrwt beam="2">  1       -5 0.40810487E-01 0.20267578E+03</pdfrwt>
<totfact> 0.42046408E+01</totfact>
</mgrwt>
</event>
<event>
 8    1  0.1865596E-007  0.1358527E+03  0.7546771E-02  0.1219024E+00
          5   -1    0    0  501    0  0.00000000000E+00  0.00000000000E+00  0.10739629742E+03  0.10749909162E+03  0.47000000000E+01 0.  1.
         -5   -1    0    0    0  501 -0.00000000000E+00 -0.00000000000E+00 -0.17314164496E+03  0.17320542492E+03  0.47000000000E+01 0.  1.
         25    2    1    2    0    0  0.37593619136E+02  0.37632464488E+02 -0.19733645924E+02  0.13727847752E+03  0.12500592397E+03 0.  0.
         25    2    1    2    0    0 -0.37593619136E+02 -0.37632464488E+02 -0.46011701624E+02  0.14342603901E+03  0.12499787757E+03 0.  0.
          5    1    4    4  502    0 -0.65206873836E+02 -0.67049281706E+02 -0.21842272109E+02  0.96159853492E+02  0.47000000000E+01 0.  1.
         -5    1    4    4    0  502  0.27613254700E+02  0.29416817218E+02 -0.24169429515E+02  0.47266185518E+02  0.47000000000E+01 0.  1.
          5    1    3    3  503    0 -0.27532033814E+02 -0.30556604820E+02 -0.43939638484E+01  0.41630708646E+02  0.47000000000E+01 0.  1.
         -5    1    3    3    0  503  0.65125652950E+02  0.68189069308E+02 -0.15339682076E+02  0.95647768879E+02  0.47000000000E+01 0.  1.
<mgrwt>
<rscale>  0 0.13585088E+03</rscale>
<asrwt>0</asrwt>
<pdfrwt beam="1">  1        5 0.16535321E-01 0.13585273E+03</pdfrwt>
<pdfrwt beam="2">  1       -5 0.26649990E-01 0.13585273E+03</pdfrwt>
<totfact> 0.32024697E+02</totfact>
</mgrwt>
</event>
<event>
 8    1  0.1865596E-007  0.1296616E+03  0.7546771E-02  0.1227962E+00
         -5   -1    0    0    0  501 -0.00000000000E+00  0.00000000000E+00  0.93366238355E+03  0.93367421323E+03  0.47000000000E+01 0. -1.
          5   -1    0    0  501    0  0.00000000000E+00 -0.00000000000E+00 -0.18512305954E+02  0.19099619675E+02  0.47000000000E+01 0. -1.
         25    2    1    2    0    0 -0.32889865342E+02 -0.10172167058E+02  0.55655628928E+03  0.57145815472E+03  0.12499721292E+03 0.  0.
         25    2    1    2    0    0  0.32889865342E+02  0.10172167058E+02  0.35859378831E+03  0.38131567818E+03  0.12500770051E+03 0.  0.
          5    1    4    4  502    0  0.26452603553E+02  0.39393396239E+02  0.34471727106E+03  0.34799952136E+03  0.47000000000E+01 0.  1.
         -5    1    4    4    0  502  0.64372617886E+01 -0.29221229181E+02  0.13876517255E+02  0.33316156821E+02  0.47000000000E+01 0.  1.
          5    1    3    3  503    0 -0.72127736076E+02  0.14968741834E+02  0.43446842927E+03  0.44069420189E+03  0.47000000000E+01 0.  1.
         -5    1    3    3    0  503  0.39237870735E+02 -0.25140908892E+02  0.12208786001E+03  0.13076395284E+03  0.47000000000E+01 0.  1.
<mgrwt>
<rscale>  0 0.12965911E+03</rscale>
<asrwt>0</asrwt>
<pdfrwt beam="2">  1        5 0.28941356E-02 0.12966164E+03</pdfrwt>
<pdfrwt beam="1">  1       -5 0.14368643E+00 0.12966164E+03</pdfrwt>
<totfact> 0.14271987E+02</totfact>
</mgrwt>
</event>
<event>
 8    1  0.1865596E-007  0.1455763E+03  0.7546771E-02  0.1206036E+00
         -5   -1    0    0    0  501 -0.00000000000E+00  0.00000000000E+00  0.32228957201E+03  0.32232384061E+03  0.47000000000E+01 0. -1.
          5   -1    0    0  501    0  0.00000000000E+00 -0.00000000000E+00 -0.67193584987E+02  0.67357760232E+02  0.47000000000E+01 0. -1.
         25    2    1    2    0    0 -0.67686178597E+02  0.31114209360E+02  0.15746890529E+03  0.21445023234E+03  0.12507171231E+03 0.  0.
         25    2    1    2    0    0  0.67686178597E+02 -0.31114209360E+02  0.97627081729E+02  0.17523136850E+03  0.12500189047E+03 0.  0.
          5    1    4    4  502    0 -0.28928861669E+02  0.16866015047E+02  0.41523726501E+02  0.53550456241E+02  0.47000000000E+01 0. -1.
         -5    1    4    4    0  502  0.96615040267E+02 -0.47980224408E+02  0.56103355228E+02  0.12168091226E+03  0.47000000000E+01 0. -1.
          5    1    3    3  503    0 -0.64398241829E+02  0.32532910441E+02  0.17543583254E+02  0.74400209179E+02  0.47000000000E+01 0. -1.
         -5    1    3    3    0  503 -0.32879367684E+01 -0.14187010804E+01  0.13992532204E+03  0.14005002316E+03  0.47000000000E+01 0. -1.
<mgrwt>
<rscale>  0 0.14556126E+03</rscale>
<asrwt>0</asrwt>
<pdfrwt beam="2">  1        5 0.10352740E-01 0.14557625E+03</pdfrwt>
<pdfrwt beam="1">  1       -5 0.49598276E-01 0.14557625E+03</pdfrwt>
<totfact> 0.21599608E+02</totfact>
</mgrwt>
</event>
<event>
 8    1  0.1865596E-007  0.1340623E+03  0.7546771E-02  0.1221552E+00
         -5   -1    0    0    0  501 -0.00000000000E+00  0.00000000000E+00  0.11900594600E+03  0.11909872032E+03  0.47000000000E+01 0. -1.
          5   -1    0    0  501    0  0.00000000000E+00 -0.00000000000E+00 -0.15267428001E+03  0.15274660643E+03  0.47000000000E+01 0. -1.
         25    2    1    2    0    0  0.21479344389E+02 -0.43405979076E+02 -0.31775245803E+02  0.13777647968E+03  0.12500900308E+03 0.  0.
         25    2    1    2    0    0 -0.21479344389E+02  0.43405979076E+02 -0.18930882059E+01  0.13406884708E+03  0.12500172286E+03 0.  0.
          5    1    4    4  502    0  0.23456733517E+02 -0.31636800651E+02  0.19056870985E+02  0.44004088838E+02  0.47000000000E+01 0. -1.
         -5    1    4    4    0  502 -0.44936077906E+02  0.75042779726E+02 -0.20949959191E+02  0.90064758240E+02  0.47000000000E+01 0. -1.
          5    1    3    3  503    0 -0.13135246074E+02 -0.78304867796E+02 -0.90552120445E+00  0.79543051102E+02  0.47000000000E+01 0. -1.
         -5    1    3    3    0  503  0.34614590463E+02  0.34898888720E+02 -0.30869724599E+02  0.58233428575E+02  0.47000000000E+01 0. -1.
<mgrwt>
<rscale>  0 0.13406057E+03</rscale>
<asrwt>0</asrwt>
<pdfrwt beam="2">  1        5 0.23501051E-01 0.13406227E+03</pdfrwt>
<pdfrwt beam="1">  1       -5 0.18321307E-01 0.13406227E+03</pdfrwt>
<totfact> 0.33594865E+02</totfact>
</mgrwt>
</event>
<event>
 8    1  0.1865596E-007  0.1318390E+03  0.7546771E-02  0.1224753E+00
          5   -1    0    0  501    0  0.00000000000E+00  0.00000000000E+00  0.13994536902E+03  0.14002427044E+03  0.47000000000E+01 0.  1.
         -5   -1    0    0    0  501 -0.00000000000E+00 -0.00000000000E+00 -0.12419524839E+03  0.12428414912E+03  0.47000000000E+01 0.  1.
         25    2    1    2    0    0  0.38373892275E+02  0.16852948237E+02  0.12511418127E+02  0.13243131598E+03  0.12499976159E+03 0.  0.
         25    2    1    2    0    0 -0.38373892275E+02 -0.16852948237E+02  0.32387025092E+01  0.13187710357E+03  0.12499801511E+03 0.  0.
          5    1    3    3  502    0  0.40857262562E+02 -0.45929229830E+02  0.27748482383E+02  0.67608271176E+02  0.47000000000E+01 0.  1.
         -5    1    3    3    0  502 -0.24833702872E+01  0.62782178067E+02 -0.15237064256E+02  0.64823044806E+02  0.47000000000E+01 0.  1.
          5    1    4    4  503    0 -0.15421528829E+01 -0.50246348327E+02  0.44343828326E+02  0.67197759385E+02  0.47000000000E+01 0. -1.
         -5    1    4    4    0  503 -0.36831739392E+02  0.33393400090E+02 -0.41105125817E+02  0.64679344189E+02  0.47000000000E+01 0. -1.
<mgrwt>
<rscale>  0 0.13183857E+03</rscale>
<asrwt>0</asrwt>
<pdfrwt beam="1">  1        5 0.21542964E-01 0.13183898E+03</pdfrwt>
<pdfrwt beam="2">  1       -5 0.19119869E-01 0.13183898E+03</pdfrwt>
<totfact> 0.36377822E+02</totfact>
</mgrwt>
</event>
<event>
 8    1  0.1865596E-007  0.1455499E+03  0.7546771E-02  0.1206051E+00
          5   -1    0    0  501    0  0.00000000000E+00  0.00000000000E+00  0.32813991721E+02  0.33148877095E+02  0.47000000000E+01 0. -1.
         -5   -1    0    0    0  501 -0.00000000000E+00 -0.00000000000E+00 -0.79350876063E+03  0.79352267970E+03  0.47000000000E+01 0. -1.
         25    2    1    2    0    0 -0.26823086952E+02 -0.69563951678E+02 -0.56093431993E+03  0.57951020275E+03  0.12500456973E+03 0.  0.
         25    2    1    2    0    0  0.26823086952E+02  0.69563951678E+02 -0.19976044898E+03  0.24716135404E+03  0.12500350630E+03 0.  0.
          5    1    4    4  502    0  0.22269820471E+02  0.89942948488E+02 -0.71513927881E+02  0.11714098671E+03  0.47000000000E+01 0. -1.
         -5    1    4    4    0  502  0.45532664805E+01 -0.20378996810E+02 -0.12824652110E+03  0.13002036733E+03  0.47000000000E+01 0. -1.
          5    1    3    3  503    0 -0.66171006417E+02 -0.79939921125E+02 -0.42682382782E+03  0.43928312405E+03  0.47000000000E+01 0.  1.
         -5    1    3    3    0  503  0.39347919465E+02  0.10375969446E+02 -0.13411049211E+03  0.14022707871E+03  0.47000000000E+01 0.  1.
<mgrwt>
<rscale>  0 0.14554964E+03</rscale>
<asrwt>0</asrwt>
<pdfrwt beam="1">  1        5 0.50751381E-02 0.14554987E+03</pdfrwt>
<pdfrwt beam="2">  1       -5 0.12210509E+00 0.14554987E+03</pdfrwt>
<totfact> 0.90469781E+01</totfact>
</mgrwt>
</event>
<event>
 8    1  0.1865596E-007  0.1869280E+03  0.7546771E-02  0.1161262E+00
         -5   -1    0    0    0  501 -0.00000000000E+00  0.00000000000E+00  0.13171207175E+03  0.13179590223E+03  0.47000000000E+01 0. -1.
          5   -1    0    0  501    0  0.00000000000E+00 -0.00000000000E+00 -0.26626435172E+03  0.26630582983E+03  0.47000000000E+01 0. -1.
         25    2    1    2    0    0  0.84490857248E+02  0.11035771350E+03 -0.80444206247E+02  0.20350268841E+03  0.12499817592E+03 0.  0.
         25    2    1    2    0    0 -0.84490857248E+02 -0.11035771350E+03 -0.54108073726E+02  0.19459904365E+03  0.12499429691E+03 0.  0.
          5    1    3    3  502    0  0.30093485677E+02  0.10823648155E+03 -0.94728811130E+02  0.14702513892E+03  0.47000000000E+01 0. -1.
         -5    1    3    3    0  502  0.54397371572E+02  0.21212319509E+01  0.14284604883E+02  0.56477549483E+02  0.47000000000E+01 0. -1.
          5    1    4    4  503    0 -0.10252293075E+03 -0.11870839794E+03 -0.24787321326E+02  0.15886829881E+03  0.47000000000E+01 0. -1.
         -5    1    4    4    0  503  0.18032073498E+02  0.83506844414E+01 -0.29320752400E+02  0.35730744837E+02  0.47000000000E+01 0. -1.
<mgrwt>
<rscale>  0 0.18692734E+03</rscale>
<asrwt>0</asrwt>
<pdfrwt beam="2">  1        5 0.40973385E-01 0.18692799E+03</pdfrwt>
<pdfrwt beam="1">  1       -5 0.20273035E-01 0.18692799E+03</pdfrwt>
<totfact> 0.10296041E+02</totfact>
</mgrwt>
</event>
<event>
 8    1  0.1865596E-007  0.1635900E+03  0.7546771E-02  0.1184716E+00
          5   -1    0    0  501    0  0.00000000000E+00  0.00000000000E+00  0.23092861833E+02  0.23566295162E+02  0.47000000000E+01 0.  1.
         -5   -1    0    0    0  501 -0.00000000000E+00 -0.00000000000E+00 -0.11533160374E+04  0.11533256141E+04  0.47000000000E+01 0.  1.
         25    2    1    2    0    0 -0.66116338557E+02 -0.82132352817E+02 -0.61108924419E+03  0.63260709770E+03  0.12507830382E+03 0.  0.
         25    2    1    2    0    0  0.66116338557E+02  0.82132352817E+02 -0.51913393134E+03  0.54428481152E+03  0.12501529419E+03 0.  0.
          5    1    4    4  502    0  0.98151785451E+02  0.60710702604E+02 -0.45395565205E+03  0.46842009610E+03  0.47000000000E+01 0. -1.
         -5    1    4    4    0  502 -0.32035446894E+02  0.21421650213E+02 -0.65178279287E+02  0.75864715424E+02  0.47000000000E+01 0. -1.
          5    1    3    3  503    0 -0.89073109206E+02 -0.79852481472E+02 -0.33932488915E+03  0.35982482958E+03  0.47000000000E+01 0. -1.
         -5    1    3    3    0  503  0.22956770649E+02 -0.22798713448E+01 -0.27176435504E+03  0.27278226812E+03  0.47000000000E+01 0. -1.
<mgrwt>
<rscale>  0 0.16357792E+03</rscale>
<asrwt>0</asrwt>
<pdfrwt beam="1">  1        5 0.35899035E-02 0.16358996E+03</pdfrwt>
<pdfrwt beam="2">  1       -5 0.17747035E+00 0.16358996E+03</pdfrwt>
<totfact> 0.59676840E+01</totfact>
</mgrwt>
</event>
<event>
 8    1  0.1865596E-007  0.1373191E+03  0.7546771E-02  0.1216992E+00
          5   -1    0    0  501    0  0.00000000000E+00  0.00000000000E+00  0.67409281829E+02  0.67572933018E+02  0.47000000000E+01 0.  1.
         -5   -1    0    0    0  501 -0.00000000000E+00 -0.00000000000E+00 -0.30246994320E+03  0.30250645702E+03  0.47000000000E+01 0.  1.
         25    2    1    2    0    0 -0.59360192542E+01  0.56547999260E+02 -0.16887604483E+03  0.21764271905E+03  0.12496528356E+03 0.  0.
         25    2    1    2    0    0  0.59360192542E+01 -0.56547999260E+02 -0.66184616538E+02  0.15243667098E+03  0.12499449048E+03 0.  0.
          5    1    4    4  502    0  0.21997732871E+02 -0.40538874171E+02 -0.10070670479E+03  0.11086582413E+03  0.47000000000E+01 0. -1.
         -5    1    4    4    0  502 -0.16061713617E+02 -0.16009125089E+02  0.34522088254E+02  0.41570846850E+02  0.47000000000E+01 0. -1.
          5    1    3    3  503    0  0.17652666096E+02  0.78695150252E+02 -0.16625247279E+03  0.18484187297E+03  0.47000000000E+01 0. -1.
         -5    1    3    3    0  503 -0.23588685350E+02 -0.22147150992E+02 -0.26235720394E+01  0.32800846084E+02  0.47000000000E+01 0. -1.
<mgrwt>
<rscale>  0 0.13731245E+03</rscale>
<asrwt>0</asrwt>
<pdfrwt beam="1">  1        5 0.10386056E-01 0.13731910E+03</pdfrwt>
<pdfrwt beam="2">  1       -5 0.46549234E-01 0.13731910E+03</pdfrwt>
<totfact> 0.24074488E+02</totfact>
</mgrwt>
</event>
<event>
 8    1  0.1865596E-007  0.1624339E+03  0.7546771E-02  0.1185977E+00
          5   -1    0    0  501    0  0.00000000000E+00  0.00000000000E+00  0.23291878861E+02  0.23761347203E+02  0.47000000000E+01 0.  1.
         -5   -1    0    0    0  501 -0.00000000000E+00 -0.00000000000E+00 -0.11668274021E+04  0.11668368679E+04  0.47000000000E+01 0.  1.
         25    2    1    2    0    0  0.56144461868E+02 -0.87217053308E+02 -0.68973023146E+03  0.70859818487E+03  0.12499832167E+03 0.  0.
         25    2    1    2    0    0 -0.56144461868E+02  0.87217053308E+02 -0.45380529182E+03  0.48200003028E+03  0.12500308523E+03 0.  0.
          5    1    3    3  502    0  0.55336995314E+02 -0.41560791982E+02 -0.62721622353E+03  0.63104022340E+03  0.47000000000E+01 0. -1.
         -5    1    3    3    0  502  0.80746655395E+00 -0.45656261327E+02 -0.62514007929E+02  0.77557961473E+02  0.47000000000E+01 0. -1.
          5    1    4    4  503    0 -0.47269924204E+02  0.10528649485E+03 -0.44462023634E+03  0.45937885921E+03  0.47000000000E+01 0.  1.
         -5    1    4    4    0  503 -0.88745376637E+01 -0.18069441538E+02 -0.91850554886E+01  0.22621171070E+02  0.47000000000E+01 0.  1.
<mgrwt>
<rscale>  0 0.16243303E+03</rscale>
<asrwt>0</asrwt>
<pdfrwt beam="1">  1        5 0.36202080E-02 0.16243394E+03</pdfrwt>
<pdfrwt beam="2">  1       -5 0.17954870E+00 0.16243394E+03</pdfrwt>
<totfact> 0.56766181E+01</totfact>
</mgrwt>
</event>
<event>
 8    1  0.1865596E-007  0.1331125E+03  0.7546771E-02  0.1222921E+00
         -5   -1    0    0    0  501 -0.00000000000E+00  0.00000000000E+00  0.56453638193E+02  0.56648947609E+02  0.47000000000E+01 0. -1.
          5   -1    0    0  501    0  0.00000000000E+00 -0.00000000000E+00 -0.31754053809E+03  0.31757531914E+03  0.47000000000E+01 0. -1.
         25    2    1    2    0    0 -0.33851929146E+02 -0.30785234770E+02 -0.15280608010E+03  0.20263267948E+03  0.12496647907E+03 0.  0.
         25    2    1    2    0    0  0.33851929146E+02  0.30785234770E+02 -0.10828081980E+03  0.17159158727E+03  0.12500101240E+03 0.  0.
          5    1    4    4  502    0 -0.26836751825E+02  0.51173699467E+02 -0.17788452771E+02  0.60642211517E+02  0.47000000000E+01 0. -1.
         -5    1    4    4    0  502  0.60688680972E+02 -0.20388464697E+02 -0.90492367024E+02  0.11094937576E+03  0.47000000000E+01 0. -1.
          5    1    3    3  503    0 -0.10002638900E+02 -0.62073562976E+02 -0.15023414545E+03  0.16292810827E+03  0.47000000000E+01 0. -1.
         -5    1    3    3    0  503 -0.23849290246E+02  0.31288328206E+02 -0.25719346503E+01  0.39704571211E+02  0.47000000000E+01 0. -1.
<mgrwt>
<rscale>  0 0.13310439E+03</rscale>
<asrwt>0</asrwt>
<pdfrwt beam="2">  1        5 0.48870089E-01 0.13311250E+03</pdfrwt>
<pdfrwt beam="1">  1       -5 0.87028745E-02 0.13311250E+03</pdfrwt>
<totfact> 0.29238245E+02</totfact>
</mgrwt>
</event>
<event>
 8    1  0.1865596E-007  0.1361885E+03  0.7546771E-02  0.1218552E+00
          5   -1    0    0  501    0  0.00000000000E+00  0.00000000000E+00  0.88980921388E+02  0.89104962662E+02  0.47000000000E+01 0. -1.
         -5   -1    0    0    0  501 -0.00000000000E+00 -0.00000000000E+00 -0.21667114097E+03  0.21672211085E+03  0.47000000000E+01 0. -1.
         25    2    1    2    0    0  0.31701961819E+02 -0.43773442392E+02 -0.94172633179E+02  0.16557715491E+03  0.12500472290E+03 0.  0.
         25    2    1    2    0    0 -0.31701961819E+02  0.43773442392E+02 -0.33517586408E+02  0.14024991860E+03  0.12500192969E+03 0.  0.
          5    1    4    4  502    0 -0.77550536326E+02  0.10693418873E+02 -0.27902900105E+02  0.83241196087E+02  0.47000000000E+01 0. -1.
         -5    1    4    4    0  502  0.45848574507E+02  0.33080023519E+02 -0.56146863032E+01  0.57008722513E+02  0.47000000000E+01 0. -1.
          5    1    3    3  503    0  0.74518310509E+02 -0.21790824181E+02 -0.86982169788E+02  0.11668678794E+03  0.47000000000E+01 0. -1.
         -5    1    3    3    0  503 -0.42816348690E+02 -0.21982618210E+02 -0.71904633905E+01  0.48890366968E+02  0.47000000000E+01 0. -1.
<mgrwt>
<rscale>  0 0.13618787E+03</rscale>
<asrwt>0</asrwt>
<pdfrwt beam="1">  1        5 0.13702835E-01 0.13618851E+03</pdfrwt>
<pdfrwt beam="2">  1       -5 0.33347484E-01 0.13618851E+03</pdfrwt>
<totfact> 0.29021729E+02</totfact>
</mgrwt>
</event>
<event>
 8    1  0.1865596E-007  0.1520675E+03  0.7546771E-02  0.1197956E+00
          5   -1    0    0  501    0  0.00000000000E+00  0.00000000000E+00  0.65116460384E+03  0.65118156554E+03  0.47000000000E+01 0.  1.
         -5   -1    0    0    0  501 -0.00000000000E+00 -0.00000000000E+00 -0.35622481439E+02  0.35931200702E+02  0.47000000000E+01 0.  1.
         25    2    1    2    0    0 -0.80341139118E+02 -0.32325022008E+02  0.27727363847E+03  0.31623596055E+03  0.12499962589E+03 0.  0.
         25    2    1    2    0    0  0.80341139118E+02  0.32325022008E+02  0.33826848393E+03  0.37087680569E+03  0.12499772835E+03 0.  0.
          5    1    3    3  502    0 -0.82837254161E+02 -0.61471946262E+02  0.26455371314E+03  0.28399219706E+03  0.47000000000E+01 0. -1.
         -5    1    3    3    0  502  0.24961150433E+01  0.29146924254E+02  0.12719925328E+02  0.32243763491E+02  0.47000000000E+01 0. -1.
          5    1    4    4  503    0  0.80811897543E+02 -0.29324110574E+02  0.15296526256E+03  0.17553041843E+03  0.47000000000E+01 0.  1.
         -5    1    4    4    0  503 -0.47075842565E+00  0.61649132582E+02  0.18530322137E+03  0.19534638725E+03  0.47000000000E+01 0.  1.
<mgrwt>
<rscale>  0 0.15206707E+03</rscale>
<asrwt>0</asrwt>
<pdfrwt beam="1">  1        5 0.10020421E+00 0.15206746E+03</pdfrwt>
<pdfrwt beam="2">  1       -5 0.55054348E-02 0.15206746E+03</pdfrwt>
<totfact> 0.13120550E+02</totfact>
</mgrwt>
</event>
<event>
 8    1  0.1865596E-007  0.1294115E+03  0.7546771E-02  0.1228334E+00
         -5   -1    0    0    0  501 -0.00000000000E+00  0.00000000000E+00  0.23621034984E+03  0.23625710439E+03  0.47000000000E+01 0.  1.
          5   -1    0    0  501    0  0.00000000000E+00 -0.00000000000E+00 -0.75567162776E+02  0.75713183066E+02  0.47000000000E+01 0.  1.
         25    2    1    2    0    0  0.24791509752E+02 -0.22523183049E+02  0.11959003725E+03  0.17620326154E+03  0.12499559847E+03 0.  0.
         25    2    1    2    0    0 -0.24791509752E+02  0.22523183049E+02  0.41053149816E+02  0.13576702591E+03  0.12500164593E+03 0.  0.
          5    1    3    3  502    0  0.74323680121E+02 -0.24427863190E+02  0.61018179468E+02  0.99327932388E+02  0.47000000000E+01 0. -1.
         -5    1    3    3    0  502 -0.49532170369E+02  0.19046801415E+01  0.58571857782E+02  0.76875329150E+02  0.47000000000E+01 0. -1.
          5    1    4    4  503    0 -0.55528260136E+02  0.27654386131E+02 -0.21419653246E+02  0.65795473182E+02  0.47000000000E+01 0. -1.
         -5    1    4    4    0  503  0.30736750384E+02 -0.51312030825E+01  0.62472803062E+02  0.69971552732E+02  0.47000000000E+01 0. -1.
<mgrwt>
<rscale>  0 0.12940999E+03</rscale>
<asrwt>0</asrwt>
<pdfrwt beam="2">  1        5 0.11640546E-01 0.12941145E+03</pdfrwt>
<pdfrwt beam="1">  1       -5 0.36354883E-01 0.12941145E+03</pdfrwt>
<totfact> 0.32054075E+02</totfact>
</mgrwt>
</event>
<event>
 8    1  0.1865596E-007  0.2355255E+03  0.7546771E-02  0.1122812E+00
          5   -1    0    0  501    0  0.00000000000E+00  0.00000000000E+00  0.11494260705E+03  0.11503865835E+03  0.47000000000E+01 0.  1.
         -5   -1    0    0    0  501 -0.00000000000E+00 -0.00000000000E+00 -0.50792405704E+03  0.50794580195E+03  0.47000000000E+01 0.  1.
         25    2    1    2    0    0 -0.12372462401E+03 -0.15664756973E+03 -0.26646924596E+03  0.35563150505E+03  0.12498665790E+03 0.  0.
         25    2    1    2    0    0  0.12372462401E+03  0.15664756973E+03 -0.12651220403E+03  0.26735295524E+03  0.12500408481E+03 0.  0.
          5    1    3    3  502    0 -0.83175317583E+02 -0.14865354253E+02 -0.12694924106E+03  0.15256904017E+03  0.47000000000E+01 0.  1.
         -5    1    3    3    0  502 -0.40549306425E+02 -0.14178221548E+03 -0.13952000491E+03  0.20306246489E+03  0.47000000000E+01 0.  1.
          5    1    4    4  503    0  0.51074270318E+02 -0.10706322423E+02 -0.20283178118E+02  0.56184550749E+02  0.47000000000E+01 0.  1.
         -5    1    4    4    0  503  0.72650353690E+02  0.16735389215E+03 -0.10622902591E+03  0.21116840449E+03  0.47000000000E+01 0.  1.
<mgrwt>
<rscale>  0 0.23552320E+03</rscale>
<asrwt>0</asrwt>
<pdfrwt beam="1">  1        5 0.17692539E-01 0.23552551E+03</pdfrwt>
<pdfrwt beam="2">  1       -5 0.78151223E-01 0.23552551E+03</pdfrwt>
<totfact> 0.34351328E+01</totfact>
</mgrwt>
</event>
<event>
 8    1  0.1865596E-007  0.1591330E+03  0.7546771E-02  0.1189680E+00
          5   -1    0    0  501    0  0.00000000000E+00  0.00000000000E+00  0.83357491645E+03  0.83358816651E+03  0.47000000000E+01 0.  1.
         -5   -1    0    0    0  501 -0.00000000000E+00 -0.00000000000E+00 -0.30185118504E+02  0.30548835969E+02  0.47000000000E+01 0.  1.
         25    2    1    2    0    0 -0.47969191941E+02 -0.86005490970E+02  0.40480627796E+03  0.43496140051E+03  0.12500123760E+03 0.  0.
         25    2    1    2    0    0  0.47969191941E+02  0.86005490970E+02  0.39858351999E+03  0.42917560197E+03  0.12499954826E+03 0.  0.
          5    1    3    3  502    0 -0.53340307020E+02 -0.69592182653E+02  0.40750771705E+03  0.41686075576E+03  0.47000000000E+01 0.  1.
         -5    1    3    3    0  502  0.53711150794E+01 -0.16413308317E+02 -0.27014390878E+01  0.18100644747E+02  0.47000000000E+01 0.  1.
          5    1    4    4  503    0  0.68174013250E+02  0.61105142258E+01  0.24955349357E+03  0.25881281000E+03  0.47000000000E+01 0.  1.
         -5    1    4    4    0  503 -0.20204821309E+02  0.79894976744E+02  0.14903002642E+03  0.17036279197E+03  0.47000000000E+01 0.  1.
<mgrwt>
<rscale>  0 0.15913262E+03</rscale>
<asrwt>0</asrwt>
<pdfrwt beam="1">  1        5 0.12827131E+00 0.15913295E+03</pdfrwt>
<pdfrwt beam="2">  1       -5 0.46728614E-02 0.15913295E+03</pdfrwt>
<totfact> 0.93880667E+01</totfact>
</mgrwt>
</event>
<event>
 8    1  0.1865596E-007  0.1289504E+03  0.7546771E-02  0.1229022E+00
         -5   -1    0    0    0  501 -0.00000000000E+00  0.00000000000E+00  0.33381163641E+02  0.33710415097E+02  0.47000000000E+01 0. -1.
          5   -1    0    0  501    0  0.00000000000E+00 -0.00000000000E+00 -0.52035785201E+03  0.52037907736E+03  0.47000000000E+01 0. -1.
         25    2    1    2    0    0 -0.88312312560E+01 -0.30419407485E+02 -0.18275643979E+03  0.22366828240E+03  0.12499701304E+03 0.  0.
         25    2    1    2    0    0  0.88312312560E+01  0.30419407485E+02 -0.30422024858E+03  0.33042121006E+03  0.12499954164E+03 0.  0.
          5    1    4    4  502    0 -0.69760795334E+01  0.56000461715E+02 -0.29229871576E+03  0.29773368408E+03  0.47000000000E+01 0.  1.
         -5    1    4    4    0  502  0.15807310789E+02 -0.25581054230E+02 -0.11921532821E+02  0.32687525980E+02  0.47000000000E+01 0.  1.
          5    1    3    3  503    0 -0.49273428939E+01 -0.34934550819E+02 -0.20088423292E+03  0.20401290788E+03  0.47000000000E+01 0. -1.
         -5    1    3    3    0  503 -0.39038883621E+01  0.45151433344E+01  0.18127793126E+02  0.19655374514E+02  0.47000000000E+01 0. -1.
<mgrwt>
<rscale>  0 0.12894983E+03</rscale>
<asrwt>0</asrwt>
<pdfrwt beam="2">  1        5 0.80082008E-01 0.12895044E+03</pdfrwt>
<pdfrwt beam="1">  1       -5 0.51625238E-02 0.12895044E+03</pdfrwt>
<totfact> 0.23538332E+02</totfact>
</mgrwt>
</event>
<event>
 8    1  0.1865596E-007  0.1284978E+03  0.7546771E-02  0.1229703E+00
         -5   -1    0    0    0  501 -0.00000000000E+00  0.00000000000E+00  0.39577984533E+02  0.39856076823E+02  0.47000000000E+01 0. -1.
          5   -1    0    0  501    0  0.00000000000E+00 -0.00000000000E+00 -0.41599682634E+03  0.41602337618E+03  0.47000000000E+01 0. -1.
         25    2    1    2    0    0 -0.15574152820E+02 -0.25368751388E+02 -0.19657702320E+03  0.23484934214E+03  0.12500223866E+03 0.  0.
         25    2    1    2    0    0  0.15574152820E+02  0.25368751388E+02 -0.17984181861E+03  0.22103011086E+03  0.12500040961E+03 0.  0.
          5    1    4    4  502    0  0.48859882624E+02  0.18294706686E+02 -0.17917067244E+03  0.18667138047E+03  0.47000000000E+01 0.  1.
         -5    1    4    4    0  502 -0.33285729804E+02  0.70740447020E+01 -0.67114616942E+00  0.34358730393E+02  0.47000000000E+01 0.  1.
          5    1    3    3  503    0 -0.19053120044E+02 -0.25493015856E+02 -0.21403414047E+03  0.21643848670E+03  0.47000000000E+01 0. -1.
         -5    1    3    3    0  503  0.34789672233E+01  0.12426446776E+00  0.17457117268E+02  0.18410855437E+02  0.47000000000E+01 0. -1.
<mgrwt>
<rscale>  0 0.12849737E+03</rscale>
<asrwt>0</asrwt>
<pdfrwt beam="2">  1        5 0.64022943E-01 0.12849781E+03</pdfrwt>
<pdfrwt beam="1">  1       -5 0.61123550E-02 0.12849781E+03</pdfrwt>
<totfact> 0.29398451E+02</totfact>
</mgrwt>
</event>
<event>
 8    1  0.1865596E-007  0.1267466E+03  0.7546771E-02  0.1232365E+00
         -5   -1    0    0    0  501 -0.00000000000E+00  0.00000000000E+00  0.55424026833E+02  0.55622951651E+02  0.47000000000E+01 0.  1.
          5   -1    0    0  501    0  0.00000000000E+00 -0.00000000000E+00 -0.35219425266E+03  0.35222561180E+03  0.47000000000E+01 0.  1.
         25    2    1    2    0    0 -0.96392244299E+01 -0.18609514786E+02 -0.62107299455E+02  0.14114386765E+03  0.12500018416E+03 0.  0.
         25    2    1    2    0    0  0.96392244299E+01  0.18609514786E+02 -0.23466292637E+03  0.26670469580E+03  0.12500190823E+03 0.  0.
          5    1    4    4  502    0  0.24895421047E+02  0.37751292864E+02 -0.18459338682E+02  0.49069127633E+02  0.47000000000E+01 0.  1.
         -5    1    4    4    0  502 -0.15256196617E+02 -0.19141778078E+02 -0.21620358769E+03  0.21763556817E+03  0.47000000000E+01 0.  1.
          5    1    3    3  503    0 -0.55627904362E+02  0.26407031048E+02 -0.36401487452E+02  0.71686493296E+02  0.47000000000E+01 0. -1.
         -5    1    3    3    0  503  0.45988679932E+02 -0.45016545834E+02 -0.25705812003E+02  0.69457374349E+02  0.47000000000E+01 0. -1.
<mgrwt>
<rscale>  0 0.12674620E+03</rscale>
<asrwt>0</asrwt>
<pdfrwt beam="2">  1        5 0.54201444E-01 0.12674662E+03</pdfrwt>
<pdfrwt beam="1">  1       -5 0.85444877E-02 0.12674662E+03</pdfrwt>
<totfact> 0.23788989E+02</totfact>
</mgrwt>
</event>
<event>
 8    1  0.1865596E-007  0.1737766E+03  0.7546771E-02  0.1173966E+00
          5   -1    0    0  501    0  0.00000000000E+00  0.00000000000E+00  0.41616252173E+02  0.41880812372E+02  0.47000000000E+01 0. -1.
         -5   -1    0    0    0  501 -0.00000000000E+00 -0.00000000000E+00 -0.72787289024E+03  0.72788806443E+03  0.47000000000E+01 0. -1.
         25    2    1    2    0    0 -0.92208743857E+02 -0.77907172584E+02 -0.37442900638E+03  0.41278879533E+03  0.12500211497E+03 0.  0.
         25    2    1    2    0    0  0.92208743857E+02  0.77907172584E+02 -0.31182763169E+03  0.35698008147E+03  0.12500530670E+03 0.  0.
          5    1    3    3  502    0 -0.83213257629E+02 -0.11112372218E+03 -0.29284122173E+03  0.32411571856E+03  0.47000000000E+01 0. -1.
         -5    1    3    3    0  502 -0.89954862278E+01  0.33216549591E+02 -0.81587784648E+02  0.88673076765E+02  0.47000000000E+01 0. -1.
          5    1    4    4  503    0  0.14974248957E+02  0.25994682411E+02 -0.23288646824E+03  0.23485772020E+03  0.47000000000E+01 0.  1.
         -5    1    4    4    0  503  0.77234494900E+02  0.51912490173E+02 -0.78941163444E+02  0.12212236128E+03  0.47000000000E+01 0.  1.
<mgrwt>
<rscale>  0 0.17377603E+03</rscale>
<asrwt>0</asrwt>
<pdfrwt beam="1">  1        5 0.64240189E-02 0.17377660E+03</pdfrwt>
<pdfrwt beam="2">  1       -5 0.11200195E+00 0.17377660E+03</pdfrwt>
<totfact> 0.79870570E+01</totfact>
</mgrwt>
</event>
<event>
 8    1  0.1865596E-007  0.1494283E+03  0.7546771E-02  0.1201178E+00
          5   -1    0    0  501    0  0.00000000000E+00  0.00000000000E+00  0.93687023046E+03  0.93688201964E+03  0.47000000000E+01 0.  1.
         -5   -1    0    0    0  501 -0.00000000000E+00 -0.00000000000E+00 -0.24290390845E+02  0.24740919292E+02  0.47000000000E+01 0.  1.
         25    2    1    2    0    0 -0.15840218042E+02  0.80322941452E+02  0.37537452241E+03  0.40402238867E+03  0.12500148417E+03 0.  0.
         25    2    1    2    0    0  0.15840218042E+02 -0.80322941452E+02  0.53720531721E+03  0.55760055026E+03  0.12500453344E+03 0.  0.
          5    1    4    4  502    0  0.46732101328E+02  0.74942890076E+01  0.28033930371E+03  0.28434533382E+03  0.47000000000E+01 0.  1.
         -5    1    4    4    0  502 -0.30891883286E+02 -0.87817230460E+02  0.25686601350E+03  0.27325521644E+03  0.47000000000E+01 0.  1.
          5    1    3    3  503    0  0.40176762578E+02  0.82264289719E+00  0.19391425820E+03  0.19809007680E+03  0.47000000000E+01 0.  1.
         -5    1    3    3    0  503 -0.56016980619E+02  0.79500298555E+02  0.18146026421E+03  0.20593231188E+03  0.47000000000E+01 0.  1.
<mgrwt>
<rscale>  0 0.14942768E+03</rscale>
<asrwt>0</asrwt>
<pdfrwt beam="1">  1        5 0.14416944E+00 0.14942831E+03</pdfrwt>
<pdfrwt beam="2">  1       -5 0.37725463E-02 0.14942831E+03</pdfrwt>
<totfact> 0.96162579E+01</totfact>
</mgrwt>
</event>
<event>
 8    1  0.1865596E-007  0.1692644E+03  0.7546771E-02  0.1178623E+00
          5   -1    0    0  501    0  0.00000000000E+00  0.00000000000E+00  0.21180136351E+03  0.21185350501E+03  0.47000000000E+01 0. -1.
         -5   -1    0    0    0  501 -0.00000000000E+00 -0.00000000000E+00 -0.14352469638E+03  0.14360163115E+03  0.47000000000E+01 0. -1.
         25    2    1    2    0    0  0.11407898083E+03 -0.20289599320E+01  0.77063637946E+02  0.18596278917E+03  0.12500089646E+03 0.  0.
         25    2    1    2    0    0 -0.11407898083E+03  0.20289599320E+01 -0.87869708117E+01  0.16949234699E+03  0.12502925373E+03 0.  0.
          5    1    4    4  502    0 -0.12103837258E+03 -0.27190602869E+02 -0.35394567703E+02  0.12909098320E+03  0.47000000000E+01 0.  1.
         -5    1    4    4    0  502  0.69593917502E+01  0.29219562801E+02  0.26607596891E+02  0.40401363791E+02  0.47000000000E+01 0.  1.
          5    1    3    3  503    0 -0.19667939038E+02 -0.88539071855E+01 -0.11937457625E+02  0.25096063297E+02  0.47000000000E+01 0.  1.
         -5    1    3    3    0  503  0.13374691987E+03  0.68249472535E+01  0.89001095571E+02  0.16086672587E+03  0.47000000000E+01 0.  1.
<mgrwt>
<rscale>  0 0.16925919E+03</rscale>
<asrwt>0</asrwt>
<pdfrwt beam="1">  1        5 0.32594754E-01 0.16926442E+03</pdfrwt>
<pdfrwt beam="2">  1       -5 0.22090651E-01 0.16926442E+03</pdfrwt>
<totfact> 0.13521798E+02</totfact>
</mgrwt>
</event>
<event>
 8    1  0.1865596E-007  0.1644847E+03  0.7546771E-02  0.1183725E+00
          5   -1    0    0  501    0  0.00000000000E+00  0.00000000000E+00  0.29977264880E+02  0.30343473923E+02  0.47000000000E+01 0.  1.
         -5   -1    0    0    0  501 -0.00000000000E+00 -0.00000000000E+00 -0.90386771891E+03  0.90387993853E+03  0.47000000000E+01 0.  1.
         25    2    1    2    0    0  0.26930192134E+02  0.10346410111E+03 -0.39524155890E+03  0.42810091225E+03  0.12499778284E+03 0.  0.
         25    2    1    2    0    0 -0.26930192134E+02 -0.10346410111E+03 -0.47864889512E+03  0.50612250021E+03  0.12500065980E+03 0.  0.
          5    1    4    4  502    0 -0.12278927454E+02 -0.88322451805E+02 -0.13539087774E+03  0.16218633520E+03  0.47000000000E+01 0.  1.
         -5    1    4    4    0  502 -0.14651264680E+02 -0.15141649300E+02 -0.34325801738E+03  0.34393616500E+03  0.47000000000E+01 0.  1.
          5    1    3    3  503    0 -0.30495297501E+01 -0.27998971555E+02 -0.88661046253E+02  0.93145655629E+02  0.47000000000E+01 0.  1.
         -5    1    3    3    0  503  0.29979721884E+02  0.13146307266E+03 -0.30658051265E+03  0.33495525662E+03  0.47000000000E+01 0.  1.
<mgrwt>
<rscale>  0 0.16448417E+03</rscale>
<asrwt>0</asrwt>
<pdfrwt beam="1">  1        5 0.46409975E-02 0.16448471E+03</pdfrwt>
<pdfrwt beam="2">  1       -5 0.13908566E+00 0.16448471E+03</pdfrwt>
<totfact> 0.77442981E+01</totfact>
</mgrwt>
</event>
<event>
 8    1  0.1865596E-007  0.1341659E+03  0.7546771E-02  0.1221402E+00
          5   -1    0    0  501    0  0.00000000000E+00  0.00000000000E+00  0.32955022768E+03  0.32958374135E+03  0.47000000000E+01 0.  1.
         -5   -1    0    0    0  501 -0.00000000000E+00 -0.00000000000E+00 -0.54485161854E+02  0.54687501883E+02  0.47000000000E+01 0.  1.
         25    2    1    2    0    0  0.48182206600E+02  0.73555732236E+01  0.13848402410E+03  0.19281675902E+03  0.12499939256E+03 0.  0.
         25    2    1    2    0    0 -0.48182206600E+02 -0.73555732236E+01  0.13658104173E+03  0.19145448421E+03  0.12499923630E+03 0.  0.
          5    1    3    3  502    0 -0.21766880310E+02 -0.31955085751E+02  0.92147485036E+02  0.10004085956E+03  0.47000000000E+01 0.  1.
         -5    1    3    3    0  502  0.69949086910E+02  0.39310658974E+02  0.46336539062E+02  0.92775899461E+02  0.47000000000E+01 0.  1.
          5    1    4    4  503    0  0.37224907994E+02  0.14372920247E+02  0.19019445317E+02  0.44453390329E+02  0.47000000000E+01 0.  1.
         -5    1    4    4    0  503 -0.85407114594E+02 -0.21728493471E+02  0.11756159641E+03  0.14700109388E+03  0.47000000000E+01 0.  1.
<mgrwt>
<rscale>  0 0.13416582E+03</rscale>
<asrwt>0</asrwt>
<pdfrwt beam="1">  1        5 0.50718179E-01 0.13416586E+03</pdfrwt>
<pdfrwt beam="2">  1       -5 0.84004749E-02 0.13416586E+03</pdfrwt>
<totfact> 0.28804009E+02</totfact>
</mgrwt>
</event>
<event>
 8    1  0.1865596E-007  0.1259088E+03  0.7546771E-02  0.1233660E+00
         -5   -1    0    0    0  501 -0.00000000000E+00  0.00000000000E+00  0.31219587273E+02  0.31571389413E+02  0.47000000000E+01 0. -1.
          5   -1    0    0  501    0  0.00000000000E+00 -0.00000000000E+00 -0.50631524227E+03  0.50633705627E+03  0.47000000000E+01 0. -1.
         25    2    1    2    0    0 -0.10159794644E+02  0.11076226830E+02 -0.22163482144E+03  0.25489712394E+03  0.12499858196E+03 0.  0.
         25    2    1    2    0    0  0.10159794644E+02 -0.11076226830E+02 -0.25346083355E+03  0.28301132174E+03  0.12500843915E+03 0.  0.
          5    1    3    3  502    0 -0.22557960737E+02  0.64338075811E+02 -0.14837399622E+03  0.16335599880E+03  0.47000000000E+01 0.  1.
         -5    1    3    3    0  502  0.12398166094E+02 -0.53261848981E+02 -0.73260825219E+02  0.91541125136E+02  0.47000000000E+01 0.  1.
          5    1    4    4  503    0 -0.30863713256E+02 -0.36782651818E+02 -0.36051237716E+02  0.60227186649E+02  0.47000000000E+01 0. -1.
         -5    1    4    4    0  503  0.41023507900E+02  0.25706424988E+02 -0.21740959584E+03  0.22278413509E+03  0.47000000000E+01 0. -1.
<mgrwt>
<rscale>  0 0.12590631E+03</rscale>
<asrwt>0</asrwt>
<pdfrwt beam="2">  1        5 0.77923386E-01 0.12590875E+03</pdfrwt>
<pdfrwt beam="1">  1       -5 0.48317535E-02 0.12590875E+03</pdfrwt>
<totfact> 0.27739185E+02</totfact>
</mgrwt>
</event>
<event>
 8    1  0.1865596E-007  0.1518821E+03  0.7546771E-02  0.1198183E+00
         -5   -1    0    0    0  501 -0.00000000000E+00  0.00000000000E+00  0.95564818746E+03  0.95565974499E+03  0.47000000000E+01 0.  1.
          5   -1    0    0  501    0  0.00000000000E+00 -0.00000000000E+00 -0.24257297039E+02  0.24708428919E+02  0.47000000000E+01 0.  1.
         25    2    1    2    0    0  0.60530650952E+02  0.61474442886E+02  0.40644739284E+03  0.43389416559E+03  0.12498638708E+03 0.  0.
         25    2    1    2    0    0 -0.60530650952E+02 -0.61474442886E+02  0.52494349758E+03  0.54647400832E+03  0.12500039713E+03 0.  0.
          5    1    4    4  502    0 -0.20011515708E+01  0.34732827753E+02  0.18593015147E+03  0.18921544640E+03  0.47000000000E+01 0. -1.
         -5    1    4    4    0  502 -0.58529499381E+02 -0.96207270639E+02  0.33901334611E+03  0.35725856191E+03  0.47000000000E+01 0. -1.
          5    1    3    3  503    0  0.73373365181E+02  0.55444725782E+02  0.40855140692E+03  0.41880080042E+03  0.47000000000E+01 0.  1.
         -5    1    3    3    0  503 -0.12842714229E+02  0.60297171034E+01 -0.21040140755E+01  0.15093365176E+02  0.47000000000E+01 0.  1.
<mgrwt>
<rscale>  0 0.15187920E+03</rscale>
<asrwt>0</asrwt>
<pdfrwt beam="2">  1        5 0.37674831E-02 0.15188208E+03</pdfrwt>
<pdfrwt beam="1">  1       -5 0.14705840E+00 0.15188208E+03</pdfrwt>
<totfact> 0.91780098E+01</totfact>
</mgrwt>
</event>
<event>
 8    1  0.1865596E-007  0.1869491E+03  0.7546771E-02  0.1161243E+00
         -5   -1    0    0    0  501 -0.00000000000E+00  0.00000000000E+00  0.48214193916E+02  0.48442734181E+02  0.47000000000E+01 0.  1.
          5   -1    0    0  501    0  0.00000000000E+00 -0.00000000000E+00 -0.73538927652E+03  0.73540429562E+03  0.47000000000E+01 0.  1.
         25    2    1    2    0    0  0.11654064215E+03  0.75783433384E+02 -0.29259104422E+03  0.34721674618E+03  0.12500039849E+03 0.  0.
         25    2    1    2    0    0 -0.11654064215E+03 -0.75783433384E+02 -0.39458403838E+03  0.43663028362E+03  0.12499836471E+03 0.  0.
          5    1    3    3  502    0  0.51654119500E+02 -0.32039325618E+02 -0.99418777643E+02  0.11662268131E+03  0.47000000000E+01 0.  1.
         -5    1    3    3    0  502  0.64886522653E+02  0.10782275900E+03 -0.19317226658E+03  0.23059406487E+03  0.47000000000E+01 0.  1.
          5    1    4    4  503    0 -0.25338239931E+02  0.85268378336E+01 -0.22361851945E+03  0.22525999558E+03  0.47000000000E+01 0.  1.
         -5    1    4    4    0  503 -0.91202402221E+02 -0.84310271217E+02 -0.17096551893E+03  0.21137028804E+03  0.47000000000E+01 0.  1.
<mgrwt>
<rscale>  0 0.18694872E+03</rscale>
<asrwt>0</asrwt>
<pdfrwt beam="2">  1        5 0.11315554E+00 0.18694906E+03</pdfrwt>
<pdfrwt beam="1">  1       -5 0.74363042E-02 0.18694906E+03</pdfrwt>
<totfact> 0.61897024E+01</totfact>
</mgrwt>
</event>
<event>
 8    1  0.1865596E-007  0.1831651E+03  0.7546771E-02  0.1164776E+00
         -5   -1    0    0    0  501 -0.00000000000E+00  0.00000000000E+00  0.14831427149E+03  0.14838872305E+03  0.47000000000E+01 0. -1.
          5   -1    0    0  501    0  0.00000000000E+00 -0.00000000000E+00 -0.22875563127E+03  0.22880390914E+03  0.47000000000E+01 0. -1.
         25    2    1    2    0    0  0.15820722917E+02 -0.13293597484E+03 -0.19684754250E+02  0.18421379736E+03  0.12499985962E+03 0.  0.
         25    2    1    2    0    0 -0.15820722917E+02  0.13293597484E+03 -0.60756605526E+02  0.19297883483E+03  0.12500878727E+03 0.  0.
          5    1    4    4  502    0 -0.26133275014E+02  0.56117577030E+02 -0.90567651509E+02  0.10980309656E+03  0.47000000000E+01 0.  1.
         -5    1    4    4    0  502  0.10312552098E+02  0.76818397811E+02  0.29811045984E+02  0.83175738264E+02  0.47000000000E+01 0.  1.
          5    1    3    3  503    0  0.51520103057E+02 -0.19064434834E+02 -0.32659729187E+02  0.64082147320E+02  0.47000000000E+01 0. -1.
         -5    1    3    3    0  503 -0.35699380140E+02 -0.11387154001E+03  0.12974974937E+02  0.12013165004E+03  0.47000000000E+01 0. -1.
<mgrwt>
<rscale>  0 0.18316361E+03</rscale>
<asrwt>0</asrwt>
<pdfrwt beam="2">  1        5 0.35202615E-01 0.18316513E+03</pdfrwt>
<pdfrwt beam="1">  1       -5 0.22827021E-01 0.18316513E+03</pdfrwt>
<totfact> 0.11145732E+02</totfact>
</mgrwt>
</event>
<event>
 8    1  0.1865596E-007  0.1311584E+03  0.7546771E-02  0.1225749E+00
         -5   -1    0    0    0  501 -0.00000000000E+00  0.00000000000E+00  0.56365346606E+03  0.56367306109E+03  0.47000000000E+01 0. -1.
          5   -1    0    0  501    0  0.00000000000E+00 -0.00000000000E+00 -0.33189659461E+02  0.33520791983E+02  0.47000000000E+01 0. -1.
         25    2    1    2    0    0 -0.33441781402E+02  0.21428550798E+02  0.35259595231E+03  0.37619997356E+03  0.12499991594E+03 0.  0.
         25    2    1    2    0    0  0.33441781402E+02 -0.21428550798E+02  0.17786785428E+03  0.22099387952E+03  0.12499514256E+03 0.  0.
          5    1    4    4  502    0  0.80410537329E+01  0.11788066609E+02  0.17828109913E+03  0.17891298826E+03  0.47000000000E+01 0. -1.
         -5    1    4    4    0  502  0.25400727669E+02 -0.33216617407E+02 -0.41324484595E+00  0.42080891262E+02  0.47000000000E+01 0. -1.
          5    1    3    3  503    0  0.13822643395E+02  0.64869527431E+02  0.16645593190E+03  0.17924505104E+03  0.47000000000E+01 0.  1.
         -5    1    3    3    0  503 -0.47264424796E+02 -0.43440976633E+02  0.18614002041E+03  0.19695492251E+03  0.47000000000E+01 0.  1.
<mgrwt>
<rscale>  0 0.13115722E+03</rscale>
<asrwt>0</asrwt>
<pdfrwt beam="2">  1        5 0.51330808E-02 0.13115836E+03</pdfrwt>
<pdfrwt beam="1">  1       -5 0.86742891E-01 0.13115836E+03</pdfrwt>
<totfact> 0.19845326E+02</totfact>
</mgrwt>
</event>
<event>
 8    1  0.1865596E-007  0.1327691E+03  0.7546771E-02  0.1223406E+00
          5   -1    0    0  501    0  0.00000000000E+00  0.00000000000E+00  0.60487257168E+03  0.60489083145E+03  0.47000000000E+01 0. -1.
         -5   -1    0    0    0  501 -0.00000000000E+00 -0.00000000000E+00 -0.35768229099E+02  0.36075701141E+02  0.47000000000E+01 0. -1.
         25    2    1    2    0    0 -0.18635346602E+02  0.40684570649E+02  0.14516400352E+03  0.19672371468E+03  0.12500048627E+03 0.  0.
         25    2    1    2    0    0  0.18635346602E+02 -0.40684570649E+02  0.42394033906E+03  0.44424281791E+03  0.12499503890E+03 0.  0.
          5    1    4    4  502    0  0.42060211923E+02  0.24293205156E+02  0.28345987014E+03  0.28762963899E+03  0.47000000000E+01 0.  1.
         -5    1    4    4    0  502 -0.23424865322E+02 -0.64977775805E+02  0.14048046891E+03  0.15661317892E+03  0.47000000000E+01 0.  1.
          5    1    3    3  503    0 -0.76687199501E+01  0.85627220113E+02  0.89433896912E+02  0.12414242630E+03  0.47000000000E+01 0.  1.
         -5    1    3    3    0  503 -0.10966626652E+02 -0.44942649464E+02  0.55730106612E+02  0.72581288387E+02  0.47000000000E+01 0.  1.
<mgrwt>
<rscale>  0 0.13276781E+03</rscale>
<asrwt>0</asrwt>
<pdfrwt beam="1">  1        5 0.93082372E-01 0.13276909E+03</pdfrwt>
<pdfrwt beam="2">  1       -5 0.55278610E-02 0.13276909E+03</pdfrwt>
<totfact> 0.14904168E+02</totfact>
</mgrwt>
</event>
<event>
 8    1  0.1865596E-007  0.1309473E+03  0.7546771E-02  0.1226057E+00
         -5   -1    0    0    0  501 -0.00000000000E+00  0.00000000000E+00  0.16853270792E+03  0.16859823142E+03  0.47000000000E+01 0. -1.
          5   -1    0    0  501    0  0.00000000000E+00 -0.00000000000E+00 -0.16741223894E+03  0.16747820081E+03  0.47000000000E+01 0. -1.
         25    2    1    2    0    0 -0.35872458525E+02  0.15330821844E+02  0.10586758271E+03  0.16838879355E+03  0.12499989339E+03 0.  0.
         25    2    1    2    0    0  0.35872458525E+02 -0.15330821844E+02 -0.10474711372E+03  0.16768763868E+03  0.12500127581E+03 0.  0.
          5    1    4    4  502    0 -0.99016814647E+01  0.46859064764E+02 -0.64522698325E+02  0.80492756478E+02  0.47000000000E+01 0. -1.
         -5    1    4    4    0  502  0.45774139989E+02 -0.62189886608E+02 -0.40224415396E+02  0.87194882201E+02  0.47000000000E+01 0. -1.
          5    1    3    3  503    0  0.12884659722E+02  0.24117366134E+02  0.11455883512E+03  0.11787060070E+03  0.47000000000E+01 0. -1.
         -5    1    3    3    0  503 -0.48757118247E+02 -0.87865442905E+01 -0.86912524155E+01  0.50518192850E+02  0.47000000000E+01 0. -1.
<mgrwt>
<rscale>  0 0.13094694E+03</rscale>
<asrwt>0</asrwt>
<pdfrwt beam="2">  1        5 0.25765843E-01 0.13094727E+03</pdfrwt>
<pdfrwt beam="1">  1       -5 0.25938223E-01 0.13094727E+03</pdfrwt>
<totfact> 0.14517605E+02</totfact>
</mgrwt>
</event>
<event>
 8    1  0.1865596E-007  0.1472944E+03  0.7546771E-02  0.1203849E+00
          5   -1    0    0  501    0  0.00000000000E+00  0.00000000000E+00  0.86076499245E+02  0.86204719838E+02  0.47000000000E+01 0. -1.
         -5   -1    0    0    0  501 -0.00000000000E+00 -0.00000000000E+00 -0.25730781817E+03  0.25735073983E+03  0.47000000000E+01 0. -1.
         25    2    1    2    0    0 -0.55875481897E+01 -0.77659215297E+02 -0.11109098927E+03  0.18449080707E+03  0.12503389772E+03 0.  0.
         25    2    1    2    0    0  0.55875481897E+01  0.77659215297E+02 -0.60140329659E+02  0.15906465261E+03  0.12499011978E+03 0.  0.
          5    1    4    4  502    0 -0.16881906578E+02 -0.40473280331E+00 -0.74416089824E+02  0.76452645494E+02  0.47000000000E+01 0. -1.
         -5    1    4    4    0  502  0.22469454768E+02  0.78063948100E+02  0.14275760166E+02  0.82612007111E+02  0.47000000000E+01 0. -1.
          5    1    3    3  503    0 -0.24385823674E+02 -0.97185070408E+02 -0.11922145803E+03  0.15580581620E+03  0.47000000000E+01 0.  1.
         -5    1    3    3    0  503  0.18798275484E+02  0.19525855111E+02  0.81304687575E+01  0.28684990870E+02  0.47000000000E+01 0.  1.
<mgrwt>
<rscale>  0 0.14728514E+03</rscale>
<asrwt>0</asrwt>
<pdfrwt beam="1">  1        5 0.13255703E-01 0.14729443E+03</pdfrwt>
<pdfrwt beam="2">  1       -5 0.39598983E-01 0.14729443E+03</pdfrwt>
<totfact> 0.22363227E+02</totfact>
</mgrwt>
</event>
<event>
 8    1  0.1865596E-007  0.1310692E+03  0.7546771E-02  0.1225879E+00
          5   -1    0    0  501    0  0.00000000000E+00  0.00000000000E+00  0.25932507611E+03  0.25936766395E+03  0.47000000000E+01 0. -1.
         -5   -1    0    0    0  501 -0.00000000000E+00 -0.00000000000E+00 -0.69071818862E+02  0.69231540217E+02  0.47000000000E+01 0. -1.
         25    2    1    2    0    0 -0.24642067813E+02 -0.30783702185E+02  0.61170979630E+02  0.14463898815E+03  0.12499472116E+03 0.  0.
         25    2    1    2    0    0  0.24642067813E+02  0.30783702185E+02  0.12908227762E+03  0.18396021602E+03  0.12499703538E+03 0.  0.
          5    1    4    4  502    0 -0.43323224939E+02  0.40508204602E+02  0.78756222163E+02  0.98703844852E+02  0.47000000000E+01 0. -1.
         -5    1    4    4    0  502  0.67965292752E+02 -0.97245024168E+01  0.50326055458E+02  0.85256371164E+02  0.47000000000E+01 0. -1.
          5    1    3    3  503    0  0.24897248835E+00 -0.50310743750E+02 -0.22313306851E+02  0.55237727927E+02  0.47000000000E+01 0. -1.
         -5    1    3    3    0  503 -0.24891040302E+02  0.19527041565E+02  0.83484286481E+02  0.89401260220E+02  0.47000000000E+01 0. -1.
<mgrwt>
<rscale>  0 0.13106862E+03</rscale>
<asrwt>0</asrwt>
<pdfrwt beam="1">  1        5 0.39911729E-01 0.13106917E+03</pdfrwt>
<pdfrwt beam="2">  1       -5 0.10641996E-01 0.13106917E+03</pdfrwt>
<totfact> 0.31204582E+02</totfact>
</mgrwt>
</event>
<event>
 8    1  0.1865596E-007  0.1285316E+03  0.7546771E-02  0.1229651E+00
         -5   -1    0    0    0  501 -0.00000000000E+00  0.00000000000E+00  0.10986544341E+03  0.10996592952E+03  0.47000000000E+01 0. -1.
          5   -1    0    0  501    0  0.00000000000E+00 -0.00000000000E+00 -0.15731754884E+03  0.15738774150E+03  0.47000000000E+01 0. -1.
         25    2    1    2    0    0  0.45664498182E+01  0.29578776060E+02  0.47660814091E+01  0.12861975584E+03  0.12499827840E+03 0.  0.
         25    2    1    2    0    0 -0.45664498182E+01 -0.29578776060E+02 -0.52218186845E+02  0.13873391518E+03  0.12499841489E+03 0.  0.
          5    1    3    3  502    0  0.32380783266E+02 -0.32933649764E+02 -0.26270057624E+02  0.53341787927E+02  0.47000000000E+01 0.  1.
         -5    1    3    3    0  502 -0.27814333448E+02  0.62512425824E+02  0.31036139033E+02  0.75277967916E+02  0.47000000000E+01 0.  1.
          5    1    4    4  503    0 -0.67820117521E+00 -0.76447742359E+02 -0.49894421340E+02  0.91412584197E+02  0.47000000000E+01 0. -1.
         -5    1    4    4    0  503 -0.38882486430E+01  0.46868966299E+02 -0.23237655051E+01  0.47321330978E+02  0.47000000000E+01 0. -1.
<mgrwt>
<rscale>  0 0.12853152E+03</rscale>
<asrwt>0</asrwt>
<pdfrwt beam="2">  1        5 0.24215829E-01 0.12853155E+03</pdfrwt>
<pdfrwt beam="1">  1       -5 0.16915505E-01 0.12853155E+03</pdfrwt>
<totfact> 0.36193263E+02</totfact>
</mgrwt>
</event>
<event>
 8    1  0.1865596E-007  0.1401950E+03  0.7546771E-02  0.1213069E+00
          5   -1    0    0  501    0  0.00000000000E+00  0.00000000000E+00  0.13244401007E+03  0.13252737757E+03  0.47000000000E+01 0. -1.
         -5   -1    0    0    0  501 -0.00000000000E+00 -0.00000000000E+00 -0.25483001792E+03  0.25487335686E+03  0.47000000000E+01 0. -1.
         25    2    1    2    0    0  0.62720195661E+02 -0.97183328779E+01 -0.18644246119E+03  0.23327117093E+03  0.12500551555E+03 0.  0.
         25    2    1    2    0    0 -0.62720195661E+02  0.97183328779E+01  0.64056453334E+02  0.15412956349E+03  0.12499769674E+03 0.  0.
          5    1    3    3  502    0 -0.15725058270E+01 -0.36258481002E+02 -0.15040609235E+03  0.15479416280E+03  0.47000000000E+01 0. -1.
         -5    1    3    3    0  502  0.64292701488E+02  0.26540148124E+02 -0.36036368832E+02  0.78477008134E+02  0.47000000000E+01 0. -1.
          5    1    4    4  503    0 -0.80246892315E+02 -0.15565438193E+01  0.89894735607E+02  0.12060323397E+03  0.47000000000E+01 0.  1.
         -5    1    4    4    0  503  0.17526696654E+02  0.11274876697E+02 -0.25838282272E+02  0.33526329518E+02  0.47000000000E+01 0.  1.
<mgrwt>
<rscale>  0 0.14019329E+03</rscale>
<asrwt>0</asrwt>
<pdfrwt beam="1">  1        5 0.20385748E-01 0.14019504E+03</pdfrwt>
<pdfrwt beam="2">  1       -5 0.39214365E-01 0.14019504E+03</pdfrwt>
<totfact> 0.10214840E+02</totfact>
</mgrwt>
</event>
<event>
 8    1  0.1865596E-007  0.1291861E+03  0.7546771E-02  0.1228677E+00
          5   -1    0    0  501    0  0.00000000000E+00  0.00000000000E+00  0.42025972769E+02  0.42287969769E+02  0.47000000000E+01 0. -1.
         -5   -1    0    0    0  501 -0.00000000000E+00 -0.00000000000E+00 -0.45983214327E+03  0.45985616227E+03  0.47000000000E+01 0. -1.
         25    2    1    2    0    0  0.15991583016E+02  0.28451081178E+02 -0.30277673043E+03  0.32918506684E+03  0.12499545988E+03 0.  0.
         25    2    1    2    0    0 -0.15991583016E+02 -0.28451081178E+02 -0.11502944006E+03  0.17295906521E+03  0.12497148238E+03 0.  0.
          5    1    4    4  502    0 -0.44200409596E+02 -0.61921017086E+02 -0.40286396092E+02  0.86214687122E+02  0.47000000000E+01 0.  1.
         -5    1    4    4    0  502  0.28208826580E+02  0.33469935909E+02 -0.74743043973E+02  0.86744378084E+02  0.47000000000E+01 0.  1.
          5    1    3    3  503    0 -0.36675833476E+02 -0.19832960023E+02 -0.19721345471E+03  0.20162762654E+03  0.47000000000E+01 0. -1.
         -5    1    3    3    0  503  0.52667416492E+02  0.48284041201E+02 -0.10556327572E+03  0.12755744030E+03  0.47000000000E+01 0. -1.
<mgrwt>
<rscale>  0 0.12918034E+03</rscale>
<asrwt>0</asrwt>
<pdfrwt beam="1">  1        5 0.64875358E-02 0.12918614E+03</pdfrwt>
<pdfrwt beam="2">  1       -5 0.70765404E-01 0.12918614E+03</pdfrwt>
<totfact> 0.21305671E+02</totfact>
</mgrwt>
</event>
<event>
 8    1  0.1865596E-007  0.1382945E+03  0.7546771E-02  0.1215658E+00
          5   -1    0    0  501    0  0.00000000000E+00  0.00000000000E+00  0.80394743177E+02  0.80532010595E+02  0.47000000000E+01 0.  1.
         -5   -1    0    0    0  501 -0.00000000000E+00 -0.00000000000E+00 -0.24781578701E+03  0.24786035240E+03  0.47000000000E+01 0.  1.
         25    2    1    2    0    0 -0.33414876284E+02  0.48680603352E+02 -0.11726107652E+03  0.18128219737E+03  0.12500687947E+03 0.  0.
         25    2    1    2    0    0  0.33414876284E+02 -0.48680603352E+02 -0.50159967317E+02  0.14711016563E+03  0.12505608106E+03 0.  0.
          5    1    4    4  502    0  0.76615448276E+02 -0.54341933202E+01 -0.29566678088E+02  0.82436253097E+02  0.47000000000E+01 0.  1.
         -5    1    4    4    0  502 -0.43200571993E+02 -0.43246410032E+02 -0.20593289230E+02  0.64673912534E+02  0.47000000000E+01 0.  1.
          5    1    3    3  503    0 -0.77069846071E+02  0.34279247249E+02 -0.10238305136E+03  0.13273736162E+03  0.47000000000E+01 0.  1.
         -5    1    3    3    0  503  0.43654969788E+02  0.14401356103E+02 -0.14878025164E+02  0.48544835746E+02  0.47000000000E+01 0.  1.
<mgrwt>
<rscale>  0 0.13828341E+03</rscale>
<asrwt>0</asrwt>
<pdfrwt beam="1">  1        5 0.12382409E-01 0.13829454E+03</pdfrwt>
<pdfrwt beam="2">  1       -5 0.38139492E-01 0.13829454E+03</pdfrwt>
<totfact> 0.26691125E+02</totfact>
</mgrwt>
</event>
<event>
 8    1  0.1865596E-007  0.1427990E+03  0.7546771E-02  0.1209612E+00
          5   -1    0    0  501    0  0.00000000000E+00  0.00000000000E+00  0.92835744863E+03  0.92836934591E+03  0.47000000000E+01 0. -1.
         -5   -1    0    0    0  501 -0.00000000000E+00 -0.00000000000E+00 -0.21702131670E+02  0.22205236298E+02  0.47000000000E+01 0. -1.
         25    2    1    2    0    0  0.45472844987E+02 -0.51945899076E+02  0.45618099905E+03  0.47800853268E+03  0.12499958944E+03 0.  0.
         25    2    1    2    0    0 -0.45472844987E+02  0.51945899076E+02  0.45047431791E+03  0.47256604953E+03  0.12500161602E+03 0.  0.
          5    1    4    4  502    0 -0.10646399939E+02 -0.19965632136E+02  0.31022874731E+03  0.31108831215E+03  0.47000000000E+01 0. -1.
         -5    1    4    4    0  502 -0.34826445049E+02  0.71911531211E+02  0.14024557060E+03  0.16147773738E+03  0.47000000000E+01 0. -1.
          5    1    3    3  503    0 -0.23740055219E+02  0.16698614420E+02  0.35206889356E+02  0.45869913925E+02  0.47000000000E+01 0. -1.
         -5    1    3    3    0  503  0.69212900206E+02 -0.68644513496E+02  0.42097410969E+03  0.43213861875E+03  0.47000000000E+01 0. -1.
<mgrwt>
<rscale>  0 0.14279858E+03</rscale>
<asrwt>0</asrwt>
<pdfrwt beam="1">  1        5 0.14286385E+00 0.14279902E+03</pdfrwt>
<pdfrwt beam="2">  1       -5 0.33784048E-02 0.14279902E+03</pdfrwt>
<totfact> 0.11635704E+02</totfact>
</mgrwt>
</event>
<event>
 8    1  0.1865596E-007  0.1300209E+03  0.7546771E-02  0.1227426E+00
         -5   -1    0    0    0  501 -0.00000000000E+00  0.00000000000E+00  0.36572441994E+03  0.36575461903E+03  0.47000000000E+01 0.  1.
          5   -1    0    0  501    0  0.00000000000E+00 -0.00000000000E+00 -0.49209944434E+02  0.49433881409E+02  0.47000000000E+01 0.  1.
         25    2    1    2    0    0  0.35772373312E+02  0.54388905952E+00  0.21054794520E+03  0.24745885172E+03  0.12500195023E+03 0.  0.
         25    2    1    2    0    0 -0.35772373312E+02 -0.54388905952E+00  0.10596653031E+03  0.16772964871E+03  0.12499748399E+03 0.  0.
          5    1    3    3  502    0 -0.91112675867E+01  0.53856114665E+01 -0.14114577257E+02  0.18257362872E+02  0.47000000000E+01 0. -1.
         -5    1    3    3    0  502  0.44883640899E+02 -0.48417224070E+01  0.22466252245E+03  0.22920148885E+03  0.47000000000E+01 0. -1.
          5    1    4    4  503    0 -0.70532909478E+02 -0.32384985659E+02  0.87048614002E+02  0.11671859242E+03  0.47000000000E+01 0. -1.
         -5    1    4    4    0  503  0.34760536166E+02  0.31841096600E+02  0.18917916305E+02  0.51011056298E+02  0.47000000000E+01 0. -1.
<mgrwt>
<rscale>  0 0.13001987E+03</rscale>
<asrwt>0</asrwt>
<pdfrwt beam="2">  1        5 0.75903098E-02 0.13002094E+03</pdfrwt>
<pdfrwt beam="1">  1       -5 0.56284843E-01 0.13002094E+03</pdfrwt>
<totfact> 0.27115312E+02</totfact>
</mgrwt>
</event>
<event>
 8    1  0.1865596E-007  0.1321070E+03  0.7546771E-02  0.1224368E+00
          5   -1    0    0  501    0  0.00000000000E+00  0.00000000000E+00  0.60283096452E+02  0.60466037723E+02  0.47000000000E+01 0. -1.
         -5   -1    0    0    0  501 -0.00000000000E+00 -0.00000000000E+00 -0.28930459450E+03  0.28934276974E+03  0.47000000000E+01 0. -1.
         25    2    1    2    0    0  0.21554458208E+02  0.36867475671E+02 -0.10743112155E+03  0.17027535043E+03  0.12501377386E+03 0.  0.
         25    2    1    2    0    0 -0.21554458208E+02 -0.36867475671E+02 -0.12159037649E+03  0.17953345703E+03  0.12499694838E+03 0.  0.
          5    1    4    4  502    0  0.39126884287E+02  0.11068098960E+02 -0.74836134312E+01  0.41611421012E+02  0.47000000000E+01 0. -1.
         -5    1    4    4    0  502 -0.60681342495E+02 -0.47935574632E+02 -0.11410676306E+03  0.13792203602E+03  0.47000000000E+01 0. -1.
          5    1    3    3  503    0  0.30647129800E+02 -0.87850518986E+01  0.17641344934E+02  0.36738681970E+02  0.47000000000E+01 0. -1.
         -5    1    3    3    0  503 -0.90926715921E+01  0.45652527570E+02 -0.12507246649E+03  0.13353666846E+03  0.47000000000E+01 0. -1.
<mgrwt>
<rscale>  0 0.13210298E+03</rscale>
<asrwt>0</asrwt>
<pdfrwt beam="1">  1        5 0.92913317E-02 0.13210696E+03</pdfrwt>
<pdfrwt beam="2">  1       -5 0.44525407E-01 0.13210696E+03</pdfrwt>
<totfact> 0.31646666E+02</totfact>
</mgrwt>
</event>
<event>
 8    1  0.1865596E-007  0.1271953E+03  0.7546771E-02  0.1231681E+00
         -5   -1    0    0    0  501 -0.00000000000E+00  0.00000000000E+00  0.47927241359E+02  0.48157143439E+02  0.47000000000E+01 0.  1.
          5   -1    0    0  501    0  0.00000000000E+00 -0.00000000000E+00 -0.33778330918E+03  0.33781600608E+03  0.47000000000E+01 0.  1.
         25    2    1    2    0    0  0.23253780290E+02  0.41413638259E+01 -0.15686627411E+03  0.20194887512E+03  0.12497372131E+03 0.  0.
         25    2    1    2    0    0 -0.23253780290E+02 -0.41413638259E+01 -0.13298979372E+03  0.18402427440E+03  0.12498303542E+03 0.  0.
          5    1    3    3  502    0 -0.14002678454E+02  0.98298378726E+00 -0.16308450103E+03  0.16375495638E+03  0.47000000000E+01 0.  1.
         -5    1    3    3    0  502  0.37256458745E+02  0.31583800386E+01  0.62182269273E+01  0.38193918741E+02  0.47000000000E+01 0.  1.
          5    1    4    4  503    0  0.22106231788E+01 -0.40284753192E+02 -0.13351746392E+03  0.13955913215E+03  0.47000000000E+01 0. -1.
         -5    1    4    4    0  503 -0.25464403469E+02  0.36143389367E+02  0.52767020711E+00  0.44465142244E+02  0.47000000000E+01 0. -1.
<mgrwt>
<rscale>  0 0.12719303E+03</rscale>
<asrwt>0</asrwt>
<pdfrwt beam="2">  1        5 0.51986861E-01 0.12719532E+03</pdfrwt>
<pdfrwt beam="1">  1       -5 0.73936219E-02 0.12719532E+03</pdfrwt>
<totfact> 0.33356824E+02</totfact>
</mgrwt>
</event>
<event>
 8    1  0.1865596E-007  0.1503488E+03  0.7546771E-02  0.1200048E+00
         -5   -1    0    0    0  501 -0.00000000000E+00  0.00000000000E+00  0.52757011136E+03  0.52759104655E+03  0.47000000000E+01 0.  1.
          5   -1    0    0  501    0  0.00000000000E+00 -0.00000000000E+00 -0.42730055760E+02  0.42987761808E+02  0.47000000000E+01 0.  1.
         25    2    1    2    0    0 -0.81595236261E+02 -0.17909304483E+02  0.23410105979E+03  0.27821804608E+03  0.12499379665E+03 0.  0.
         25    2    1    2    0    0  0.81595236261E+02  0.17909304483E+02  0.25073899580E+03  0.29236076227E+03  0.12500498203E+03 0.  0.
          5    1    4    4  502    0 -0.17423620926E+02 -0.21540554062E+02  0.11413223778E+02  0.30330343098E+02  0.47000000000E+01 0.  1.
         -5    1    4    4    0  502  0.99018857186E+02  0.39449858545E+02  0.23932577202E+03  0.26203041917E+03  0.47000000000E+01 0.  1.
          5    1    3    3  503    0 -0.11205836671E+03 -0.20125729871E+02  0.14830172374E+03  0.18702303018E+03  0.47000000000E+01 0. -1.
         -5    1    3    3    0  503  0.30463130452E+02  0.22164253882E+01  0.85799336049E+02  0.91195015899E+02  0.47000000000E+01 0. -1.
<mgrwt>
<rscale>  0 0.15034651E+03</rscale>
<asrwt>0</asrwt>
<pdfrwt beam="2">  1        5 0.65952887E-02 0.15034883E+03</pdfrwt>
<pdfrwt beam="1">  1       -5 0.81186066E-01 0.15034883E+03</pdfrwt>
<totfact> 0.15913265E+02</totfact>
</mgrwt>
</event>
<event>
 8    1  0.1865596E-007  0.1292611E+03  0.7546771E-02  0.1228559E+00
         -5   -1    0    0    0  501 -0.00000000000E+00  0.00000000000E+00  0.54467661571E+02  0.54670066371E+02  0.47000000000E+01 0. -1.
          5   -1    0    0  501    0  0.00000000000E+00 -0.00000000000E+00 -0.44637644470E+03  0.44640118770E+03  0.47000000000E+01 0. -1.
         25    2    1    2    0    0 -0.30456913892E+02 -0.12415546364E+02 -0.55466564979E+02  0.14065232357E+03  0.12499906760E+03 0.  0.
         25    2    1    2    0    0  0.30456913892E+02  0.12415546364E+02 -0.33644221815E+03  0.36041893050E+03  0.12500667949E+03 0.  0.
          5    1    3    3  502    0 -0.46931350452E+02 -0.18935584328E+02  0.26041631900E+02  0.57108358418E+02  0.47000000000E+01 0. -1.
         -5    1    3    3    0  502  0.16474436560E+02  0.65200379643E+01 -0.81508196879E+02  0.83543965153E+02  0.47000000000E+01 0. -1.
          5    1    4    4  503    0 -0.43096264663E+02 -0.21106735295E+02 -0.11965899233E+03  0.12900832046E+03  0.47000000000E+01 0.  1.
         -5    1    4    4    0  503  0.73553178555E+02  0.33522281659E+02 -0.21678322582E+03  0.23141061005E+03  0.47000000000E+01 0.  1.
<mgrwt>
<rscale>  0 0.12925929E+03</rscale>
<asrwt>0</asrwt>
<pdfrwt beam="2">  1        5 0.68690770E-01 0.12926113E+03</pdfrwt>
<pdfrwt beam="1">  1       -5 0.83971135E-02 0.12926113E+03</pdfrwt>
<totfact> 0.14683463E+02</totfact>
</mgrwt>
</event>
<event>
 8    1  0.1865596E-007  0.1321940E+03  0.7546771E-02  0.1224236E+00
          5   -1    0    0  501    0  0.00000000000E+00  0.00000000000E+00  0.28208795273E+02  0.28597659533E+02  0.47000000000E+01 0. -1.
         -5   -1    0    0    0  501 -0.00000000000E+00 -0.00000000000E+00 -0.61865546977E+03  0.61867332274E+03  0.47000000000E+01 0. -1.
         25    2    1    2    0    0  0.29417653242E+01  0.42905182166E+02 -0.26986713621E+03  0.30050544552E+03  0.12500297172E+03 0.  0.
         25    2    1    2    0    0 -0.29417653242E+01 -0.42905182166E+02 -0.32057953828E+03  0.34676553676E+03  0.12500235388E+03 0.  0.
          5    1    4    4  502    0 -0.55122569404E+01 -0.41228301450E+02 -0.33168820500E+03  0.33431917856E+03  0.47000000000E+01 0. -1.
         -5    1    4    4    0  502  0.25704916162E+01 -0.16768807164E+01  0.11108666717E+02  0.12446358195E+02  0.47000000000E+01 0. -1.
          5    1    3    3  503    0 -0.49388248512E+02  0.60749401252E+01 -0.19778404826E+03  0.20400177385E+03  0.47000000000E+01 0. -1.
         -5    1    3    3    0  503  0.52330013836E+02  0.36830242041E+02 -0.72083087955E+02  0.96503671671E+02  0.47000000000E+01 0. -1.
<mgrwt>
<rscale>  0 0.13219385E+03</rscale>
<asrwt>0</asrwt>
<pdfrwt beam="1">  1        5 0.43711011E-02 0.13219399E+03</pdfrwt>
<pdfrwt beam="2">  1       -5 0.95209040E-01 0.13219399E+03</pdfrwt>
<totfact> 0.20810254E+02</totfact>
</mgrwt>
</event>
<event>
 8    1  0.1865596E-007  0.1301559E+03  0.7546771E-02  0.1227225E+00
         -5   -1    0    0    0  501 -0.00000000000E+00  0.00000000000E+00  0.58035481649E+02  0.58225485230E+02  0.47000000000E+01 0.  1.
          5   -1    0    0  501    0  0.00000000000E+00 -0.00000000000E+00 -0.32515937915E+03  0.32519334533E+03  0.47000000000E+01 0.  1.
         25    2    1    2    0    0 -0.24464317587E+02  0.26780696103E+02 -0.71639457066E+02  0.14856838777E+03  0.12499858206E+03 0.  0.
         25    2    1    2    0    0  0.24464317587E+02 -0.26780696103E+02 -0.19548444044E+03  0.23485044280E+03  0.12499942204E+03 0.  0.
          5    1    3    3  502    0  0.34687938681E+02  0.25922730577E+02 -0.77533741323E+02  0.88931502258E+02  0.47000000000E+01 0. -1.
         -5    1    3    3    0  502 -0.59152256268E+02  0.85796552600E+00  0.58942842561E+01  0.59636885510E+02  0.47000000000E+01 0. -1.
          5    1    4    4  503    0  0.50094564629E+02 -0.14757815601E+02 -0.18572900818E+02  0.55626443096E+02  0.47000000000E+01 0.  1.
         -5    1    4    4    0  503 -0.25630247042E+02 -0.12022880502E+02 -0.17691153962E+03  0.17922399970E+03  0.47000000000E+01 0.  1.
<mgrwt>
<rscale>  0 0.13015572E+03</rscale>
<asrwt>0</asrwt>
<pdfrwt beam="2">  1        5 0.50041747E-01 0.13015592E+03</pdfrwt>
<pdfrwt beam="1">  1       -5 0.89457643E-02 0.13015592E+03</pdfrwt>
<totfact> 0.26307527E+02</totfact>
</mgrwt>
</event>
<event>
 8    1  0.1865596E-007  0.1315374E+03  0.7546771E-02  0.1225192E+00
         -5   -1    0    0    0  501 -0.00000000000E+00  0.00000000000E+00  0.41257104907E+03  0.41259781934E+03  0.47000000000E+01 0. -1.
          5   -1    0    0  501    0  0.00000000000E+00 -0.00000000000E+00 -0.41778718920E+02  0.42042256773E+02  0.47000000000E+01 0. -1.
         25    2    1    2    0    0  0.39558544185E+02 -0.10635765471E+02  0.18402904088E+03  0.22620494881E+03  0.12499597216E+03 0.  0.
         25    2    1    2    0    0 -0.39558544185E+02  0.10635765471E+02  0.18676328927E+03  0.22843512730E+03  0.12499633292E+03 0.  0.
          5    1    4    4  502    0  0.42794466088E+02  0.14026294524E+02  0.41859511935E+02  0.61663700872E+02  0.47000000000E+01 0.  1.
         -5    1    4    4    0  502 -0.82353010272E+02 -0.33905290527E+01  0.14490377733E+03  0.16677142643E+03  0.47000000000E+01 0.  1.
          5    1    3    3  503    0  0.61704872651E+02 -0.27941193411E+02  0.38792810797E+02  0.78199576518E+02  0.47000000000E+01 0.  1.
         -5    1    3    3    0  503 -0.22146328466E+02  0.17305427940E+02  0.14523623008E+03  0.14800537230E+03  0.47000000000E+01 0.  1.
<mgrwt>
<rscale>  0 0.13153729E+03</rscale>
<asrwt>0</asrwt>
<pdfrwt beam="2">  1        5 0.64498268E-02 0.13153738E+03</pdfrwt>
<pdfrwt beam="1">  1       -5 0.63494799E-01 0.13153738E+03</pdfrwt>
<totfact> 0.27582808E+02</totfact>
</mgrwt>
</event>
<event>
 8    1  0.1865596E-007  0.1636674E+03  0.7546771E-02  0.1184627E+00
         -5   -1    0    0    0  501 -0.00000000000E+00  0.00000000000E+00  0.38210019191E+03  0.38212909684E+03  0.47000000000E+01 0. -1.
          5   -1    0    0  501    0  0.00000000000E+00 -0.00000000000E+00 -0.70375964232E+02  0.70532732412E+02  0.47000000000E+01 0. -1.
         25    2    1    2    0    0  0.37890498883E+02  0.98607040589E+02  0.17282648498E+03  0.23800020296E+03  0.12496425226E+03 0.  0.
         25    2    1    2    0    0 -0.37890498883E+02 -0.98607040589E+02  0.13889774270E+03  0.21466162629E+03  0.12501196949E+03 0.  0.
          5    1    4    4  502    0 -0.30627035125E+02 -0.12556877878E+03  0.13342447278E+03  0.18582172484E+03  0.47000000000E+01 0.  1.
         -5    1    4    4    0  502 -0.72634637578E+01  0.26961738195E+02  0.54732699194E+01  0.28839901454E+02  0.47000000000E+01 0.  1.
          5    1    3    3  503    0  0.64867669093E+02  0.21646502718E+02  0.33033112002E+02  0.76089828900E+02  0.47000000000E+01 0.  1.
         -5    1    3    3    0  503 -0.26977170211E+02  0.76960537871E+02  0.13979337297E+03  0.16191037406E+03  0.47000000000E+01 0.  1.
<mgrwt>
<rscale>  0 0.16365833E+03</rscale>
<asrwt>0</asrwt>
<pdfrwt beam="2">  1        5 0.10841354E-01 0.16366744E+03</pdfrwt>
<pdfrwt beam="1">  1       -5 0.58798928E-01 0.16366744E+03</pdfrwt>
<totfact> 0.14339069E+02</totfact>
</mgrwt>
</event>
<event>
 8    1  0.1865596E-007  0.1807422E+03  0.7546771E-02  0.1167087E+00
          5   -1    0    0  501    0  0.00000000000E+00  0.00000000000E+00  0.57897351299E+02  0.58087806702E+02  0.47000000000E+01 0. -1.
         -5   -1    0    0    0  501 -0.00000000000E+00 -0.00000000000E+00 -0.57032923442E+03  0.57034860010E+03  0.47000000000E+01 0. -1.
         25    2    1    2    0    0  0.12962491362E+03 -0.15361394045E+02 -0.29156708204E+03  0.34304371570E+03  0.12501614654E+03 0.  0.
         25    2    1    2    0    0 -0.12962491362E+03  0.15361394045E+02 -0.22086480109E+03  0.28539269111E+03  0.12501654738E+03 0.  0.
          5    1    3    3  502    0  0.69479641890E+02 -0.38306100088E+02 -0.25865836316E+03  0.27059382250E+03  0.47000000000E+01 0. -1.
         -5    1    3    3    0  502  0.60145271728E+02  0.22944706043E+02 -0.32908718871E+02  0.72449893198E+02  0.47000000000E+01 0. -1.
          5    1    4    4  503    0 -0.91947872724E+02  0.36234225287E+02 -0.22092040929E+03  0.24206455259E+03  0.47000000000E+01 0. -1.
         -5    1    4    4    0  503 -0.37677040894E+02 -0.20872831242E+02  0.55608202824E-01  0.43328138511E+02  0.47000000000E+01 0. -1.
<mgrwt>
<rscale>  0 0.18074209E+03</rscale>
<asrwt>0</asrwt>
<pdfrwt beam="1">  1        5 0.89234253E-02 0.18074216E+03</pdfrwt>
<pdfrwt beam="2">  1       -5 0.87759096E-01 0.18074216E+03</pdfrwt>
<totfact> 0.83401026E+01</totfact>
</mgrwt>
</event>
<event>
 8    1  0.1865596E-007  0.1259674E+03  0.7546771E-02  0.1233584E+00
          5   -1    0    0  501    0  0.00000000000E+00  0.00000000000E+00  0.41974096554E+03  0.41976727856E+03  0.47000000000E+01 0. -1.
         -5   -1    0    0    0  501 -0.00000000000E+00 -0.00000000000E+00 -0.41758549946E+02  0.42022214287E+02  0.47000000000E+01 0. -1.
         25    2    1    2    0    0  0.77151113251E+01 -0.13612098462E+02  0.11649216705E+03  0.17153972894E+03  0.12494255261E+03 0.  0.
         25    2    1    2    0    0 -0.77151113251E+01  0.13612098462E+02  0.26149024854E+03  0.29024976391E+03  0.12499185253E+03 0.  0.
          5    1    4    4  502    0 -0.36289779325E+02  0.47465114624E+02  0.63529599190E+02  0.87338337304E+02  0.47000000000E+01 0. -1.
         -5    1    4    4    0  502  0.28574668000E+02 -0.33853016162E+02  0.19796064935E+03  0.20291142661E+03  0.47000000000E+01 0. -1.
          5    1    3    3  503    0 -0.49491045976E+02  0.14564821847E+02  0.19468382285E+02  0.55340812933E+02  0.47000000000E+01 0. -1.
         -5    1    3    3    0  503  0.57206157301E+02 -0.28176920309E+02  0.97023784760E+02  0.11619891600E+03  0.47000000000E+01 0. -1.
<mgrwt>
<rscale>  0 0.12595513E+03</rscale>
<asrwt>0</asrwt>
<pdfrwt beam="1">  1        5 0.64597839E-01 0.12596736E+03</pdfrwt>
<pdfrwt beam="2">  1       -5 0.64466983E-02 0.12596736E+03</pdfrwt>
<totfact> 0.26162093E+02</totfact>
</mgrwt>
</event>
<event>
 8    1  0.1865596E-007  0.1785958E+03  0.7546771E-02  0.1169169E+00
          5   -1    0    0  501    0  0.00000000000E+00  0.00000000000E+00  0.29001709014E+03  0.29005517160E+03  0.47000000000E+01 0.  1.
         -5   -1    0    0    0  501 -0.00000000000E+00 -0.00000000000E+00 -0.12664465287E+03  0.12673183539E+03  0.47000000000E+01 0.  1.
         25    2    1    2    0    0  0.75155968144E+02 -0.10307513900E+03  0.59159052903E+01  0.17869244981E+03  0.12499235919E+03 0.  0.
         25    2    1    2    0    0 -0.75155968144E+02  0.10307513900E+03  0.15745653198E+03  0.23809455718E+03  0.12499421934E+03 0.  0.
          5    1    4    4  502    0 -0.59803710743E+02  0.13198147367E+03  0.12059735908E+03  0.18857732161E+03  0.47000000000E+01 0.  1.
         -5    1    4    4    0  502 -0.15352257402E+02 -0.28906334667E+02  0.36859172897E+02  0.49517235564E+02  0.47000000000E+01 0.  1.
          5    1    3    3  503    0  0.25024659737E+02 -0.11583401124E+03  0.28621269284E+02  0.12200417538E+03  0.47000000000E+01 0.  1.
         -5    1    3    3    0  503  0.50131308407E+02  0.12758872241E+02 -0.22705363993E+02  0.56688274427E+02  0.47000000000E+01 0.  1.
<mgrwt>
<rscale>  0 0.17859547E+03</rscale>
<asrwt>0</asrwt>
<pdfrwt beam="1">  1        5 0.44627649E-01 0.17859580E+03</pdfrwt>
<pdfrwt beam="2">  1       -5 0.19493428E-01 0.17859580E+03</pdfrwt>
<totfact> 0.91575961E+01</totfact>
</mgrwt>
</event>
<event>
 8    1  0.1865596E-007  0.1250898E+03  0.7546771E-02  0.1234932E+00
          5   -1    0    0  501    0  0.00000000000E+00  0.00000000000E+00  0.15615750633E+03  0.15622822019E+03  0.47000000000E+01 0.  1.
         -5   -1    0    0    0  501 -0.00000000000E+00 -0.00000000000E+00 -0.10916786729E+03  0.10926899491E+03  0.47000000000E+01 0.  1.
         25    2    1    2    0    0 -0.29621826519E+01 -0.36000541304E+01 -0.14839626297E+02  0.12596693676E+03  0.12500287889E+03 0.  0.
         25    2    1    2    0    0  0.29621826519E+01  0.36000541304E+01  0.61829265341E+02  0.13953027834E+03  0.12499642237E+03 0.  0.
          5    1    3    3  502    0  0.48827257777E+02  0.47036849061E+01  0.29233316714E+02  0.57296619096E+02  0.47000000000E+01 0.  1.
         -5    1    3    3    0  502 -0.51789440429E+02 -0.83037390365E+01 -0.44072943011E+02  0.68670317660E+02  0.47000000000E+01 0.  1.
          5    1    4    4  503    0 -0.28617202158E+02 -0.47353934584E+02  0.33140593179E+01  0.55627442590E+02  0.47000000000E+01 0.  1.
         -5    1    4    4    0  503  0.31579384810E+02  0.50953988714E+02  0.58515206023E+02  0.83902835749E+02  0.47000000000E+01 0.  1.
<mgrwt>
<rscale>  0 0.12508817E+03</rscale>
<asrwt>0</asrwt>
<pdfrwt beam="1">  1        5 0.24037450E-01 0.12508979E+03</pdfrwt>
<pdfrwt beam="2">  1       -5 0.16808275E-01 0.12508979E+03</pdfrwt>
<totfact> 0.36765144E+02</totfact>
</mgrwt>
</event>
<event>
 8    1  0.1865596E-007  0.1283232E+03  0.7546771E-02  0.1229972E+00
         -5   -1    0    0    0  501 -0.00000000000E+00  0.00000000000E+00  0.17776303899E+03  0.17782516141E+03  0.47000000000E+01 0. -1.
          5   -1    0    0  501    0  0.00000000000E+00 -0.00000000000E+00 -0.94532859599E+02  0.94649625166E+02  0.47000000000E+01 0. -1.
         25    2    1    2    0    0 -0.11774964107E+02 -0.26480862705E+02  0.61662748011E+02  0.14236972657E+03  0.12500783448E+03 0.  0.
         25    2    1    2    0    0  0.11774964107E+02  0.26480862705E+02  0.21567431382E+02  0.13010506001E+03  0.12498914623E+03 0.  0.
          5    1    3    3  502    0  0.55430061363E+02  0.42225028094E+00  0.23358002509E+02  0.60335365079E+02  0.47000000000E+01 0.  1.
         -5    1    3    3    0  502 -0.67205025469E+02 -0.26903112986E+02  0.38304745502E+02  0.82034361488E+02  0.47000000000E+01 0.  1.
          5    1    4    4  503    0  0.78971383511E+01  0.53659853925E+01  0.73210785705E+02  0.73980184759E+02  0.47000000000E+01 0. -1.
         -5    1    4    4    0  503  0.38778257555E+01  0.21114877312E+02 -0.51643354323E+02  0.56124875254E+02  0.47000000000E+01 0. -1.
<mgrwt>
<rscale>  0 0.12831865E+03</rscale>
<asrwt>0</asrwt>
<pdfrwt beam="2">  1        5 0.14557278E-01 0.12832320E+03</pdfrwt>
<pdfrwt beam="1">  1       -5 0.27361920E-01 0.12832320E+03</pdfrwt>
<totfact> 0.37575850E+02</totfact>
</mgrwt>
</event>
<event>
 8    1  0.1865596E-007  0.1268355E+03  0.7546771E-02  0.1232230E+00
          5   -1    0    0  501    0  0.00000000000E+00  0.00000000000E+00  0.24905477359E+03  0.24909911732E+03  0.47000000000E+01 0.  1.
         -5   -1    0    0    0  501 -0.00000000000E+00 -0.00000000000E+00 -0.68520424819E+02  0.68681428476E+02  0.47000000000E+01 0.  1.
         25    2    1    2    0    0  0.15719297066E+02  0.14631354344E+02  0.51621778020E+02  0.13693337591E+03  0.12499907457E+03 0.  0.
         25    2    1    2    0    0 -0.15719297066E+02 -0.14631354344E+02  0.12891257075E+03  0.18084716988E+03  0.12500430043E+03 0.  0.
          5    1    4    4  502    0  0.30111729806E+02 -0.31536652861E+01 -0.11421547924E+02  0.32698679387E+02  0.47000000000E+01 0.  1.
         -5    1    4    4    0  502 -0.45831026872E+02 -0.11477689058E+02  0.14033411868E+03  0.14814849049E+03  0.47000000000E+01 0.  1.
          5    1    3    3  503    0  0.61821170190E+02  0.38846268851E+02  0.39949354090E+02  0.83360245798E+02  0.47000000000E+01 0.  1.
         -5    1    3    3    0  503 -0.46101873124E+02 -0.24214914507E+02  0.11672423929E+02  0.53573130117E+02  0.47000000000E+01 0.  1.
<mgrwt>
<rscale>  0 0.12683423E+03</rscale>
<asrwt>0</asrwt>
<pdfrwt beam="1">  1        5 0.38331915E-01 0.12683552E+03</pdfrwt>
<pdfrwt beam="2">  1       -5 0.10557400E-01 0.12683552E+03</pdfrwt>
<totfact> 0.33944766E+02</totfact>
</mgrwt>
</event>
<event>
 8    1  0.1865596E-007  0.1381531E+03  0.7546771E-02  0.1215845E+00
         -5   -1    0    0    0  501 -0.00000000000E+00  0.00000000000E+00  0.17310498415E+02  0.17937205897E+02  0.47000000000E+01 0.  1.
          5   -1    0    0  501    0  0.00000000000E+00 -0.00000000000E+00 -0.10911563286E+04  0.10911664508E+04  0.47000000000E+01 0.  1.
         25    2    1    2    0    0  0.58164492062E+02  0.86912492418E+01 -0.58737194252E+03  0.60340042669E+03  0.12501052002E+03 0.  0.
         25    2    1    2    0    0 -0.58164492062E+02 -0.86912492418E+01 -0.48647388767E+03  0.50570323006E+03  0.12498106879E+03 0.  0.
          5    1    3    3  502    0 -0.24353595370E+02  0.15480372300E+02 -0.36329672677E+03  0.36447131741E+03  0.47000000000E+01 0.  1.
         -5    1    3    3    0  502  0.82518087432E+02 -0.67891230585E+01 -0.22407521575E+03  0.23892910927E+03  0.47000000000E+01 0.  1.
          5    1    4    4  503    0 -0.78312228777E+02  0.37712682686E+02 -0.32225303429E+03  0.33380257596E+03  0.47000000000E+01 0. -1.
         -5    1    4    4    0  503  0.20147736714E+02 -0.46403931928E+02 -0.16422085338E+03  0.17190065409E+03  0.47000000000E+01 0. -1.
<mgrwt>
<rscale>  0 0.13814643E+03</rscale>
<asrwt>0</asrwt>
<pdfrwt beam="2">  1        5 0.16791914E+00 0.13815309E+03</pdfrwt>
<pdfrwt beam="1">  1       -5 0.27121414E-02 0.13815309E+03</pdfrwt>
<totfact> 0.10506271E+02</totfact>
</mgrwt>
</event>
<event>
 8    1  0.1865596E-007  0.1628725E+03  0.7546771E-02  0.1185493E+00
          5   -1    0    0  501    0  0.00000000000E+00  0.00000000000E+00  0.11985219525E+03  0.11994431502E+03  0.47000000000E+01 0. -1.
         -5   -1    0    0    0  501 -0.00000000000E+00 -0.00000000000E+00 -0.22502591227E+03  0.22507499016E+03  0.47000000000E+01 0. -1.
         25    2    1    2    0    0  0.78247148712E+01 -0.10411076173E+03 -0.75295554978E+02  0.17943486761E+03  0.12500869667E+03 0.  0.
         25    2    1    2    0    0 -0.78247148712E+01  0.10411076173E+03 -0.29878162043E+02  0.16558443757E+03  0.12500089810E+03 0.  0.
          5    1    3    3  502    0 -0.51818945952E+02 -0.19125484093E+02 -0.90069891604E+01  0.56162293001E+02  0.47000000000E+01 0.  1.
         -5    1    3    3    0  502  0.59643660823E+02 -0.84985277641E+02 -0.66288565818E+02  0.12327257461E+03  0.47000000000E+01 0.  1.
          5    1    4    4  503    0  0.11728382892E+02  0.12252944907E+02 -0.63366853148E+02  0.65765779111E+02  0.47000000000E+01 0. -1.
         -5    1    4    4    0  503 -0.19553097763E+02  0.91857816828E+02  0.33488691105E+02  0.99818658459E+02  0.47000000000E+01 0. -1.
<mgrwt>
<rscale>  0 0.16287100E+03</rscale>
<asrwt>0</asrwt>
<pdfrwt beam="1">  1        5 0.18449661E-01 0.16287250E+03</pdfrwt>
<pdfrwt beam="2">  1       -5 0.34630232E-01 0.16287250E+03</pdfrwt>
<totfact> 0.16596387E+02</totfact>
</mgrwt>
</event>
<event>
 8    1  0.1865596E-007  0.1579380E+03  0.7546771E-02  0.1191045E+00
         -5   -1    0    0    0  501 -0.00000000000E+00  0.00000000000E+00  0.38432133407E+03  0.38435007197E+03  0.47000000000E+01 0. -1.
          5   -1    0    0  501    0  0.00000000000E+00 -0.00000000000E+00 -0.68061636775E+02  0.68223723150E+02  0.47000000000E+01 0. -1.
         25    2    1    2    0    0  0.13892994230E+02 -0.95529859920E+02  0.20768429577E+03  0.26091516987E+03  0.12499995893E+03 0.  0.
         25    2    1    2    0    0 -0.13892994230E+02  0.95529859920E+02  0.10857540152E+03  0.19165862525E+03  0.12500176556E+03 0.  0.
          5    1    4    4  502    0 -0.52650303721E+02  0.18360224481E+02  0.85441386364E+02  0.10213458194E+03  0.47000000000E+01 0. -1.
         -5    1    4    4    0  502  0.38757309491E+02  0.77169635438E+02  0.23134015159E+02  0.89524043307E+02  0.47000000000E+01 0. -1.
          5    1    3    3  503    0  0.69160735176E+02 -0.44009229663E+02  0.10290961406E+03  0.13165294624E+03  0.47000000000E+01 0. -1.
         -5    1    3    3    0  503 -0.55267740946E+02 -0.51520630257E+02  0.10477468171E+03  0.12926222363E+03  0.47000000000E+01 0. -1.
<mgrwt>
<rscale>  0 0.15793764E+03</rscale>
<asrwt>0</asrwt>
<pdfrwt beam="2">  1        5 0.10485700E-01 0.15793800E+03</pdfrwt>
<pdfrwt beam="1">  1       -5 0.59141037E-01 0.15793800E+03</pdfrwt>
<totfact> 0.14849934E+02</totfact>
</mgrwt>
</event>
<event>
 8    1  0.1865596E-007  0.1794068E+03  0.7546771E-02  0.1168379E+00
          5   -1    0    0  501    0  0.00000000000E+00  0.00000000000E+00  0.69311938890E+02  0.69471108186E+02  0.47000000000E+01 0.  1.
         -5   -1    0    0    0  501 -0.00000000000E+00 -0.00000000000E+00 -0.54371508631E+03  0.54373539988E+03  0.47000000000E+01 0.  1.
         25    2    1    2    0    0 -0.38323103131E+02 -0.12285120177E+03 -0.35482459201E+03  0.39760077075E+03  0.12499921515E+03 0.  0.
         25    2    1    2    0    0  0.38323103131E+02  0.12285120177E+03 -0.11957855541E+03  0.21560573732E+03  0.12500290013E+03 0.  0.
          5    1    4    4  502    0  0.32120397613E+02  0.23067380653E+02 -0.10768736050E+03  0.11481498859E+03  0.47000000000E+01 0.  1.
         -5    1    4    4    0  502  0.62027055171E+01  0.99783821120E+02 -0.11891194903E+02  0.10079074873E+03  0.47000000000E+01 0.  1.
          5    1    3    3  503    0 -0.30756252265E+02 -0.54237631247E+02 -0.30745641835E+03  0.31375023009E+03  0.47000000000E+01 0.  1.
         -5    1    3    3    0  503 -0.75668508661E+01 -0.68613570526E+02 -0.47368173668E+02  0.83850540660E+02  0.47000000000E+01 0.  1.
<mgrwt>
<rscale>  0 0.17940617E+03</rscale>
<asrwt>0</asrwt>
<pdfrwt beam="1">  1        5 0.10677182E-01 0.17940681E+03</pdfrwt>
<pdfrwt beam="2">  1       -5 0.83662278E-01 0.17940681E+03</pdfrwt>
<totfact> 0.68060757E+01</totfact>
</mgrwt>
</event>
<event>
 8    1  0.1865596E-007  0.1297727E+03  0.7546771E-02  0.1227796E+00
         -5   -1    0    0    0  501 -0.00000000000E+00  0.00000000000E+00  0.23494061738E+03  0.23498762456E+03  0.47000000000E+01 0.  1.
          5   -1    0    0  501    0  0.00000000000E+00 -0.00000000000E+00 -0.87250064897E+02  0.87376563359E+02  0.47000000000E+01 0.  1.
         25    2    1    2    0    0 -0.33524439314E+02 -0.95451883135E+01  0.14215480933E+03  0.19248104222E+03  0.12500385253E+03 0.  0.
         25    2    1    2    0    0  0.33524439314E+02  0.95451883135E+01  0.55357431630E+01  0.12988314570E+03  0.12499595367E+03 0.  0.
          5    1    4    4  502    0 -0.42556085737E+02 -0.20913961717E+02  0.33664489618E+01  0.47768579700E+02  0.47000000000E+01 0.  1.
         -5    1    4    4    0  502  0.76080525050E+02  0.30459150030E+02  0.21692942012E+01  0.82114566003E+02  0.47000000000E+01 0.  1.
          5    1    3    3  503    0 -0.76409253822E+02  0.12930148701E+02  0.64921715100E+02  0.10120514763E+03  0.47000000000E+01 0.  1.
         -5    1    3    3    0  503  0.42884814509E+02 -0.22475337015E+02  0.77233094225E+02  0.91275894588E+02  0.47000000000E+01 0.  1.
<mgrwt>
<rscale>  0 0.12977083E+03</rscale>
<asrwt>0</asrwt>
<pdfrwt beam="2">  1        5 0.13436433E-01 0.12977273E+03</pdfrwt>
<pdfrwt beam="1">  1       -5 0.36158057E-01 0.12977273E+03</pdfrwt>
<totfact> 0.25137887E+02</totfact>
</mgrwt>
</event>
<event>
 8    1  0.1865596E-007  0.1663783E+03  0.7546771E-02  0.1181680E+00
          5   -1    0    0  501    0  0.00000000000E+00  0.00000000000E+00  0.28966000446E+03  0.28969813286E+03  0.47000000000E+01 0.  1.
         -5   -1    0    0    0  501 -0.00000000000E+00 -0.00000000000E+00 -0.98778498528E+02  0.98890251145E+02  0.47000000000E+01 0.  1.
         25    2    1    2    0    0 -0.22384996579E+02  0.10748277916E+03  0.59860058083E+02  0.17681905490E+03  0.12501246232E+03 0.  0.
         25    2    1    2    0    0  0.22384996579E+02 -0.10748277916E+03  0.13102144785E+03  0.21176932910E+03  0.12500397219E+03 0.  0.
          5    1    4    4  502    0  0.32479349192E+02 -0.13347297931E+03  0.11537978361E+03  0.17945620300E+03  0.47000000000E+01 0.  1.
         -5    1    4    4    0  502 -0.10094352613E+02  0.25990200146E+02  0.15641664237E+02  0.32313126101E+02  0.47000000000E+01 0.  1.
          5    1    3    3  503    0 -0.13312301928E+02  0.12873729372E+02 -0.36621170563E+02  0.41305573764E+02  0.47000000000E+01 0.  1.
         -5    1    3    3    0  503 -0.90726946500E+01  0.94609049788E+02  0.96481228646E+02  0.13551348114E+03  0.47000000000E+01 0.  1.
<mgrwt>
<rscale>  0 0.16637674E+03</rscale>
<asrwt>0</asrwt>
<pdfrwt beam="1">  1        5 0.44574606E-01 0.16637834E+03</pdfrwt>
<pdfrwt beam="2">  1       -5 0.15208222E-01 0.16637834E+03</pdfrwt>
<totfact> 0.14207755E+02</totfact>
</mgrwt>
</event>
<event>
 8    1  0.1865596E-007  0.1352282E+03  0.7546771E-02  0.1219900E+00
          5   -1    0    0  501    0  0.00000000000E+00  0.00000000000E+00  0.86251133057E+02  0.86379094425E+02  0.47000000000E+01 0.  1.
         -5   -1    0    0    0  501 -0.00000000000E+00 -0.00000000000E+00 -0.25847991376E+03  0.25852264082E+03  0.47000000000E+01 0.  1.
         25    2    1    2    0    0  0.48827357884E+02  0.16648637433E+02 -0.15945702314E+03  0.20907704146E+03  0.12500151612E+03 0.  0.
         25    2    1    2    0    0 -0.48827357884E+02 -0.16648637433E+02 -0.12771757561E+02  0.13582469378E+03  0.12499576650E+03 0.  0.
          5    1    4    4  502    0 -0.20427387414E+01 -0.61287579518E+02  0.17967269094E+02  0.64072247842E+02  0.47000000000E+01 0.  1.
         -5    1    4    4    0  502 -0.46784619143E+02  0.44638942085E+02 -0.30739026655E+02  0.71752445941E+02  0.47000000000E+01 0.  1.
          5    1    3    3  503    0  0.68545443432E+02  0.47658493118E+02 -0.14853388388E+03  0.17045296842E+03  0.47000000000E+01 0.  1.
         -5    1    3    3    0  503 -0.19718085547E+02 -0.31009855685E+02 -0.10923139258E+02  0.38624073044E+02  0.47000000000E+01 0.  1.
<mgrwt>
<rscale>  0 0.13522687E+03</rscale>
<asrwt>0</asrwt>
<pdfrwt beam="1">  1        5 0.13282535E-01 0.13522820E+03</pdfrwt>
<pdfrwt beam="2">  1       -5 0.39779270E-01 0.13522820E+03</pdfrwt>
<totfact> 0.21453815E+02</totfact>
</mgrwt>
</event>
<event>
 8    1  0.1865596E-007  0.1654155E+03  0.7546771E-02  0.1182715E+00
          5   -1    0    0  501    0  0.00000000000E+00  0.00000000000E+00  0.62467381447E+02  0.62643944199E+02  0.47000000000E+01 0. -1.
         -5   -1    0    0    0  501 -0.00000000000E+00 -0.00000000000E+00 -0.45963890004E+03  0.45966292915E+03  0.47000000000E+01 0. -1.
         25    2    1    2    0    0 -0.86833609512E+02 -0.64781271603E+02 -0.25625761967E+03  0.30500753622E+03  0.12499976248E+03 0.  0.
         25    2    1    2    0    0  0.86833609512E+02  0.64781271603E+02 -0.14091389892E+03  0.21729933712E+03  0.12500234443E+03 0.  0.
          5    1    3    3  502    0 -0.10355053164E+03 -0.84992011901E+02 -0.23645872197E+03  0.27181091201E+03  0.47000000000E+01 0.  1.
         -5    1    3    3    0  502  0.16716922132E+02  0.20210740298E+02 -0.19798897700E+02  0.33196624212E+02  0.47000000000E+01 0.  1.
          5    1    4    4  503    0 -0.30860816193E+01 -0.18575407823E+02 -0.76089265427E+02  0.78525384359E+02  0.47000000000E+01 0.  1.
         -5    1    4    4    0  503  0.89919691131E+02  0.83356679426E+02 -0.64824633494E+02  0.13877395276E+03  0.47000000000E+01 0.  1.
<mgrwt>
<rscale>  0 0.16541497E+03</rscale>
<asrwt>0</asrwt>
<pdfrwt beam="1">  1        5 0.96257968E-02 0.16541546E+03</pdfrwt>
<pdfrwt beam="2">  1       -5 0.70729105E-01 0.16541546E+03</pdfrwt>
<totfact> 0.11745814E+02</totfact>
</mgrwt>
</event>
<event>
 8    1  0.1865596E-007  0.1282616E+03  0.7546771E-02  0.1230061E+00
          5   -1    0    0  501    0  0.00000000000E+00  0.00000000000E+00  0.20336657574E+03  0.20342087928E+03  0.47000000000E+01 0. -1.
         -5   -1    0    0    0  501 -0.00000000000E+00 -0.00000000000E+00 -0.82119633673E+02  0.82254022604E+02  0.47000000000E+01 0. -1.
         25    2    1    2    0    0  0.21458763305E+01  0.28664284436E+02  0.42233749075E+02  0.13503607024E+03  0.12499921887E+03 0.  0.
         25    2    1    2    0    0 -0.21458763305E+01 -0.28664284436E+02  0.79013192989E+02  0.15063883164E+03  0.12499090745E+03 0.  0.
          5    1    4    4  502    0 -0.55302096521E+02 -0.19188350256E+02  0.76421251467E+02  0.96378484845E+02  0.47000000000E+01 0.  1.
         -5    1    4    4    0  502  0.53156220190E+02 -0.94759341793E+01  0.25919415216E+01  0.54260346795E+02  0.47000000000E+01 0.  1.
          5    1    3    3  503    0 -0.57264931157E+01  0.54092140150E+02 -0.26857543030E+02  0.60845459708E+02  0.47000000000E+01 0.  1.
         -5    1    3    3    0  503  0.78723694461E+01 -0.25427855715E+02  0.69091292105E+02  0.74190610536E+02  0.47000000000E+01 0.  1.
<mgrwt>
<rscale>  0 0.12825962E+03</rscale>
<asrwt>0</asrwt>
<pdfrwt beam="1">  1        5 0.31301680E-01 0.12826165E+03</pdfrwt>
<pdfrwt beam="2">  1       -5 0.12648305E-01 0.12826165E+03</pdfrwt>
<totfact> 0.37155981E+02</totfact>
</mgrwt>
</event>
<event>
 8    1  0.1865596E-007  0.1312168E+03  0.7546771E-02  0.1225669E+00
          5   -1    0    0  501    0  0.00000000000E+00  0.00000000000E+00  0.40892844761E+03  0.40895545633E+03  0.47000000000E+01 0.  1.
         -5   -1    0    0    0  501 -0.00000000000E+00 -0.00000000000E+00 -0.42402980621E+02  0.42662662429E+02  0.47000000000E+01 0.  1.
         25    2    1    2    0    0 -0.11496458266E+02 -0.38217371481E+02  0.15968838869E+03  0.20667032603E+03  0.12497802265E+03 0.  0.
         25    2    1    2    0    0  0.11496458266E+02  0.38217371481E+02  0.20683707830E+03  0.24494779272E+03  0.12500043267E+03 0.  0.
          5    1    4    4  502    0 -0.13626235097E+01  0.82647467331E+02  0.11148080693E+03  0.13886151704E+03  0.47000000000E+01 0. -1.
         -5    1    4    4    0  502  0.12859081776E+02 -0.44430095849E+02  0.95356271362E+02  0.10608627569E+03  0.47000000000E+01 0. -1.
          5    1    3    3  503    0  0.53529047569E+02 -0.23917691472E+02  0.45327271122E+02  0.74256760004E+02  0.47000000000E+01 0. -1.
         -5    1    3    3    0  503 -0.65025505835E+02 -0.14299680009E+02  0.11436111757E+03  0.13241356603E+03  0.47000000000E+01 0. -1.
<mgrwt>
<rscale>  0 0.13121145E+03</rscale>
<asrwt>0</asrwt>
<pdfrwt beam="1">  1        5 0.62934125E-01 0.13121678E+03</pdfrwt>
<pdfrwt beam="2">  1       -5 0.65455883E-02 0.13121678E+03</pdfrwt>
<totfact> 0.27412878E+02</totfact>
</mgrwt>
</event>
<event>
 8    1  0.1865596E-007  0.1328608E+03  0.7546771E-02  0.1223283E+00
          5   -1    0    0  501    0  0.00000000000E+00  0.00000000000E+00  0.62691550928E+03  0.62693312703E+03  0.47000000000E+01 0.  1.
         -5   -1    0    0    0  501 -0.00000000000E+00 -0.00000000000E+00 -0.32386144439E+02  0.32725408349E+02  0.47000000000E+01 0.  1.
         25    2    1    2    0    0 -0.42821915457E+02 -0.13915159897E+02  0.17574512355E+03  0.22031416928E+03  0.12499854645E+03 0.  0.
         25    2    1    2    0    0  0.42821915457E+02  0.13915159897E+02  0.41878424129E+03  0.43934436610E+03  0.12496352730E+03 0.  0.
          5    1    4    4  502    0 -0.37734807767E+02  0.32477625093E+02  0.16126545540E+03  0.16884119449E+03  0.47000000000E+01 0. -1.
         -5    1    4    4    0  502  0.80556723225E+02 -0.18562465196E+02  0.25751878589E+03  0.27050317162E+03  0.47000000000E+01 0. -1.
          5    1    3    3  503    0 -0.54893483974E+02 -0.44792487898E+02  0.42121352287E+02  0.82558826744E+02  0.47000000000E+01 0.  1.
         -5    1    3    3    0  503  0.12071568517E+02  0.30877328001E+02  0.13362377126E+03  0.13775534254E+03  0.47000000000E+01 0.  1.
<mgrwt>
<rscale>  0 0.13285253E+03</rscale>
<asrwt>0</asrwt>
<pdfrwt beam="1">  1        5 0.96475990E-01 0.13286077E+03</pdfrwt>
<pdfrwt beam="2">  1       -5 0.50099363E-02 0.13286077E+03</pdfrwt>
<totfact> 0.16116352E+02</totfact>
</mgrwt>
</event>
<event>
 8    1  0.1865596E-007  0.1413652E+03  0.7546771E-02  0.1211506E+00
         -5   -1    0    0    0  501 -0.00000000000E+00  0.00000000000E+00  0.22685295072E+03  0.22690163342E+03  0.47000000000E+01 0. -1.
          5   -1    0    0  501    0  0.00000000000E+00 -0.00000000000E+00 -0.89058348742E+02  0.89182282325E+02  0.47000000000E+01 0. -1.
         25    2    1    2    0    0  0.34185960603E+02  0.56467898830E+02  0.86366415442E+02  0.16565456781E+03  0.12499989848E+03 0.  0.
         25    2    1    2    0    0 -0.34185960603E+02 -0.56467898830E+02  0.51428186533E+02  0.15042934794E+03  0.12500730719E+03 0.  0.
          5    1    4    4  502    0 -0.98750838411E+01 -0.87255763421E+02  0.30819024091E+01  0.87992463618E+02  0.47000000000E+01 0. -1.
         -5    1    4    4    0  502 -0.24310876762E+02  0.30787864591E+02  0.48346284124E+02  0.62436884320E+02  0.47000000000E+01 0. -1.
          5    1    3    3  503    0  0.64108905514E+02  0.16384363848E+02  0.93779200709E+02  0.11486961143E+03  0.47000000000E+01 0. -1.
         -5    1    3    3    0  503 -0.29922944911E+02  0.40083534982E+02 -0.74127852668E+01  0.50784956377E+02  0.47000000000E+01 0. -1.
<mgrwt>
<rscale>  0 0.14136360E+03</rscale>
<asrwt>0</asrwt>
<pdfrwt beam="2">  1        5 0.13714563E-01 0.14136524E+03</pdfrwt>
<pdfrwt beam="1">  1       -5 0.34913732E-01 0.14136524E+03</pdfrwt>
<totfact> 0.26776241E+02</totfact>
</mgrwt>
</event>
<event>
 8    1  0.1865596E-007  0.1283691E+03  0.7546771E-02  0.1229901E+00
         -5   -1    0    0    0  501 -0.00000000000E+00  0.00000000000E+00  0.11795815780E+03  0.11805175556E+03  0.47000000000E+01 0.  1.
          5   -1    0    0  501    0  0.00000000000E+00 -0.00000000000E+00 -0.14893599622E+03  0.14901013714E+03  0.47000000000E+01 0.  1.
         25    2    1    2    0    0 -0.82100167278E+00 -0.29134098117E+02  0.18110102862E+02  0.12964027207E+03  0.12501661730E+03 0.  0.
         25    2    1    2    0    0  0.82100167278E+00  0.29134098117E+02 -0.49087941288E+02  0.13742162063E+03  0.12500242445E+03 0.  0.
          5    1    4    4  502    0  0.98336502006E+00 -0.47625036128E+02 -0.34373333335E+01  0.47989752379E+02  0.47000000000E+01 0. -1.
         -5    1    4    4    0  502 -0.16236334728E+00  0.76759134245E+02 -0.45650607954E+02  0.89431868249E+02  0.47000000000E+01 0. -1.
          5    1    3    3  503    0 -0.52577763849E+02 -0.14009045414E+02 -0.25363737972E+02  0.60216972763E+02  0.47000000000E+01 0. -1.
         -5    1    3    3    0  503  0.51756762176E+02 -0.15125052704E+02  0.43473840834E+02  0.69423299310E+02  0.47000000000E+01 0. -1.
<mgrwt>
<rscale>  0 0.12836564E+03</rscale>
<asrwt>0</asrwt>
<pdfrwt beam="2">  1        5 0.22926133E-01 0.12836909E+03</pdfrwt>
<pdfrwt beam="1">  1       -5 0.18160312E-01 0.12836909E+03</pdfrwt>
<totfact> 0.35232022E+02</totfact>
</mgrwt>
</event>
<event>
 8    1  0.1865596E-007  0.1269871E+03  0.7546771E-02  0.1232008E+00
          5   -1    0    0  501    0  0.00000000000E+00  0.00000000000E+00  0.25530445518E+03  0.25534771359E+03  0.47000000000E+01 0. -1.
         -5   -1    0    0    0  501 -0.00000000000E+00 -0.00000000000E+00 -0.67735748964E+02  0.67898613298E+02  0.47000000000E+01 0. -1.
         25    2    1    2    0    0  0.16224156559E+02 -0.15354998413E+02  0.51177337524E+02  0.13691176976E+03  0.12500685417E+03 0.  0.
         25    2    1    2    0    0 -0.16224156559E+02  0.15354998413E+02  0.13639136869E+03  0.18633455712E+03  0.12497584764E+03 0.  0.
          5    1    3    3  502    0 -0.16342813908E+02  0.49649381246E+02  0.32387478951E+02  0.61669987980E+02  0.47000000000E+01 0.  1.
         -5    1    3    3    0  502  0.32566970467E+02 -0.65004379659E+02  0.18789858572E+02  0.75241781780E+02  0.47000000000E+01 0.  1.
          5    1    4    4  503    0 -0.23840295657E+02  0.26159141137E+02 -0.11706373814E+02  0.37573788070E+02  0.47000000000E+01 0.  1.
         -5    1    4    4    0  503  0.76161390979E+01 -0.10804142724E+02  0.14809774250E+03  0.14876076905E+03  0.47000000000E+01 0.  1.
<mgrwt>
<rscale>  0 0.12697943E+03</rscale>
<asrwt>0</asrwt>
<pdfrwt beam="1">  1        5 0.39293465E-01 0.12698706E+03</pdfrwt>
<pdfrwt beam="2">  1       -5 0.10436740E-01 0.12698706E+03</pdfrwt>
<totfact> 0.32948198E+02</totfact>
</mgrwt>
</event>
<event>
 8    1  0.1865596E-007  0.1897630E+03  0.7546771E-02  0.1158676E+00
          5   -1    0    0  501    0  0.00000000000E+00  0.00000000000E+00  0.83534650604E+03  0.83535972799E+03  0.47000000000E+01 0.  1.
         -5   -1    0    0    0  501 -0.00000000000E+00 -0.00000000000E+00 -0.44708054711E+02  0.44954423097E+02  0.47000000000E+01 0.  1.
         25    2    1    2    0    0 -0.12504235431E+03 -0.68909733410E+02  0.48196310367E+03  0.51797530618E+03  0.12500337107E+03 0.  0.
         25    2    1    2    0    0  0.12504235431E+03  0.68909733410E+02  0.30867534766E+03  0.36233884491E+03  0.12499930619E+03 0.  0.
          5    1    3    3  502    0 -0.88203002286E+02 -0.52097916505E+02  0.13972596294E+03  0.17331877346E+03  0.47000000000E+01 0. -1.
         -5    1    3    3    0  502 -0.36839352027E+02 -0.16811816906E+02  0.34223714073E+03  0.34465653271E+03  0.47000000000E+01 0. -1.
          5    1    4    4  503    0  0.11608135645E+03  0.66103224708E+02  0.32006046874E+03  0.34685056044E+03  0.47000000000E+01 0. -1.
         -5    1    4    4    0  503  0.89609978674E+01  0.28065087020E+01 -0.11385121078E+02  0.15488284470E+02  0.47000000000E+01 0. -1.
<mgrwt>
<rscale>  0 0.18976230E+03</rscale>
<asrwt>0</asrwt>
<pdfrwt beam="1">  1        5 0.12853482E+00 0.18976297E+03</pdfrwt>
<pdfrwt beam="2">  1       -5 0.68981308E-02 0.18976297E+03</pdfrwt>
<totfact> 0.50933561E+01</totfact>
</mgrwt>
</event>
<event>
 8    1  0.1865596E-007  0.1481001E+03  0.7546771E-02  0.1202835E+00
          5   -1    0    0  501    0  0.00000000000E+00  0.00000000000E+00  0.27427572413E+03  0.27431599087E+03  0.47000000000E+01 0. -1.
         -5   -1    0    0    0  501 -0.00000000000E+00 -0.00000000000E+00 -0.85108033273E+02  0.85237710713E+02  0.47000000000E+01 0. -1.
         25    2    1    2    0    0  0.51886062955E+01 -0.79203503070E+02  0.49911399210E+02  0.15628427201E+03  0.12503403285E+03 0.  0.
         25    2    1    2    0    0 -0.51886062955E+01  0.79203503070E+02  0.13925629164E+03  0.20326942957E+03  0.12500411874E+03 0.  0.
          5    1    4    4  502    0 -0.19066328707E+02  0.10924281805E+03  0.12432898675E+03  0.16666524873E+03  0.47000000000E+01 0.  1.
         -5    1    4    4    0  502  0.13877722412E+02 -0.30039314983E+02  0.14927304890E+02  0.36604180844E+02  0.47000000000E+01 0.  1.
          5    1    3    3  503    0 -0.39655326734E+02 -0.27604343406E+02  0.69718771594E+02  0.84954939973E+02  0.47000000000E+01 0.  1.
         -5    1    3    3    0  503  0.44843933030E+02 -0.51599159665E+02 -0.19807372384E+02  0.71329332034E+02  0.47000000000E+01 0.  1.
<mgrwt>
<rscale>  0 0.14809374E+03</rscale>
<asrwt>0</asrwt>
<pdfrwt beam="1">  1        5 0.42209337E-01 0.14810005E+03</pdfrwt>
<pdfrwt beam="2">  1       -5 0.13106617E-01 0.14810005E+03</pdfrwt>
<totfact> 0.20051255E+02</totfact>
</mgrwt>
</event>
<event>
 8    1  0.1865596E-007  0.1250692E+03  0.7546771E-02  0.1234962E+00
          5   -1    0    0  501    0  0.00000000000E+00  0.00000000000E+00  0.34835595054E+02  0.35151225907E+02  0.47000000000E+01 0. -1.
         -5   -1    0    0    0  501 -0.00000000000E+00 -0.00000000000E+00 -0.51945473430E+03  0.51947599655E+03  0.47000000000E+01 0. -1.
         25    2    1    2    0    0 -0.37692807528E+01 -0.20688339429E+01 -0.34608165903E+03  0.36798753695E+03  0.12499530025E+03 0.  0.
         25    2    1    2    0    0  0.37692807528E+01  0.20688339429E+01 -0.13853748022E+03  0.18663968551E+03  0.12499300472E+03 0.  0.
          5    1    3    3  502    0 -0.47388603492E+02  0.34668739912E+02 -0.10688303075E+03  0.12203963918E+03  0.47000000000E+01 0. -1.
         -5    1    3    3    0  502  0.43619322739E+02 -0.36737573855E+02 -0.23919862828E+03  0.24594789777E+03  0.47000000000E+01 0. -1.
          5    1    4    4  503    0 -0.34541686832E+02  0.40798462403E+02 -0.22163124823E+02  0.58059768907E+02  0.47000000000E+01 0. -1.
         -5    1    4    4    0  503  0.38310967585E+02 -0.38729628460E+02 -0.11637435540E+03  0.12857991660E+03  0.47000000000E+01 0. -1.
<mgrwt>
<rscale>  0 0.12506866E+03</rscale>
<asrwt>0</asrwt>
<pdfrwt beam="1">  1        5 0.53852376E-02 0.12506923E+03</pdfrwt>
<pdfrwt beam="2">  1       -5 0.79942022E-01 0.12506923E+03</pdfrwt>
<totfact> 0.21790543E+02</totfact>
</mgrwt>
</event>
<event>
 8    1  0.1865596E-007  0.1317752E+03  0.7546771E-02  0.1224848E+00
          5   -1    0    0  501    0  0.00000000000E+00  0.00000000000E+00  0.17320282328E+03  0.17326658071E+03  0.47000000000E+01 0. -1.
         -5   -1    0    0    0  501 -0.00000000000E+00 -0.00000000000E+00 -0.10011362031E+03  0.10022388424E+03  0.47000000000E+01 0. -1.
         25    2    1    2    0    0 -0.13359859113E+02  0.39542236630E+02  0.36953290943E+02  0.13685853860E+03  0.12499055789E+03 0.  0.
         25    2    1    2    0    0  0.13359859113E+02 -0.39542236630E+02  0.36135912020E+02  0.13663192636E+03  0.12498161804E+03 0.  0.
          5    1    3    3  502    0 -0.40919977630E+02  0.75623457044E+02  0.25191645238E+02  0.89722131129E+02  0.47000000000E+01 0. -1.
         -5    1    3    3    0  502  0.27560118516E+02 -0.36081220414E+02  0.11761645705E+02  0.47136407467E+02  0.47000000000E+01 0. -1.
          5    1    4    4  503    0 -0.49920059596E+02 -0.15650521752E+02  0.43806634847E+02  0.68396362753E+02  0.47000000000E+01 0. -1.
         -5    1    4    4    0  503  0.63279918709E+02 -0.23891714877E+02 -0.76707228275E+01  0.68235563603E+02  0.47000000000E+01 0. -1.
<mgrwt>
<rscale>  0 0.13177312E+03</rscale>
<asrwt>0</asrwt>
<pdfrwt beam="1">  1        5 0.26659974E-01 0.13177524E+03</pdfrwt>
<pdfrwt beam="2">  1       -5 0.15415482E-01 0.13177524E+03</pdfrwt>
<totfact> 0.35973597E+02</totfact>
</mgrwt>
</event>
<event>
 8    1  0.1865596E-007  0.1451230E+03  0.7546771E-02  0.1206604E+00
          5   -1    0    0  501    0  0.00000000000E+00  0.00000000000E+00  0.39578940536E+02  0.39857026155E+02  0.47000000000E+01 0. -1.
         -5   -1    0    0    0  501 -0.00000000000E+00 -0.00000000000E+00 -0.52989348395E+03  0.52991432735E+03  0.47000000000E+01 0. -1.
         25    2    1    2    0    0 -0.53850311251E+02 -0.50339918786E+02 -0.24428205715E+03  0.28413799726E+03  0.12500685820E+03 0.  0.
         25    2    1    2    0    0  0.53850311251E+02  0.50339918786E+02 -0.24603248626E+03  0.28563335624E+03  0.12498186452E+03 0.  0.
          5    1    4    4  502    0  0.74899614375E+02 -0.74679712615E+01 -0.18051649436E+03  0.19563746462E+03  0.47000000000E+01 0. -1.
         -5    1    4    4    0  502 -0.21049303124E+02  0.57807890048E+02 -0.65515991901E+02  0.89995891620E+02  0.47000000000E+01 0. -1.
          5    1    3    3  503    0 -0.17738569400E+02 -0.79870674283E+02 -0.21179539540E+03  0.22709769036E+03  0.47000000000E+01 0.  1.
         -5    1    3    3    0  503 -0.36111741851E+02  0.29530755497E+02 -0.32486661756E+02  0.57040306905E+02  0.47000000000E+01 0.  1.
<mgrwt>
<rscale>  0 0.14511759E+03</rscale>
<asrwt>0</asrwt>
<pdfrwt beam="1">  1        5 0.61120627E-02 0.14512298E+03</pdfrwt>
<pdfrwt beam="2">  1       -5 0.81545064E-01 0.14512298E+03</pdfrwt>
<totfact> 0.17706979E+02</totfact>
</mgrwt>
</event>
<event>
 8    1  0.1865596E-007  0.1783188E+03  0.7546771E-02  0.1169440E+00
         -5   -1    0    0    0  501 -0.00000000000E+00  0.00000000000E+00  0.40988820202E+02  0.41257403960E+02  0.47000000000E+01 0.  1.
          5   -1    0    0  501    0  0.00000000000E+00 -0.00000000000E+00 -0.77895643094E+03  0.77897061003E+03  0.47000000000E+01 0.  1.
         25    2    1    2    0    0 -0.11261262430E+03  0.59088513650E+02 -0.33298701186E+03  0.37772734216E+03  0.12499815738E+03 0.  0.
         25    2    1    2    0    0  0.11261262430E+03 -0.59088513650E+02 -0.40498059888E+03  0.44250067184E+03  0.12499801403E+03 0.  0.
          5    1    4    4  502    0  0.11586537975E+03 -0.16290675389E+02 -0.18968840856E+03  0.22292140918E+03  0.47000000000E+01 0. -1.
         -5    1    4    4    0  502 -0.32527554455E+01 -0.42797838261E+02 -0.21529219032E+03  0.21957926266E+03  0.47000000000E+01 0. -1.
          5    1    3    3  503    0 -0.10059930721E+03  0.95620815747E+02 -0.24575111662E+03  0.28227515359E+03  0.47000000000E+01 0.  1.
         -5    1    3    3    0  503 -0.12013317094E+02 -0.36532302097E+02 -0.87235895235E+02  0.95452188564E+02  0.47000000000E+01 0.  1.
<mgrwt>
<rscale>  0 0.17831878E+03</rscale>
<asrwt>0</asrwt>
<pdfrwt beam="2">  1        5 0.11986119E+00 0.17831880E+03</pdfrwt>
<pdfrwt beam="1">  1       -5 0.63277239E-02 0.17831880E+03</pdfrwt>
<totfact> 0.69516272E+01</totfact>
</mgrwt>
</event>
<event>
 8    1  0.1865596E-007  0.1337405E+03  0.7546771E-02  0.1222011E+00
          5   -1    0    0  501    0  0.00000000000E+00  0.00000000000E+00  0.11243878372E+03  0.11253697208E+03  0.47000000000E+01 0.  1.
         -5   -1    0    0    0  501 -0.00000000000E+00 -0.00000000000E+00 -0.20711003433E+03  0.20716335661E+03  0.47000000000E+01 0.  1.
         25    2    1    2    0    0  0.43172048824E+01  0.47362396012E+02 -0.12445430095E+03  0.18268936638E+03  0.12499878699E+03 0.  0.
         25    2    1    2    0    0 -0.43172048824E+01 -0.47362396012E+02  0.29783050339E+02  0.13701096231E+03  0.12499255535E+03 0.  0.
          5    1    3    3  502    0  0.58156607113E+02  0.34677293916E+02 -0.32442437287E+02  0.75228368328E+02  0.47000000000E+01 0. -1.
         -5    1    3    3    0  502 -0.53839402230E+02  0.12685102097E+02 -0.92011863663E+02  0.10746099805E+03  0.47000000000E+01 0. -1.
          5    1    4    4  503    0  0.40401697163E+02 -0.71666738650E+02  0.22161593502E+02  0.85332554098E+02  0.47000000000E+01 0.  1.
         -5    1    4    4    0  503 -0.44718902045E+02  0.24304342637E+02  0.76214568366E+01  0.51678408213E+02  0.47000000000E+01 0.  1.
<mgrwt>
<rscale>  0 0.13373908E+03</rscale>
<asrwt>0</asrwt>
<pdfrwt beam="1">  1        5 0.17309929E-01 0.13374054E+03</pdfrwt>
<pdfrwt beam="2">  1       -5 0.31874737E-01 0.13374054E+03</pdfrwt>
<totfact> 0.20644987E+02</totfact>
</mgrwt>
</event>
<event>
 8    1  0.1865596E-007  0.1497323E+03  0.7546771E-02  0.1200803E+00
         -5   -1    0    0    0  501 -0.00000000000E+00  0.00000000000E+00  0.48905763925E+03  0.48908022298E+03  0.47000000000E+01 0. -1.
          5   -1    0    0  501    0  0.00000000000E+00 -0.00000000000E+00 -0.62780558710E+02  0.62956243153E+02  0.47000000000E+01 0. -1.
         25    2    1    2    0    0 -0.26714587379E+02 -0.77969416000E+02  0.35685829478E+03  0.38699820155E+03  0.12500746555E+03 0.  0.
         25    2    1    2    0    0  0.26714587379E+02  0.77969416000E+02  0.69418785764E+02  0.16503826458E+03  0.12500304776E+03 0.  0.
          5    1    3    3  502    0 -0.27350422886E+02 -0.99706028258E+02  0.17149603249E+03  0.20030555874E+03  0.47000000000E+01 0. -1.
         -5    1    3    3    0  502  0.63583550698E+00  0.21736612258E+02  0.18536226229E+03  0.18669264281E+03  0.47000000000E+01 0. -1.
          5    1    4    4  503    0 -0.43376015047E+02  0.24803482899E+02  0.57200046378E+02  0.76096167781E+02  0.47000000000E+01 0.  1.
         -5    1    4    4    0  503  0.70090602425E+02  0.53165933101E+02  0.12218739386E+02  0.88942096799E+02  0.47000000000E+01 0.  1.
<mgrwt>
<rscale>  0 0.14973139E+03</rscale>
<asrwt>0</asrwt>
<pdfrwt beam="2">  1        5 0.96737990E-02 0.14973231E+03</pdfrwt>
<pdfrwt beam="1">  1       -5 0.75254888E-01 0.14973231E+03</pdfrwt>
<totfact> 0.98052381E+01</totfact>
</mgrwt>
</event>
<event>
 8    1  0.1865596E-007  0.1735268E+03  0.7546771E-02  0.1174220E+00
          5   -1    0    0  501    0  0.00000000000E+00  0.00000000000E+00  0.37404710493E+02  0.37698837742E+02  0.47000000000E+01 0. -1.
         -5   -1    0    0    0  501 -0.00000000000E+00 -0.00000000000E+00 -0.90729001201E+03  0.90730218555E+03  0.47000000000E+01 0. -1.
         25    2    1    2    0    0 -0.12035410090E+03 -0.91054315708E+00 -0.59621738469E+03  0.62095524152E+03  0.12499721387E+03 0.  0.
         25    2    1    2    0    0  0.12035410090E+03  0.91054315708E+00 -0.27366791683E+03  0.32404578177E+03  0.12500240512E+03 0.  0.
          5    1    4    4  502    0  0.15772335920E+02 -0.38593948202E+02 -0.19354932583E+02  0.46205658025E+02  0.47000000000E+01 0.  1.
         -5    1    4    4    0  502  0.10458176498E+03  0.39504491359E+02 -0.25431298425E+03  0.27784012374E+03  0.47000000000E+01 0.  1.
          5    1    3    3  503    0 -0.74240698763E+02  0.28736314792E+02 -0.13751936185E+03  0.15896893415E+03  0.47000000000E+01 0. -1.
         -5    1    3    3    0  503 -0.46113402140E+02 -0.29646857949E+02 -0.45869802284E+03  0.46198630737E+03  0.47000000000E+01 0. -1.
<mgrwt>
<rscale>  0 0.17352584E+03</rscale>
<asrwt>0</asrwt>
<pdfrwt beam="1">  1        5 0.57781331E-02 0.17352677E+03</pdfrwt>
<pdfrwt beam="2">  1       -5 0.13960662E+00 0.17352677E+03</pdfrwt>
<totfact> 0.53951031E+01</totfact>
</mgrwt>
</event>
<event>
 8    1  0.1865596E-007  0.1410720E+03  0.7546771E-02  0.1211899E+00
         -5   -1    0    0    0  501 -0.00000000000E+00  0.00000000000E+00  0.10786311964E+03  0.10796546938E+03  0.47000000000E+01 0. -1.
          5   -1    0    0  501    0  0.00000000000E+00 -0.00000000000E+00 -0.20041220214E+03  0.20046730598E+03  0.47000000000E+01 0. -1.
         25    2    1    2    0    0 -0.19323084414E+02 -0.62436199677E+02 -0.25220192052E+01  0.14109455915E+03  0.12501861229E+03 0.  0.
         25    2    1    2    0    0  0.19323084414E+02  0.62436199677E+02 -0.90027063296E+02  0.16733821622E+03  0.12500218342E+03 0.  0.
          5    1    4    4  502    0 -0.48562372668E+02  0.16705962111E+01 -0.22047606309E+02  0.53565678142E+02  0.47000000000E+01 0. -1.
         -5    1    4    4    0  502  0.67885457082E+02  0.60765603466E+02 -0.67979456987E+02  0.11377253808E+03  0.47000000000E+01 0. -1.
          5    1    3    3  503    0  0.18410548649E+01  0.19013559099E+02  0.41557462727E+02  0.45978447352E+02  0.47000000000E+01 0.  1.
         -5    1    3    3    0  503 -0.21164139279E+02 -0.81449758776E+02 -0.44079481932E+02  0.95116111797E+02  0.47000000000E+01 0.  1.
<mgrwt>
<rscale>  0 0.14106838E+03</rscale>
<asrwt>0</asrwt>
<pdfrwt beam="2">  1        5 0.30844758E-01 0.14107202E+03</pdfrwt>
<pdfrwt beam="1">  1       -5 0.16606438E-01 0.14107202E+03</pdfrwt>
<totfact> 0.24199761E+02</totfact>
</mgrwt>
</event>
<event>
 8    1  0.1865596E-007  0.1438203E+03  0.7546771E-02  0.1208281E+00
         -5   -1    0    0    0  501 -0.00000000000E+00  0.00000000000E+00  0.18992247775E+03  0.18998062415E+03  0.47000000000E+01 0.  1.
          5   -1    0    0  501    0  0.00000000000E+00 -0.00000000000E+00 -0.13389226071E+03  0.13397472701E+03  0.47000000000E+01 0.  1.
         25    2    1    2    0    0 -0.11052047250E+02  0.70252540180E+02  0.98125976043E+02  0.17410100734E+03  0.12499954573E+03 0.  0.
         25    2    1    2    0    0  0.11052047250E+02 -0.70252540180E+02 -0.42095759007E+02  0.14985434383E+03  0.12500681696E+03 0.  0.
          5    1    4    4  502    0 -0.55402801112E+02 -0.20290079216E+02 -0.74294606470E+01  0.59652699613E+02  0.47000000000E+01 0. -1.
         -5    1    4    4    0  502  0.66454848363E+02 -0.49962460964E+02 -0.34666298360E+02  0.90201644212E+02  0.47000000000E+01 0. -1.
          5    1    3    3  503    0  0.33288445288E+02 -0.78312154586E+01 -0.75626849163E+01  0.35337412588E+02  0.47000000000E+01 0.  1.
         -5    1    3    3    0  503 -0.44340492538E+02  0.78083755639E+02  0.10568866096E+03  0.13876359475E+03  0.47000000000E+01 0.  1.
<mgrwt>
<rscale>  0 0.14381869E+03</rscale>
<asrwt>0</asrwt>
<pdfrwt beam="2">  1        5 0.20609626E-01 0.14382027E+03</pdfrwt>
<pdfrwt beam="1">  1       -5 0.29229659E-01 0.14382027E+03</pdfrwt>
<totfact> 0.18147859E+02</totfact>
</mgrwt>
</event>
<event>
 8    1  0.1865596E-007  0.1283041E+03  0.7546771E-02  0.1229995E+00
          5   -1    0    0  501    0  0.00000000000E+00  0.00000000000E+00  0.27609093825E+03  0.27613094028E+03  0.47000000000E+01 0. -1.
         -5   -1    0    0    0  501 -0.00000000000E+00 -0.00000000000E+00 -0.59908427566E+02  0.60092509461E+02  0.47000000000E+01 0. -1.
         25    2    1    2    0    0 -0.22818585197E+02  0.17747359030E+02  0.94016920787E+02  0.15906143546E+03  0.12500280907E+03 0.  0.
         25    2    1    2    0    0  0.22818585197E+02 -0.17747359030E+02  0.12216558990E+03  0.17716201428E+03  0.12500516536E+03 0.  0.
          5    1    3    3  502    0 -0.56865436580E+02  0.40431605258E+02  0.17377343643E+02  0.72058688950E+02  0.47000000000E+01 0. -1.
         -5    1    3    3    0  502  0.34046851382E+02 -0.22684246228E+02  0.76639577144E+02  0.87002746513E+02  0.47000000000E+01 0. -1.
          5    1    4    4  503    0 -0.43135819543E+02 -0.38318768795E+01  0.76922017311E+01  0.44233948225E+02  0.47000000000E+01 0.  1.
         -5    1    4    4    0  503  0.65954404740E+02 -0.13915482151E+02  0.11447338816E+03  0.13292806606E+03  0.47000000000E+01 0.  1.
<mgrwt>
<rscale>  0 0.12830355E+03</rscale>
<asrwt>0</asrwt>
<pdfrwt beam="1">  1        5 0.42492766E-01 0.12830412E+03</pdfrwt>
<pdfrwt beam="2">  1       -5 0.92339184E-02 0.12830412E+03</pdfrwt>
<totfact> 0.34862871E+02</totfact>
</mgrwt>
</event>
<event>
 8    1  0.1865596E-007  0.1944309E+03  0.7546771E-02  0.1154525E+00
          5   -1    0    0  501    0  0.00000000000E+00  0.00000000000E+00  0.45981908185E+02  0.46221487214E+02  0.47000000000E+01 0.  1.
         -5   -1    0    0    0  501 -0.00000000000E+00 -0.00000000000E+00 -0.82148525204E+03  0.82149869709E+03  0.47000000000E+01 0.  1.
         25    2    1    2    0    0 -0.95301194720E+02  0.11443604280E+03 -0.36775184254E+03  0.41598652664E+03  0.12500178818E+03 0.  0.
         25    2    1    2    0    0  0.95301194720E+02 -0.11443604280E+03 -0.40775150132E+03  0.45173365766E+03  0.12499634008E+03 0.  0.
          5    1    3    3  502    0 -0.22768055087E+02 -0.11851252940E+02 -0.71474333076E+01  0.27055726410E+02  0.47000000000E+01 0. -1.
         -5    1    3    3    0  502 -0.72533139633E+02  0.12628729574E+03 -0.36060440923E+03  0.38893080023E+03  0.47000000000E+01 0. -1.
          5    1    4    4  503    0  0.65097582470E+02 -0.54271352067E+02 -0.78433947981E+02  0.11557270047E+03  0.47000000000E+01 0.  1.
         -5    1    4    4    0  503  0.30203612250E+02 -0.60164690736E+02 -0.32931755334E+03  0.33616095719E+03  0.47000000000E+01 0.  1.
<mgrwt>
<rscale>  0 0.19443002E+03</rscale>
<asrwt>0</asrwt>
<pdfrwt beam="1">  1        5 0.70936037E-02 0.19443089E+03</pdfrwt>
<pdfrwt beam="2">  1       -5 0.12640180E+00 0.19443089E+03</pdfrwt>
<totfact> 0.51054583E+01</totfact>
</mgrwt>
</event>
<event>
 8    1  0.1865596E-007  0.1338716E+03  0.7546771E-02  0.1221824E+00
          5   -1    0    0  501    0  0.00000000000E+00  0.00000000000E+00  0.10384529090E+03  0.10395159663E+03  0.47000000000E+01 0. -1.
         -5   -1    0    0    0  501 -0.00000000000E+00 -0.00000000000E+00 -0.17281984461E+03  0.17288374329E+03  0.47000000000E+01 0. -1.
         25    2    1    2    0    0  0.43737615816E+02 -0.19549938242E+02 -0.27230491663E+02  0.13660637151E+03  0.12499848775E+03 0.  0.
         25    2    1    2    0    0 -0.43737615816E+02  0.19549938242E+02 -0.41744062050E+02  0.14022896840E+03  0.12500567083E+03 0.  0.
          5    1    4    4  502    0 -0.39656256073E+02  0.59573680204E+02 -0.62125050717E+02  0.94885478053E+02  0.47000000000E+01 0.  1.
         -5    1    4    4    0  502 -0.40813597423E+01 -0.40023741962E+02  0.20380988668E+02  0.45343490349E+02  0.47000000000E+01 0.  1.
          5    1    3    3  503    0  0.38396615922E+02  0.49376479481E+02 -0.24250704740E+02  0.67249710190E+02  0.47000000000E+01 0. -1.
         -5    1    3    3    0  503  0.53409998933E+01 -0.68926417723E+02 -0.29797869233E+01  0.69356661325E+02  0.47000000000E+01 0. -1.
<mgrwt>
<rscale>  0 0.13386989E+03</rscale>
<asrwt>0</asrwt>
<pdfrwt beam="1">  1        5 0.15989291E-01 0.13387157E+03</pdfrwt>
<pdfrwt beam="2">  1       -5 0.26600761E-01 0.13387157E+03</pdfrwt>
<totfact> 0.33996434E+02</totfact>
</mgrwt>
</event>
<event>
 8    1  0.1865596E-007  0.1570613E+03  0.7546771E-02  0.1192056E+00
         -5   -1    0    0    0  501 -0.00000000000E+00  0.00000000000E+00  0.65371201237E+02  0.65539941647E+02  0.47000000000E+01 0.  1.
          5   -1    0    0  501    0  0.00000000000E+00 -0.00000000000E+00 -0.37768001108E+03  0.37770925428E+03  0.47000000000E+01 0.  1.
         25    2    1    2    0    0  0.61587108728E+02  0.72461320332E+02 -0.14476526274E+03  0.21359926646E+03  0.12499620166E+03 0.  0.
         25    2    1    2    0    0 -0.61587108728E+02 -0.72461320332E+02 -0.16754354711E+03  0.22964992947E+03  0.12499854008E+03 0.  0.
          5    1    3    3  502    0  0.53103861691E+02  0.17458474823E+01 -0.13026669234E+03  0.14076423283E+03  0.47000000000E+01 0. -1.
         -5    1    3    3    0  502  0.84832470368E+01  0.70715472850E+02 -0.14498570397E+02  0.72835033632E+02  0.47000000000E+01 0. -1.
          5    1    4    4  503    0  0.57278715955E+00  0.14040771603E+02  0.13171212046E+02  0.19825291400E+02  0.47000000000E+01 0.  1.
         -5    1    4    4    0  503 -0.62159895888E+02 -0.86502091935E+02 -0.18071475916E+03  0.20982463807E+03  0.47000000000E+01 0.  1.
<mgrwt>
<rscale>  0 0.15706083E+03</rscale>
<asrwt>0</asrwt>
<pdfrwt beam="2">  1        5 0.58119845E-01 0.15706129E+03</pdfrwt>
<pdfrwt beam="1">  1       -5 0.10072338E-01 0.15706129E+03</pdfrwt>
<totfact> 0.16523507E+02</totfact>
</mgrwt>
</event>
<event>
 8    1  0.1865596E-007  0.1819944E+03  0.7546771E-02  0.1165889E+00
          5   -1    0    0  501    0  0.00000000000E+00  0.00000000000E+00  0.58315583208E+03  0.58317477182E+03  0.47000000000E+01 0.  1.
         -5   -1    0    0    0  501 -0.00000000000E+00 -0.00000000000E+00 -0.56686777068E+02  0.56881285977E+02  0.47000000000E+01 0.  1.
         25    2    1    2    0    0  0.50773144261E+02 -0.12214463303E+03  0.26717463609E+03  0.32327117441E+03  0.12499896991E+03 0.  0.
         25    2    1    2    0    0 -0.50773144261E+02  0.12214463303E+03  0.25929441892E+03  0.31678488339E+03  0.12498737177E+03 0.  0.
          5    1    4    4  502    0  0.24053018944E+02  0.80889913384E+02  0.72631794997E+02  0.11144143508E+03  0.47000000000E+01 0.  1.
         -5    1    4    4    0  502 -0.74826163205E+02  0.41254719649E+02  0.18666262393E+03  0.20534344831E+03  0.47000000000E+01 0.  1.
          5    1    3    3  503    0  0.51996069490E+02 -0.36746488277E+01  0.13967930990E+03  0.14916264244E+03  0.47000000000E+01 0.  1.
         -5    1    3    3    0  503 -0.12229252282E+01 -0.11846998421E+03  0.12749532619E+03  0.17410853196E+03  0.47000000000E+01 0.  1.
<mgrwt>
<rscale>  0 0.18199242E+03</rscale>
<asrwt>0</asrwt>
<pdfrwt beam="1">  1        5 0.89732698E-01 0.18199441E+03</pdfrwt>
<pdfrwt beam="2">  1       -5 0.87374620E-02 0.18199441E+03</pdfrwt>
<totfact> 0.82209205E+01</totfact>
</mgrwt>
</event>
<event>
 8    1  0.1865596E-007  0.1481412E+03  0.7546771E-02  0.1202780E+00
          5   -1    0    0  501    0  0.00000000000E+00  0.00000000000E+00  0.27707204735E+03  0.27711190776E+03  0.47000000000E+01 0.  1.
         -5   -1    0    0    0  501 -0.00000000000E+00 -0.00000000000E+00 -0.79770027400E+02  0.79908367969E+02  0.47000000000E+01 0.  1.
         25    2    1    2    0    0  0.53602918197E+02  0.58703067304E+02  0.11518130910E+03  0.18764013120E+03  0.12499104736E+03 0.  0.
         25    2    1    2    0    0 -0.53602918197E+02 -0.58703067304E+02  0.82120710850E+02  0.16938014453E+03  0.12500599690E+03 0.  0.
          5    1    3    3  502    0  0.72617098864E+02  0.49175704052E+02  0.13307996659E+03  0.15944861374E+03  0.47000000000E+01 0.  1.
         -5    1    3    3    0  502 -0.19014180666E+02  0.95273632521E+01 -0.17898657486E+02  0.28191517461E+02  0.47000000000E+01 0.  1.
          5    1    4    4  503    0 -0.13092888486E+02 -0.82488706491E+02  0.11511880161E+02  0.84441836861E+02  0.47000000000E+01 0.  1.
         -5    1    4    4    0  503 -0.40510029711E+02  0.23785639188E+02  0.70608830689E+02  0.84938307671E+02  0.47000000000E+01 0.  1.
<mgrwt>
<rscale>  0 0.14813807E+03</rscale>
<asrwt>0</asrwt>
<pdfrwt beam="1">  1        5 0.42640176E-01 0.14814122E+03</pdfrwt>
<pdfrwt beam="2">  1       -5 0.12286020E-01 0.14814122E+03</pdfrwt>
<totfact> 0.22037016E+02</totfact>
</mgrwt>
</event>
<event>
 8    1  0.1865596E-007  0.1461366E+03  0.7546771E-02  0.1205306E+00
          5   -1    0    0  501    0  0.00000000000E+00  0.00000000000E+00  0.24146709095E+03  0.24151282784E+03  0.47000000000E+01 0.  1.
         -5   -1    0    0    0  501 -0.00000000000E+00 -0.00000000000E+00 -0.90319797723E+02  0.90442002746E+02  0.47000000000E+01 0.  1.
         25    2    1    2    0    0 -0.73292309166E+02 -0.18955290481E+02  0.50897716556E+02  0.15474649627E+03  0.12499933975E+03 0.  0.
         25    2    1    2    0    0  0.73292309166E+02  0.18955290481E+02  0.10024957667E+03  0.17720833431E+03  0.12498700135E+03 0.  0.
          5    1    3    3  502    0 -0.78726168170E+02 -0.63103282070E+02  0.29920931011E+02  0.10534318144E+03  0.47000000000E+01 0.  1.
         -5    1    3    3    0  502  0.54338590044E+01  0.44147991589E+02  0.20976785545E+02  0.49403314837E+02  0.47000000000E+01 0.  1.
          5    1    4    4  503    0  0.13285882197E+02 -0.48856424464E+02  0.58131313990E+02  0.77232147085E+02  0.47000000000E+01 0. -1.
         -5    1    4    4    0  503  0.60006426969E+02  0.67811714945E+02  0.42118262681E+02  0.99976187228E+02  0.47000000000E+01 0. -1.
<mgrwt>
<rscale>  0 0.14613394E+03</rscale>
<asrwt>0</asrwt>
<pdfrwt beam="1">  1        5 0.37161702E-01 0.14613658E+03</pdfrwt>
<pdfrwt beam="2">  1       -5 0.13908272E-01 0.14613658E+03</pdfrwt>
<totfact> 0.23283568E+02</totfact>
</mgrwt>
</event>
<event>
 8    1  0.1865596E-007  0.1293041E+03  0.7546771E-02  0.1228495E+00
         -5   -1    0    0    0  501 -0.00000000000E+00  0.00000000000E+00  0.41988615071E+02  0.42250843726E+02  0.47000000000E+01 0.  1.
          5   -1    0    0  501    0  0.00000000000E+00 -0.00000000000E+00 -0.39928980874E+03  0.39931746939E+03  0.47000000000E+01 0.  1.
         25    2    1    2    0    0 -0.62136487339E+01  0.32488971461E+02 -0.19658373014E+03  0.23529707658E+03  0.12500163437E+03 0.  0.
         25    2    1    2    0    0  0.62136487339E+01 -0.32488971461E+02 -0.16071746353E+03  0.20627123654E+03  0.12499430884E+03 0.  0.
          5    1    4    4  502    0 -0.26133770379E+02 -0.18663849233E+02 -0.16709007676E+03  0.17021309284E+03  0.47000000000E+01 0. -1.
         -5    1    4    4    0  502  0.32347419113E+02 -0.13825122228E+02  0.63726132264E+01  0.36058143702E+02  0.47000000000E+01 0. -1.
          5    1    3    3  503    0 -0.26644200375E+02  0.70572145246E+02 -0.76292832561E+02  0.10739193358E+03  0.47000000000E+01 0. -1.
         -5    1    3    3    0  503  0.20430551641E+02 -0.38083173785E+02 -0.12029089757E+03  0.12790514300E+03  0.47000000000E+01 0. -1.
<mgrwt>
<rscale>  0 0.12930233E+03</rscale>
<asrwt>0</asrwt>
<pdfrwt beam="2">  1        5 0.61451498E-01 0.12930410E+03</pdfrwt>
<pdfrwt beam="1">  1       -5 0.64820864E-02 0.12930410E+03</pdfrwt>
<totfact> 0.29213467E+02</totfact>
</mgrwt>
</event>
<event>
 8    1  0.1865596E-007  0.1415509E+03  0.7546771E-02  0.1211257E+00
          5   -1    0    0  501    0  0.00000000000E+00  0.00000000000E+00  0.21100148674E+03  0.21105382585E+03  0.47000000000E+01 0.  1.
         -5   -1    0    0    0  501 -0.00000000000E+00 -0.00000000000E+00 -0.14643721206E+03  0.14651261746E+03  0.47000000000E+01 0.  1.
         25    2    1    2    0    0  0.17057380894E+02  0.64163505981E+02 -0.73791465574E+02  0.15962965294E+03  0.12501414305E+03 0.  0.
         25    2    1    2    0    0 -0.17057380894E+02 -0.64163505981E+02  0.13835574025E+03  0.19793679037E+03  0.12501500861E+03 0.  0.
          5    1    3    3  502    0  0.44380492372E+02  0.90124858450E+02 -0.67521352742E+02  0.12113356797E+03  0.47000000000E+01 0. -1.
         -5    1    3    3    0  502 -0.27323111478E+02 -0.25961352468E+02 -0.62701128316E+01  0.38496084966E+02  0.47000000000E+01 0. -1.
          5    1    4    4  503    0 -0.55029628945E+02  0.11504960023E+02  0.62092017491E+02  0.83893580226E+02  0.47000000000E+01 0.  1.
         -5    1    4    4    0  503  0.37972248052E+02 -0.75668466005E+02  0.76263722763E+02  0.11404321014E+03  0.47000000000E+01 0.  1.
<mgrwt>
<rscale>  0 0.14155073E+03</rscale>
<asrwt>0</asrwt>
<pdfrwt beam="1">  1        5 0.32471594E-01 0.14155092E+03</pdfrwt>
<pdfrwt beam="2">  1       -5 0.22538628E-01 0.14155092E+03</pdfrwt>
<totfact> 0.12397791E+02</totfact>
</mgrwt>
</event>
<event>
 8    1  0.1865596E-007  0.1435016E+03  0.7546771E-02  0.1208697E+00
          5   -1    0    0  501    0  0.00000000000E+00  0.00000000000E+00  0.93553412317E+02  0.93671398816E+02  0.47000000000E+01 0. -1.
         -5   -1    0    0    0  501 -0.00000000000E+00 -0.00000000000E+00 -0.22482368285E+03  0.22487280487E+03  0.47000000000E+01 0. -1.
         25    2    1    2    0    0 -0.28426461465E+02  0.64473621979E+02 -0.89396776583E+02  0.16906949019E+03  0.12501118833E+03 0.  0.
         25    2    1    2    0    0  0.28426461465E+02 -0.64473621979E+02 -0.41873493952E+02  0.14947471350E+03  0.12499755533E+03 0.  0.
          5    1    3    3  502    0  0.46355964480E+02  0.28507188850E+02 -0.59426056468E+02  0.80716054453E+02  0.47000000000E+01 0.  1.
         -5    1    3    3    0  502 -0.74782425944E+02  0.35966433128E+02 -0.29970720114E+02  0.88353435736E+02  0.47000000000E+01 0.  1.
          5    1    4    4  503    0  0.11572892969E+02  0.30464378231E+02 -0.41451456312E+02  0.52936975954E+02  0.47000000000E+01 0. -1.
         -5    1    4    4    0  503  0.16853568495E+02 -0.94938000209E+02 -0.42203763987E+00  0.96537737546E+02  0.47000000000E+01 0. -1.
<mgrwt>
<rscale>  0 0.14349863E+03</rscale>
<asrwt>0</asrwt>
<pdfrwt beam="1">  1        5 0.14405687E-01 0.14350160E+03</pdfrwt>
<pdfrwt beam="2">  1       -5 0.34601113E-01 0.14350160E+03</pdfrwt>
<totfact> 0.25080707E+02</totfact>
</mgrwt>
</event>
<event>
 8    1  0.1865596E-007  0.1354915E+03  0.7546771E-02  0.1219529E+00
          5   -1    0    0  501    0  0.00000000000E+00  0.00000000000E+00  0.14297852042E+03  0.14305574893E+03  0.47000000000E+01 0.  1.
         -5   -1    0    0    0  501 -0.00000000000E+00 -0.00000000000E+00 -0.12849226817E+03  0.12857819791E+03  0.47000000000E+01 0.  1.
         25    2    1    2    0    0  0.25230165690E+02  0.45803443572E+02  0.13302433774E+02  0.13613722747E+03  0.12498749240E+03 0.  0.
         25    2    1    2    0    0 -0.25230165690E+02 -0.45803443572E+02  0.11838184764E+01  0.13549671937E+03  0.12499377116E+03 0.  0.
          5    1    4    4  502    0 -0.22996107778E+02  0.28946035734E+02  0.36939870773E+02  0.52472259436E+02  0.47000000000E+01 0.  1.
         -5    1    4    4    0  502 -0.22340579118E+01 -0.74749479306E+02 -0.35756052296E+02  0.83024459932E+02  0.47000000000E+01 0.  1.
          5    1    3    3  503    0  0.19552305863E+02  0.48399019288E+02 -0.49951954966E+02  0.72401971918E+02  0.47000000000E+01 0. -1.
         -5    1    3    3    0  503  0.56778598261E+01 -0.25955757163E+01  0.63254388740E+02  0.63735255553E+02  0.47000000000E+01 0. -1.
<mgrwt>
<rscale>  0 0.13549010E+03</rscale>
<asrwt>0</asrwt>
<pdfrwt beam="1">  1        5 0.22009246E-01 0.13549155E+03</pdfrwt>
<pdfrwt beam="2">  1       -5 0.19780592E-01 0.13549155E+03</pdfrwt>
<totfact> 0.33116713E+02</totfact>
</mgrwt>
</event>
<event>
 8    1  0.1865596E-007  0.1513571E+03  0.7546771E-02  0.1198821E+00
          5   -1    0    0  501    0  0.00000000000E+00  0.00000000000E+00  0.56756354715E+02  0.56950625989E+02  0.47000000000E+01 0. -1.
         -5   -1    0    0    0  501 -0.00000000000E+00 -0.00000000000E+00 -0.43402704885E+03  0.43405249582E+03  0.47000000000E+01 0. -1.
         25    2    1    2    0    0 -0.81274931231E+02 -0.25971337910E+02 -0.25457449314E+03  0.29616130833E+03  0.12499289240E+03 0.  0.
         25    2    1    2    0    0  0.81274931231E+02  0.25971337910E+02 -0.12269620099E+03  0.19484181349E+03  0.12501539788E+03 0.  0.
          5    1    4    4  502    0  0.26907247816E+02  0.64030867290E+02 -0.19914594997E+02  0.72406029065E+02  0.47000000000E+01 0.  1.
         -5    1    4    4    0  502  0.54367683415E+02 -0.38059529381E+02 -0.10278160599E+03  0.12243578442E+03  0.47000000000E+01 0.  1.
          5    1    3    3  503    0 -0.30374719283E+02  0.50028954072E+00 -0.23247800266E+03  0.23450156840E+03  0.47000000000E+01 0.  1.
         -5    1    3    3    0  503 -0.50900211948E+02 -0.26471627450E+02 -0.22096490483E+02  0.61659739927E+02  0.47000000000E+01 0.  1.
<mgrwt>
<rscale>  0 0.15135246E+03</rscale>
<asrwt>0</asrwt>
<pdfrwt beam="1">  1        5 0.87486486E-02 0.15135711E+03</pdfrwt>
<pdfrwt beam="2">  1       -5 0.66790291E-01 0.15135711E+03</pdfrwt>
<totfact> 0.15345987E+02</totfact>
</mgrwt>
</event>
<event>
 8    1  0.1865596E-007  0.1268143E+03  0.7546771E-02  0.1232283E+00
          5   -1    0    0  501    0  0.00000000000E+00  0.00000000000E+00  0.96685220123E+02  0.96799389411E+02  0.47000000000E+01 0.  1.
         -5   -1    0    0    0  501 -0.00000000000E+00 -0.00000000000E+00 -0.16707953449E+03  0.16714562765E+03  0.47000000000E+01 0.  1.
         25    2    1    2    0    0 -0.19771314528E+02 -0.81551687241E+01 -0.45742653249E+02  0.13475688914E+03  0.12493845361E+03 0.  0.
         25    2    1    2    0    0  0.19771314528E+02  0.81551687241E+01 -0.24651661113E+02  0.12918812792E+03  0.12499782536E+03 0.  0.
          5    1    3    3  502    0  0.20450804175E+02 -0.57102935035E+02 -0.93713270666E+01  0.61553979173E+02  0.47000000000E+01 0. -1.
         -5    1    3    3    0  502 -0.40222118703E+02  0.48947766311E+02 -0.36371326183E+02  0.73202909970E+02  0.47000000000E+01 0. -1.
          5    1    4    4  503    0  0.60270529568E+02  0.37874404880E+02 -0.32029726200E+02  0.78198469550E+02  0.47000000000E+01 0.  1.
         -5    1    4    4    0  503 -0.40499215040E+02 -0.29719236156E+02  0.73780650872E+01  0.50989658373E+02  0.47000000000E+01 0.  1.
<mgrwt>
<rscale>  0 0.12679967E+03</rscale>
<asrwt>0</asrwt>
<pdfrwt beam="1">  1        5 0.14888516E-01 0.12681431E+03</pdfrwt>
<pdfrwt beam="2">  1       -5 0.25718410E-01 0.12681431E+03</pdfrwt>
<totfact> 0.40479145E+02</totfact>
</mgrwt>
</event>
<event>
 8    1  0.1865596E-007  0.1269907E+03  0.7546771E-02  0.1231991E+00
         -5   -1    0    0    0  501 -0.00000000000E+00  0.00000000000E+00  0.60494617568E+03  0.60496443323E+03  0.47000000000E+01 0. -1.
          5   -1    0    0  501    0  0.00000000000E+00 -0.00000000000E+00 -0.26437222890E+02  0.26851755141E+02  0.47000000000E+01 0. -1.
         25    2    1    2    0    0  0.67759340051E+01  0.21377242999E+02  0.28479786477E+03  0.31182739330E+03  0.12499439841E+03 0.  0.
         25    2    1    2    0    0 -0.67759340051E+01 -0.21377242999E+02  0.29371108802E+03  0.31998879506E+03  0.12499490367E+03 0.  0.
          5    1    4    4  502    0 -0.41694080832E+02  0.48571331650E+01  0.26304890746E+03  0.26641847878E+03  0.47000000000E+01 0. -1.
         -5    1    4    4    0  502  0.34918146827E+02 -0.26234376164E+02  0.30662180555E+02  0.53570316286E+02  0.47000000000E+01 0. -1.
          5    1    3    3  503    0 -0.54766331877E+02  0.44071886265E+01  0.18685177059E+03  0.19481901497E+03  0.47000000000E+01 0.  1.
         -5    1    3    3    0  503  0.61542265882E+02  0.16970054372E+02  0.97946094180E+02  0.11700837833E+03  0.47000000000E+01 0.  1.
<mgrwt>
<rscale>  0 0.12699053E+03</rscale>
<asrwt>0</asrwt>
<pdfrwt beam="2">  1        5 0.41005568E-02 0.12699065E+03</pdfrwt>
<pdfrwt beam="1">  1       -5 0.93101928E-01 0.12699065E+03</pdfrwt>
<totfact> 0.24041543E+02</totfact>
</mgrwt>
</event>
<event>
 8    1  0.1865596E-007  0.1344071E+03  0.7546771E-02  0.1221062E+00
         -5   -1    0    0    0  501 -0.00000000000E+00  0.00000000000E+00  0.45156234315E+03  0.45158680201E+03  0.47000000000E+01 0. -1.
          5   -1    0    0  501    0  0.00000000000E+00 -0.00000000000E+00 -0.41868079023E+02  0.42131057915E+02  0.47000000000E+01 0. -1.
         25    2    1    2    0    0  0.43811696578E+02 -0.22766561246E+02  0.25898116497E+03  0.29177800239E+03  0.12500151119E+03 0.  0.
         25    2    1    2    0    0 -0.43811696578E+02  0.22766561246E+02  0.15071309915E+03  0.20193985753E+03  0.12500994655E+03 0.  0.
          5    1    4    4  502    0 -0.81728647105E+02  0.33703266288E+02  0.73360466385E+02  0.11497534494E+03  0.47000000000E+01 0.  1.
         -5    1    4    4    0  502  0.37916950526E+02 -0.10936705042E+02  0.77352632768E+02  0.86964512593E+02  0.47000000000E+01 0.  1.
          5    1    3    3  503    0  0.25264594966E+02  0.24448164501E+02  0.23089708556E+03  0.23360557918E+03  0.47000000000E+01 0.  1.
         -5    1    3    3    0  503  0.18547101612E+02 -0.47214725747E+02  0.28084079418E+02  0.58172423211E+02  0.47000000000E+01 0.  1.
<mgrwt>
<rscale>  0 0.13440514E+03</rscale>
<asrwt>0</asrwt>
<pdfrwt beam="2">  1        5 0.64633534E-02 0.13440710E+03</pdfrwt>
<pdfrwt beam="1">  1       -5 0.69493241E-01 0.13440710E+03</pdfrwt>
<totfact> 0.22644894E+02</totfact>
</mgrwt>
</event>
<event>
 8    1  0.1865596E-007  0.1271671E+03  0.7546771E-02  0.1231724E+00
          5   -1    0    0  501    0  0.00000000000E+00  0.00000000000E+00  0.51947585704E+02  0.52159770518E+02  0.47000000000E+01 0. -1.
         -5   -1    0    0    0  501 -0.00000000000E+00 -0.00000000000E+00 -0.36409394136E+03  0.36412427567E+03  0.47000000000E+01 0. -1.
         25    2    1    2    0    0  0.22814882482E+02  0.48847514448E+01 -0.23596691488E+03  0.26805198637E+03  0.12500841100E+03 0.  0.
         25    2    1    2    0    0 -0.22814882482E+02 -0.48847514448E+01 -0.76179440774E+02  0.14823205982E+03  0.12500022681E+03 0.  0.
          5    1    4    4  502    0 -0.31669142932E+02 -0.55774423958E+02 -0.71480063051E+02  0.96152017117E+02  0.47000000000E+01 0. -1.
         -5    1    4    4    0  502  0.88542604500E+01  0.50889672514E+02 -0.46993777229E+01  0.52080042700E+02  0.47000000000E+01 0. -1.
          5    1    3    3  503    0  0.28607418200E+02  0.62410551267E+02 -0.13780494454E+03  0.15403166566E+03  0.47000000000E+01 0. -1.
         -5    1    3    3    0  503 -0.57925357178E+01 -0.57525799822E+02 -0.98161970341E+02  0.11402032072E+03  0.47000000000E+01 0. -1.
<mgrwt>
<rscale>  0 0.12716513E+03</rscale>
<asrwt>0</asrwt>
<pdfrwt beam="1">  1        5 0.80105918E-02 0.12716714E+03</pdfrwt>
<pdfrwt beam="2">  1       -5 0.56033106E-01 0.12716714E+03</pdfrwt>
<totfact> 0.24770494E+02</totfact>
</mgrwt>
</event>
<event>
 8    1  0.1865596E-007  0.1300032E+03  0.7546771E-02  0.1227451E+00
          5   -1    0    0  501    0  0.00000000000E+00  0.00000000000E+00  0.77044869729E+02  0.77188094623E+02  0.47000000000E+01 0.  1.
         -5   -1    0    0    0  501 -0.00000000000E+00 -0.00000000000E+00 -0.25008264979E+03  0.25012681129E+03  0.47000000000E+01 0.  1.
         25    2    1    2    0    0  0.30674918567E+02  0.18293648178E+02 -0.14420306485E+03  0.19415228487E+03  0.12499991046E+03 0.  0.
         25    2    1    2    0    0 -0.30674918567E+02 -0.18293648178E+02 -0.28834715211E+02  0.13316262105E+03  0.12500093860E+03 0.  0.
          5    1    3    3  502    0 -0.28735341510E+02  0.53408047034E+02 -0.67906379558E+02  0.91167459789E+02  0.47000000000E+01 0. -1.
         -5    1    3    3    0  502  0.59410260077E+02 -0.35114398857E+02 -0.76296685295E+02  0.10298482508E+03  0.47000000000E+01 0. -1.
          5    1    4    4  503    0 -0.34137007176E+02  0.32382822301E+01  0.44576986252E+02  0.56435976416E+02  0.47000000000E+01 0.  1.
         -5    1    4    4    0  503  0.34620886087E+01 -0.21531930408E+02 -0.73411701463E+02  0.76726644631E+02  0.47000000000E+01 0.  1.
<mgrwt>
<rscale>  0 0.13000299E+03</rscale>
<asrwt>0</asrwt>
<pdfrwt beam="1">  1        5 0.11867471E-01 0.13000324E+03</pdfrwt>
<pdfrwt beam="2">  1       -5 0.38488668E-01 0.13000324E+03</pdfrwt>
<totfact> 0.27650499E+02</totfact>
</mgrwt>
</event>
<event>
 8    1  0.1865596E-007  0.1361422E+03  0.7546771E-02  0.1218618E+00
         -5   -1    0    0    0  501 -0.00000000000E+00  0.00000000000E+00  0.19463261250E+03  0.19468935217E+03  0.47000000000E+01 0.  1.
          5   -1    0    0  501    0  0.00000000000E+00 -0.00000000000E+00 -0.99387516454E+02  0.99498585049E+02  0.47000000000E+01 0.  1.
         25    2    1    2    0    0 -0.88465560980E+01  0.53207875627E+02  0.78157292920E+02  0.15697755298E+03  0.12499620042E+03 0.  0.
         25    2    1    2    0    0  0.88465560980E+01 -0.53207875627E+02  0.17087803124E+02  0.13721038424E+03  0.12500142777E+03 0.  0.
          5    1    4    4  502    0  0.39354977854E+02 -0.69518758289E+02 -0.23759159344E+02  0.83476102500E+02  0.47000000000E+01 0. -1.
         -5    1    4    4    0  502 -0.30508421756E+02  0.16310882662E+02  0.40846962468E+02  0.53734281740E+02  0.47000000000E+01 0. -1.
          5    1    3    3  503    0 -0.35628362157E+02 -0.15115971011E+02  0.73615273093E+02  0.83301687871E+02  0.47000000000E+01 0.  1.
         -5    1    3    3    0  503  0.26781806059E+02  0.68323846638E+02  0.45420198278E+01  0.73675865107E+02  0.47000000000E+01 0.  1.
<mgrwt>
<rscale>  0 0.13614099E+03</rscale>
<asrwt>0</asrwt>
<pdfrwt beam="2">  1        5 0.15303296E-01 0.13614219E+03</pdfrwt>
<pdfrwt beam="1">  1       -5 0.29956387E-01 0.13614219E+03</pdfrwt>
<totfact> 0.29387552E+02</totfact>
</mgrwt>
</event>
<event>
 8    1  0.1865596E-007  0.1265932E+03  0.7546771E-02  0.1232601E+00
         -5   -1    0    0    0  501 -0.00000000000E+00  0.00000000000E+00  0.10086252248E+03  0.10097196859E+03  0.47000000000E+01 0. -1.
          5   -1    0    0  501    0  0.00000000000E+00 -0.00000000000E+00 -0.17824835534E+03  0.17831030868E+03  0.47000000000E+01 0. -1.
         25    2    1    2    0    0 -0.13814893661E+02 -0.14469909374E+02  0.75804309276E+01  0.12681992814E+03  0.12500240668E+03 0.  0.
         25    2    1    2    0    0  0.13814893661E+02  0.14469909374E+02 -0.84966263786E+02  0.15246234913E+03  0.12500108942E+03 0.  0.
          5    1    3    3  502    0  0.22141319877E+02  0.90610076199E+01 -0.49523313383E+02  0.55199533272E+02  0.47000000000E+01 0. -1.
         -5    1    3    3    0  502 -0.35956213538E+02 -0.23530916994E+02  0.57103744311E+02  0.71620394867E+02  0.47000000000E+01 0. -1.
          5    1    4    4  503    0 -0.26072131320E+02  0.10211007439E+02 -0.10400573860E+03  0.10781142967E+03  0.47000000000E+01 0. -1.
         -5    1    4    4    0  503  0.39887024981E+02  0.42589019346E+01  0.19039474819E+02  0.44650919463E+02  0.47000000000E+01 0. -1.
<mgrwt>
<rscale>  0 0.12659285E+03</rscale>
<asrwt>0</asrwt>
<pdfrwt beam="2">  1        5 0.27436008E-01 0.12659317E+03</pdfrwt>
<pdfrwt beam="1">  1       -5 0.15530496E-01 0.12659317E+03</pdfrwt>
<totfact> 0.33085831E+02</totfact>
</mgrwt>
</event>
<event>
 8    1  0.1865596E-007  0.1781867E+03  0.7546771E-02  0.1169570E+00
          5   -1    0    0  501    0  0.00000000000E+00  0.00000000000E+00  0.70640485516E+02  0.70796667958E+02  0.47000000000E+01 0.  1.
         -5   -1    0    0    0  501 -0.00000000000E+00 -0.00000000000E+00 -0.45016547424E+03  0.45019000900E+03  0.47000000000E+01 0.  1.
         25    2    1    2    0    0  0.10078891564E+03 -0.77238459901E+02 -0.20412969236E+03  0.27096019931E+03  0.12500525229E+03 0.  0.
         25    2    1    2    0    0 -0.10078891564E+03  0.77238459901E+02 -0.17539529636E+03  0.25002647765E+03  0.12500217732E+03 0.  0.
          5    1    4    4  502    0  0.27722059699E+01  0.52907632258E+02 -0.11713647995E+03  0.12864659969E+03  0.47000000000E+01 0.  1.
         -5    1    4    4    0  502 -0.10356112161E+03  0.24330827643E+02 -0.58258816417E+02  0.12137987796E+03  0.47000000000E+01 0.  1.
          5    1    3    3  503    0  0.11132980609E+03 -0.15839862061E+02 -0.15463038865E+03  0.19125342885E+03  0.47000000000E+01 0. -1.
         -5    1    3    3    0  503 -0.10540890446E+02 -0.61398597841E+02 -0.49499303718E+02  0.79706770457E+02  0.47000000000E+01 0. -1.
<mgrwt>
<rscale>  0 0.17818616E+03</rscale>
<asrwt>0</asrwt>
<pdfrwt beam="1">  1        5 0.10881669E-01 0.17818670E+03</pdfrwt>
<pdfrwt beam="2">  1       -5 0.69270126E-01 0.17818670E+03</pdfrwt>
<totfact> 0.10146975E+02</totfact>
</mgrwt>
</event>
<event>
 8    1  0.1865596E-007  0.1447560E+03  0.7546771E-02  0.1207094E+00
         -5   -1    0    0    0  501 -0.00000000000E+00  0.00000000000E+00  0.28287172445E+03  0.28291076772E+03  0.47000000000E+01 0. -1.
          5   -1    0    0  501    0  0.00000000000E+00 -0.00000000000E+00 -0.74007891868E+02  0.74156982536E+02  0.47000000000E+01 0. -1.
         25    2    1    2    0    0 -0.62186484475E+02 -0.38233417396E+02  0.98249232686E+02  0.17494920402E+03  0.12500143681E+03 0.  0.
         25    2    1    2    0    0  0.62186484475E+02  0.38233417396E+02  0.11061459989E+03  0.18211854624E+03  0.12491045640E+03 0.  0.
          5    1    4    4  502    0  0.34789407637E+02  0.16195104851E+02  0.13410884759E+03  0.13957025939E+03  0.47000000000E+01 0. -1.
         -5    1    4    4    0  502  0.27397076838E+02  0.22038312545E+02 -0.23494247695E+02  0.42548286850E+02  0.47000000000E+01 0. -1.
          5    1    3    3  503    0 -0.38172687913E+02 -0.80830059095E+02  0.38090131623E+02  0.97281039688E+02  0.47000000000E+01 0. -1.
         -5    1    3    3    0  503 -0.24013796562E+02  0.42596641699E+02  0.60159101063E+02  0.77668164328E+02  0.47000000000E+01 0. -1.
<mgrwt>
<rscale>  0 0.14473640E+03</rscale>
<asrwt>0</asrwt>
<pdfrwt beam="2">  1        5 0.11400301E-01 0.14475604E+03</pdfrwt>
<pdfrwt beam="1">  1       -5 0.43533199E-01 0.14475604E+03</pdfrwt>
<totfact> 0.23919356E+02</totfact>
</mgrwt>
</event>
<event>
 8    1  0.1865596E-007  0.1539200E+03  0.7546771E-02  0.1195738E+00
         -5   -1    0    0    0  501 -0.00000000000E+00  0.00000000000E+00  0.17161253577E+03  0.17167688380E+03  0.47000000000E+01 0.  1.
          5   -1    0    0  501    0  0.00000000000E+00 -0.00000000000E+00 -0.20671152015E+03  0.20676494520E+03  0.47000000000E+01 0.  1.
         25    2    1    2    0    0  0.75844376885E+02  0.48105608785E+02  0.91574732586E+02  0.17910135196E+03  0.12499937410E+03 0.  0.
         25    2    1    2    0    0 -0.75844376885E+02 -0.48105608785E+02 -0.12667371696E+03  0.19934047704E+03  0.12499550437E+03 0.  0.
          5    1    4    4  502    0 -0.47782056466E+02 -0.73985932479E+02 -0.13376903501E+03  0.16022886086E+03  0.47000000000E+01 0. -1.
         -5    1    4    4    0  502 -0.28062320419E+02  0.25880323694E+02  0.70953180444E+01  0.39111616177E+02  0.47000000000E+01 0. -1.
          5    1    3    3  503    0  0.99466503864E+02  0.69719493400E+02  0.72409110632E+02  0.14149050305E+03  0.47000000000E+01 0. -1.
         -5    1    3    3    0  503 -0.23622126979E+02 -0.21613884615E+02  0.19165621954E+02  0.37610848914E+02  0.47000000000E+01 0. -1.
<mgrwt>
<rscale>  0 0.15391920E+03</rscale>
<asrwt>0</asrwt>
<pdfrwt beam="2">  1        5 0.31810832E-01 0.15391999E+03</pdfrwt>
<pdfrwt beam="1">  1       -5 0.26410988E-01 0.15391999E+03</pdfrwt>
<totfact> 0.97943501E+01</totfact>
</mgrwt>
</event>
<event>
 8    1  0.1865596E-007  0.1499122E+03  0.7546771E-02  0.1200582E+00
          5   -1    0    0  501    0  0.00000000000E+00  0.00000000000E+00  0.15390555933E+03  0.15397730739E+03  0.47000000000E+01 0.  1.
         -5   -1    0    0    0  501 -0.00000000000E+00 -0.00000000000E+00 -0.14652832992E+03  0.14660368846E+03  0.47000000000E+01 0.  1.
         25    2    1    2    0    0  0.80705361508E+01 -0.82358068328E+02 -0.63375340709E+01  0.15004274461E+03  0.12499870359E+03 0.  0.
         25    2    1    2    0    0 -0.80705361508E+01  0.82358068328E+02  0.13714763478E+02  0.15053825124E+03  0.12500274148E+03 0.  0.
          5    1    4    4  502    0 -0.54356560700E+02  0.99884594561E+01  0.29874402185E+02  0.62999800947E+02  0.47000000000E+01 0. -1.
         -5    1    4    4    0  502  0.46286024549E+02  0.72369608872E+02 -0.16159638707E+02  0.87538450295E+02  0.47000000000E+01 0. -1.
          5    1    3    3  503    0  0.56666717767E+02 -0.20034229753E+02 -0.30099121802E+02  0.67383487573E+02  0.47000000000E+01 0.  1.
         -5    1    3    3    0  503 -0.48596181616E+02 -0.62323838575E+02  0.23761587731E+02  0.82659257037E+02  0.47000000000E+01 0.  1.
<mgrwt>
<rscale>  0 0.14991137E+03</rscale>
<asrwt>0</asrwt>
<pdfrwt beam="1">  1        5 0.23689094E-01 0.14991221E+03</pdfrwt>
<pdfrwt beam="2">  1       -5 0.22554136E-01 0.14991221E+03</pdfrwt>
<totfact> 0.23295130E+02</totfact>
</mgrwt>
</event>
<event>
 8    1  0.1865596E-007  0.1351164E+03  0.7546771E-02  0.1220057E+00
         -5   -1    0    0    0  501 -0.00000000000E+00  0.00000000000E+00  0.95844530073E+02  0.95959699588E+02  0.47000000000E+01 0. -1.
          5   -1    0    0  501    0  0.00000000000E+00 -0.00000000000E+00 -0.20711350771E+03  0.20716682909E+03  0.47000000000E+01 0. -1.
         25    2    1    2    0    0  0.22818133519E+02  0.45933544194E+02 -0.12360168347E+02  0.13567687920E+03  0.12499953635E+03 0.  0.
         25    2    1    2    0    0 -0.22818133519E+02 -0.45933544194E+02 -0.98908809292E+02  0.16744964948E+03  0.12500349938E+03 0.  0.
          5    1    3    3  502    0 -0.41347639045E+02  0.50586171176E+02  0.12244657520E+02  0.66637899176E+02  0.47000000000E+01 0.  1.
         -5    1    3    3    0  502  0.64165772564E+02 -0.46526269823E+01 -0.24604825867E+02  0.69038980022E+02  0.47000000000E+01 0.  1.
          5    1    4    4  503    0  0.28922567840E+02 -0.65909941104E+02 -0.28166039045E+02  0.77434172187E+02  0.47000000000E+01 0. -1.
         -5    1    4    4    0  503 -0.51740701359E+02  0.19976396910E+02 -0.70742770246E+02  0.90015477296E+02  0.47000000000E+01 0. -1.
<mgrwt>
<rscale>  0 0.13511545E+03</rscale>
<asrwt>0</asrwt>
<pdfrwt beam="2">  1        5 0.31876577E-01 0.13511637E+03</pdfrwt>
<pdfrwt beam="1">  1       -5 0.14758273E-01 0.13511637E+03</pdfrwt>
<totfact> 0.27694960E+02</totfact>
</mgrwt>
</event>
<event>
 8    1  0.1865596E-007  0.1320180E+03  0.7546771E-02  0.1224493E+00
         -5   -1    0    0    0  501 -0.00000000000E+00  0.00000000000E+00  0.13406314844E+03  0.13414550968E+03  0.47000000000E+01 0. -1.
          5   -1    0    0  501    0  0.00000000000E+00 -0.00000000000E+00 -0.15618100096E+03  0.15625170418E+03  0.47000000000E+01 0. -1.
         25    2    1    2    0    0 -0.39393648023E+02 -0.15818936582E+02  0.48544853831E+02  0.14066043464E+03  0.12500662695E+03 0.  0.
         25    2    1    2    0    0  0.39393648023E+02  0.15818936582E+02 -0.70662706352E+02  0.14973677922E+03  0.12500314686E+03 0.  0.
          5    1    3    3  502    0 -0.53720051024E+02 -0.37678953865E+02  0.77310444790E+02  0.10151129159E+03  0.47000000000E+01 0.  1.
         -5    1    3    3    0  502  0.14326403001E+02  0.21860017284E+02 -0.28765590959E+02  0.39149143053E+02  0.47000000000E+01 0.  1.
          5    1    4    4  503    0 -0.40109501804E+02 -0.11727034363E+02 -0.39153085961E+01  0.42234051562E+02  0.47000000000E+01 0. -1.
         -5    1    4    4    0  503  0.79503149828E+02  0.27545970944E+02 -0.66747397756E+02  0.10750272766E+03  0.47000000000E+01 0. -1.
<mgrwt>
<rscale>  0 0.13201719E+03</rscale>
<asrwt>0</asrwt>
<pdfrwt beam="2">  1        5 0.24039620E-01 0.13201801E+03</pdfrwt>
<pdfrwt beam="1">  1       -5 0.20636874E-01 0.13201801E+03</pdfrwt>
<totfact> 0.25651517E+02</totfact>
</mgrwt>
</event>
<event>
 8    1  0.1865596E-007  0.1538331E+03  0.7546771E-02  0.1195841E+00
         -5   -1    0    0    0  501 -0.00000000000E+00  0.00000000000E+00  0.10406509706E+03  0.10417117848E+03  0.47000000000E+01 0.  1.
          5   -1    0    0  501    0  0.00000000000E+00 -0.00000000000E+00 -0.23304979669E+03  0.23309718517E+03  0.47000000000E+01 0.  1.
         25    2    1    2    0    0 -0.61662061119E+02  0.65091877991E+02 -0.37679475174E+02  0.15838039807E+03  0.12500178112E+03 0.  0.
         25    2    1    2    0    0  0.61662061119E+02 -0.65091877991E+02 -0.91305224456E+02  0.17888796558E+03  0.12500039142E+03 0.  0.
          5    1    4    4  502    0 -0.22712039897E+02 -0.55440606466E+02 -0.67893621785E+02  0.90670455391E+02  0.47000000000E+01 0.  1.
         -5    1    4    4    0  502  0.84374101017E+02 -0.96512715250E+01 -0.23411602671E+02  0.88217510189E+02  0.47000000000E+01 0.  1.
          5    1    3    3  503    0 -0.51484199828E+02  0.33068708936E+02  0.40245762297E+02  0.73389193520E+02  0.47000000000E+01 0. -1.
         -5    1    3    3    0  503 -0.10177861292E+02  0.32023169055E+02 -0.77925237470E+02  0.84991204554E+02  0.47000000000E+01 0. -1.
<mgrwt>
<rscale>  0 0.15383277E+03</rscale>
<asrwt>0</asrwt>
<pdfrwt beam="2">  1        5 0.35865620E-01 0.15383305E+03</pdfrwt>
<pdfrwt beam="1">  1       -5 0.16021820E-01 0.15383305E+03</pdfrwt>
<totfact> 0.19688884E+02</totfact>
</mgrwt>
</event>
<event>
 8    1  0.1865596E-007  0.2165792E+03  0.7546771E-02  0.1136462E+00
          5   -1    0    0  501    0  0.00000000000E+00  0.00000000000E+00  0.30157535239E+03  0.30161197451E+03  0.47000000000E+01 0.  1.
         -5   -1    0    0    0  501 -0.00000000000E+00 -0.00000000000E+00 -0.16150954825E+03  0.16157791982E+03  0.47000000000E+01 0.  1.
         25    2    1    2    0    0  0.14181053426E+03 -0.10568313372E+03  0.11488822291E+03  0.24515217020E+03  0.12498452068E+03 0.  0.
         25    2    1    2    0    0 -0.14181053426E+03  0.10568313372E+03  0.25177581226E+02  0.21803772413E+03  0.12500954430E+03 0.  0.
          5    1    3    3  502    0 -0.18493586464E+02 -0.32880180002E+02  0.35309169102E+02  0.51883970549E+02  0.47000000000E+01 0. -1.
         -5    1    3    3    0  502  0.16030412073E+03 -0.72802953717E+02  0.79579053811E+02  0.19326819965E+03  0.47000000000E+01 0. -1.
          5    1    4    4  503    0 -0.76103078473E+02 -0.35732070196E+01 -0.25910599266E+02  0.80609524970E+02  0.47000000000E+01 0. -1.
         -5    1    4    4    0  503 -0.65707455791E+02  0.10925634074E+03  0.51088180492E+02  0.13742819916E+03  0.47000000000E+01 0. -1.
<mgrwt>
<rscale>  0 0.21657556E+03</rscale>
<asrwt>0</asrwt>
<pdfrwt beam="1">  1        5 0.46404284E-01 0.21657917E+03</pdfrwt>
<pdfrwt beam="2">  1       -5 0.24855700E-01 0.21657917E+03</pdfrwt>
<totfact> 0.56035467E+01</totfact>
</mgrwt>
</event>
<event>
 8    1  0.1865596E-007  0.1451875E+03  0.7546771E-02  0.1206523E+00
          5   -1    0    0  501    0  0.00000000000E+00  0.00000000000E+00  0.46749513562E+03  0.46751876093E+03  0.47000000000E+01 0.  1.
         -5   -1    0    0    0  501 -0.00000000000E+00 -0.00000000000E+00 -0.50202932790E+02  0.50422459883E+02  0.47000000000E+01 0.  1.
         25    2    1    2    0    0  0.47093000595E+02 -0.56874280082E+02  0.12494848590E+03  0.19153002362E+03  0.12497676336E+03 0.  0.
         25    2    1    2    0    0 -0.47093000595E+02  0.56874280082E+02  0.29234371693E+03  0.32641119720E+03  0.12500794530E+03 0.  0.
          5    1    3    3  502    0  0.26335057697E+02 -0.95271499659E+02  0.10151532815E+03  0.14176616579E+03  0.47000000000E+01 0. -1.
         -5    1    3    3    0  502  0.20757942898E+02  0.38397219578E+02  0.23433157743E+02  0.49763857833E+02  0.47000000000E+01 0. -1.
          5    1    4    4  503    0 -0.13381710612E+02  0.63128418965E+02  0.50427729197E+02  0.82032391967E+02  0.47000000000E+01 0.  1.
         -5    1    4    4    0  503 -0.33711289983E+02 -0.62541388826E+01  0.24191598773E+03  0.24437880523E+03  0.47000000000E+01 0.  1.
<mgrwt>
<rscale>  0 0.14518082E+03</rscale>
<asrwt>0</asrwt>
<pdfrwt beam="1">  1        5 0.71941030E-01 0.14518754E+03</pdfrwt>
<pdfrwt beam="2">  1       -5 0.77422324E-02 0.14518754E+03</pdfrwt>
<totfact> 0.15805522E+02</totfact>
</mgrwt>
</event>
<event>
 8    1  0.1865596E-007  0.1489972E+03  0.7546771E-02  0.1201711E+00
          5   -1    0    0  501    0  0.00000000000E+00  0.00000000000E+00  0.48501754435E+03  0.48504031618E+03  0.47000000000E+01 0.  1.
         -5   -1    0    0    0  501 -0.00000000000E+00 -0.00000000000E+00 -0.49882972931E+02  0.50103901928E+02  0.47000000000E+01 0.  1.
         25    2    1    2    0    0  0.70419154389E+02 -0.40204063208E+02  0.13960663042E+03  0.20418057163E+03  0.12499788227E+03 0.  0.
         25    2    1    2    0    0 -0.70419154389E+02  0.40204063208E+02  0.29552794099E+03  0.33096364648E+03  0.12499978952E+03 0.  0.
          5    1    4    4  502    0  0.47751892173E+01  0.13805764267E+02  0.22168830177E+03  0.22221879916E+03  0.47000000000E+01 0. -1.
         -5    1    4    4    0  502 -0.75194343606E+02  0.26398298941E+02  0.73839639221E+02  0.10874484731E+03  0.47000000000E+01 0. -1.
          5    1    3    3  503    0  0.46625122109E+02 -0.52638280018E+02  0.93381263757E+01  0.71091357696E+02  0.47000000000E+01 0.  1.
         -5    1    3    3    0  503  0.23794032280E+02  0.12434216810E+02  0.13026850405E+03  0.13308921394E+03  0.47000000000E+01 0.  1.
<mgrwt>
<rscale>  0 0.14899682E+03</rscale>
<asrwt>0</asrwt>
<pdfrwt beam="1">  1        5 0.74636829E-01 0.14899722E+03</pdfrwt>
<pdfrwt beam="2">  1       -5 0.76930498E-02 0.14899722E+03</pdfrwt>
<totfact> 0.14819098E+02</totfact>
</mgrwt>
</event>
<event>
 8    1  0.1865596E-007  0.1311902E+03  0.7546771E-02  0.1225701E+00
          5   -1    0    0  501    0  0.00000000000E+00  0.00000000000E+00  0.41894537708E+03  0.41897174007E+03  0.47000000000E+01 0.  1.
         -5   -1    0    0    0  501 -0.00000000000E+00 -0.00000000000E+00 -0.47017558735E+02  0.47251887046E+02  0.47000000000E+01 0.  1.
         25    2    1    2    0    0 -0.39494323153E+02 -0.50750809998E+01  0.10225432176E+03  0.16633346621E+03  0.12500127061E+03 0.  0.
         25    2    1    2    0    0  0.39494323153E+02  0.50750809998E+01  0.26967349659E+03  0.29989016091E+03  0.12499902335E+03 0.  0.
          5    1    3    3  502    0  0.31929497552E+02 -0.25983518925E+02  0.77291407466E+02  0.87696566282E+02  0.47000000000E+01 0.  1.
         -5    1    3    3    0  502 -0.71423820705E+02  0.20908437925E+02  0.24962914296E+02  0.78636899931E+02  0.47000000000E+01 0.  1.
          5    1    4    4  503    0 -0.43143792164E+02  0.15510698582E+02  0.74060913863E+02  0.87230026567E+02  0.47000000000E+01 0.  1.
         -5    1    4    4    0  503  0.82638115316E+02 -0.10435617582E+02  0.19561258272E+03  0.21266013434E+03  0.47000000000E+01 0.  1.
<mgrwt>
<rscale>  0 0.13118969E+03</rscale>
<asrwt>0</asrwt>
<pdfrwt beam="1">  1        5 0.64473187E-01 0.13119023E+03</pdfrwt>
<pdfrwt beam="2">  1       -5 0.72535239E-02 0.13119023E+03</pdfrwt>
<totfact> 0.21833942E+02</totfact>
</mgrwt>
</event>
<event>
 8    1  0.1865596E-007  0.1905510E+03  0.7546771E-02  0.1157965E+00
         -5   -1    0    0    0  501 -0.00000000000E+00  0.00000000000E+00  0.50870209585E+02  0.51086869381E+02  0.47000000000E+01 0. -1.
          5   -1    0    0  501    0  0.00000000000E+00 -0.00000000000E+00 -0.73863228093E+03  0.73864723409E+03  0.47000000000E+01 0. -1.
         25    2    1    2    0    0  0.12398439286E+03 -0.72888817313E+02 -0.41881170089E+03  0.46012272821E+03  0.12499909938E+03 0.  0.
         25    2    1    2    0    0 -0.12398439286E+03  0.72888817313E+02 -0.26895037046E+03  0.32961137527E+03  0.12499779028E+03 0.  0.
          5    1    3    3  502    0  0.44523750597E+02 -0.64382993148E+02 -0.33566078840E+03  0.34469956345E+03  0.47000000000E+01 0.  1.
         -5    1    3    3    0  502  0.79460642267E+02 -0.85058241650E+01 -0.83150912487E+02  0.11542316475E+03  0.47000000000E+01 0.  1.
          5    1    4    4  503    0 -0.26281533908E+02  0.51099049126E+02 -0.19955421304E+03  0.20771568499E+03  0.47000000000E+01 0.  1.
         -5    1    4    4    0  503 -0.97702858955E+02  0.21789768187E+02 -0.69396157415E+02  0.12189569028E+03  0.47000000000E+01 0.  1.
<mgrwt>
<rscale>  0 0.19055079E+03</rscale>
<asrwt>0</asrwt>
<pdfrwt beam="2">  1        5 0.11365354E+00 0.19055100E+03</pdfrwt>
<pdfrwt beam="1">  1       -5 0.78440030E-02 0.19055100E+03</pdfrwt>
<totfact> 0.56142727E+01</totfact>
</mgrwt>
</event>
<event>
 8    1  0.1865596E-007  0.1312151E+03  0.7546771E-02  0.1225666E+00
          5   -1    0    0  501    0  0.00000000000E+00  0.00000000000E+00  0.22300481721E+03  0.22305433979E+03  0.47000000000E+01 0.  1.
         -5   -1    0    0    0  501 -0.00000000000E+00 -0.00000000000E+00 -0.79939581393E+02  0.80077629044E+02  0.47000000000E+01 0.  1.
         25    2    1    2    0    0  0.36648818915E+02  0.15809656155E+02  0.42864502655E+02  0.13803321010E+03  0.12499088105E+03 0.  0.
         25    2    1    2    0    0 -0.36648818915E+02 -0.15809656155E+02  0.10020073316E+03  0.16509875873E+03  0.12499732819E+03 0.  0.
          5    1    4    4  502    0 -0.55411963301E+02 -0.18244960407E+01  0.12116529839E+03  0.13333016912E+03  0.47000000000E+01 0. -1.
         -5    1    4    4    0  502  0.18763144386E+02 -0.13985160114E+02 -0.20964565232E+02  0.31768589614E+02  0.47000000000E+01 0. -1.
          5    1    3    3  503    0  0.42815353046E+02 -0.46818487713E+02  0.36224713718E+01  0.63720777985E+02  0.47000000000E+01 0.  1.
         -5    1    3    3    0  503 -0.61665341312E+01  0.62628143868E+02  0.39242031284E+02  0.74312432114E+02  0.47000000000E+01 0.  1.
<mgrwt>
<rscale>  0 0.13121361E+03</rscale>
<asrwt>0</asrwt>
<pdfrwt beam="1">  1        5 0.34322861E-01 0.13121514E+03</pdfrwt>
<pdfrwt beam="2">  1       -5 0.12312826E-01 0.13121514E+03</pdfrwt>
<totfact> 0.32734352E+02</totfact>
</mgrwt>
</event>
<event>
 8    1  0.1865596E-007  0.1338149E+03  0.7546771E-02  0.1221906E+00
         -5   -1    0    0    0  501 -0.00000000000E+00  0.00000000000E+00  0.16493932013E+03  0.16500627056E+03  0.47000000000E+01 0.  1.
          5   -1    0    0  501    0  0.00000000000E+00 -0.00000000000E+00 -0.11132284071E+03  0.11142201247E+03  0.47000000000E+01 0.  1.
         25    2    1    2    0    0  0.42958555302E+02 -0.20871415322E+02  0.49123694771E+02  0.14253793965E+03  0.12499149331E+03 0.  0.
         25    2    1    2    0    0 -0.42958555302E+02  0.20871415322E+02  0.44927846488E+01  0.13389034338E+03  0.12500154194E+03 0.  0.
          5    1    3    3  502    0  0.69627967683E+02 -0.69649118596E+01  0.74928596757E+02  0.10263015392E+03  0.47000000000E+01 0. -1.
         -5    1    3    3    0  502 -0.26669412381E+02 -0.13906503463E+02 -0.25804901986E+02  0.39907785730E+02  0.47000000000E+01 0. -1.
          5    1    4    4  503    0 -0.23744686356E+02  0.22231590277E+02 -0.58911150897E+02  0.67458635003E+02  0.47000000000E+01 0. -1.
         -5    1    4    4    0  503 -0.19213868945E+02 -0.13601749549E+01  0.63403935545E+02  0.66431708381E+02  0.47000000000E+01 0. -1.
<mgrwt>
<rscale>  0 0.13381260E+03</rscale>
<asrwt>0</asrwt>
<pdfrwt beam="2">  1        5 0.17139370E-01 0.13381494E+03</pdfrwt>
<pdfrwt beam="1">  1       -5 0.25388058E-01 0.13381494E+03</pdfrwt>
<totfact> 0.32752289E+02</totfact>
</mgrwt>
</event>
<event>
 8    1  0.1865596E-007  0.1841939E+03  0.7546771E-02  0.1163805E+00
         -5   -1    0    0    0  501 -0.00000000000E+00  0.00000000000E+00  0.15425507986E+03  0.15432666543E+03  0.47000000000E+01 0.  1.
          5   -1    0    0  501    0  0.00000000000E+00 -0.00000000000E+00 -0.22643301499E+03  0.22648178796E+03  0.47000000000E+01 0.  1.
         25    2    1    2    0    0  0.44259384907E+02  0.12784103546E+03 -0.34935328424E+01  0.18422706378E+03  0.12500073102E+03 0.  0.
         25    2    1    2    0    0 -0.44259384907E+02 -0.12784103546E+03 -0.68684402280E+02  0.19658138961E+03  0.12499788848E+03 0.  0.
          5    1    4    4  502    0  0.34602510565E+02 -0.58601081349E+02 -0.60557015699E+02  0.91217666178E+02  0.47000000000E+01 0.  1.
         -5    1    4    4    0  502 -0.78861895473E+02 -0.69239954114E+02 -0.81273865811E+01  0.10536372343E+03  0.47000000000E+01 0.  1.
          5    1    3    3  503    0  0.77383034777E+02  0.12837249677E+03 -0.93577282201E+01  0.15025740939E+03  0.47000000000E+01 0.  1.
         -5    1    3    3    0  503 -0.33123649869E+02 -0.53146131032E+00  0.58641953778E+01  0.33969654387E+02  0.47000000000E+01 0.  1.
<mgrwt>
<rscale>  0 0.18419345E+03</rscale>
<asrwt>0</asrwt>
<pdfrwt beam="2">  1        5 0.34845107E-01 0.18419394E+03</pdfrwt>
<pdfrwt beam="1">  1       -5 0.23740809E-01 0.18419394E+03</pdfrwt>
<totfact> 0.10573174E+02</totfact>
</mgrwt>
</event>
<event>
 8    1  0.1865596E-007  0.1307411E+03  0.7546771E-02  0.1226362E+00
          5   -1    0    0  501    0  0.00000000000E+00  0.00000000000E+00  0.10845727399E+03  0.10855906357E+03  0.47000000000E+01 0.  1.
         -5   -1    0    0    0  501 -0.00000000000E+00 -0.00000000000E+00 -0.17586452424E+03  0.17592731705E+03  0.47000000000E+01 0.  1.
         25    2    1    2    0    0  0.29193568453E+02  0.24805442855E+02 -0.79788075735E+02  0.15316449976E+03  0.12500261006E+03 0.  0.
         25    2    1    2    0    0 -0.29193568453E+02 -0.24805442855E+02  0.12380825492E+02  0.13132188086E+03  0.12499830846E+03 0.  0.
          5    1    4    4  502    0  0.22681173317E+02 -0.62101025538E+02  0.12020451403E+01  0.66291084682E+02  0.47000000000E+01 0.  1.
         -5    1    4    4    0  502 -0.51874741770E+02  0.37295582682E+02  0.11178780352E+02  0.65030796177E+02  0.47000000000E+01 0.  1.
          5    1    3    3  503    0  0.65104357864E+02  0.46407801840E+02 -0.76681120004E+02  0.11087987035E+03  0.47000000000E+01 0. -1.
         -5    1    3    3    0  503 -0.35910789411E+02 -0.21602358985E+02 -0.31069557306E+01  0.42284629403E+02  0.47000000000E+01 0. -1.
<mgrwt>
<rscale>  0 0.13074004E+03</rscale>
<asrwt>0</asrwt>
<pdfrwt beam="1">  1        5 0.16698395E-01 0.13074107E+03</pdfrwt>
<pdfrwt beam="2">  1       -5 0.27068741E-01 0.13074107E+03</pdfrwt>
<totfact> 0.30112916E+02</totfact>
</mgrwt>
</event>
<event>
 8    1  0.1865596E-007  0.1307871E+03  0.7546771E-02  0.1226298E+00
         -5   -1    0    0    0  501 -0.00000000000E+00  0.00000000000E+00  0.24170756979E+02  0.24623474429E+02  0.47000000000E+01 0.  1.
          5   -1    0    0  501    0  0.00000000000E+00 -0.00000000000E+00 -0.85704402047E+03  0.85705690769E+03  0.47000000000E+01 0.  1.
         25    2    1    2    0    0  0.33782673273E+02 -0.18312839109E+02 -0.22810402849E+03  0.26293076026E+03  0.12499803115E+03 0.  0.
         25    2    1    2    0    0 -0.33782673273E+02  0.18312839109E+02 -0.60476923500E+03  0.61874962185E+03  0.12501455057E+03 0.  0.
          5    1    3    3  502    0  0.55869750639E+02 -0.17395150698E+02 -0.34662123129E+02  0.68173111151E+02  0.47000000000E+01 0.  1.
         -5    1    3    3    0  502 -0.22087077366E+02 -0.91768841095E+00 -0.19344190536E+03  0.19475764911E+03  0.47000000000E+01 0.  1.
          5    1    4    4  503    0 -0.11099939559E+02  0.46597684594E+02 -0.55453480808E+03  0.55661970522E+03  0.47000000000E+01 0.  1.
         -5    1    4    4    0  503 -0.22682733714E+02 -0.28284845486E+02 -0.50234426917E+02  0.62129916631E+02  0.47000000000E+01 0.  1.
<mgrwt>
<rscale>  0 0.13078316E+03</rscale>
<asrwt>0</asrwt>
<pdfrwt beam="2">  1        5 0.13188872E+00 0.13078711E+03</pdfrwt>
<pdfrwt beam="1">  1       -5 0.37543944E-02 0.13078711E+03</pdfrwt>
<totfact> 0.11775955E+02</totfact>
</mgrwt>
</event>
<event>
 8    1  0.1865596E-007  0.1312840E+03  0.7546771E-02  0.1225565E+00
         -5   -1    0    0    0  501 -0.00000000000E+00  0.00000000000E+00  0.52008760823E+02  0.52220697069E+02  0.47000000000E+01 0. -1.
          5   -1    0    0  501    0  0.00000000000E+00 -0.00000000000E+00 -0.38821568648E+03  0.38824413611E+03  0.47000000000E+01 0. -1.
         25    2    1    2    0    0  0.11169413815E+02 -0.38528251399E+02 -0.83200560133E+02  0.15542782885E+03  0.12500517914E+03 0.  0.
         25    2    1    2    0    0 -0.11169413815E+02  0.38528251399E+02 -0.25300636552E+03  0.28503700434E+03  0.12499876354E+03 0.  0.
          5    1    3    3  502    0 -0.47173409525E+02  0.79911071423E+01 -0.60531424722E+02  0.77300269977E+02  0.47000000000E+01 0.  1.
         -5    1    3    3    0  502  0.58342823340E+02 -0.46519358542E+02 -0.22669135411E+02  0.78127558868E+02  0.47000000000E+01 0.  1.
          5    1    4    4  503    0 -0.24004111328E+02 -0.36858250449E+02 -0.15172151250E+03  0.15803871469E+03  0.47000000000E+01 0.  1.
         -5    1    4    4    0  503  0.12834697513E+02  0.75386501848E+02 -0.10128485302E+03  0.12699828964E+03  0.47000000000E+01 0.  1.
<mgrwt>
<rscale>  0 0.13128243E+03</rscale>
<asrwt>0</asrwt>
<pdfrwt beam="2">  1        5 0.59743980E-01 0.13128395E+03</pdfrwt>
<pdfrwt beam="1">  1       -5 0.80198393E-02 0.13128395E+03</pdfrwt>
<totfact> 0.21755339E+02</totfact>
</mgrwt>
</event>
<event>
 8    1  0.1865596E-007  0.1792776E+03  0.7546771E-02  0.1168505E+00
         -5   -1    0    0    0  501 -0.00000000000E+00  0.00000000000E+00  0.19598063798E+03  0.19603698749E+03  0.47000000000E+01 0. -1.
          5   -1    0    0  501    0  0.00000000000E+00 -0.00000000000E+00 -0.17044116011E+03  0.17050595022E+03  0.47000000000E+01 0. -1.
         25    2    1    2    0    0 -0.67148884516E+02 -0.10957664762E+03  0.48709956773E+02  0.18577419040E+03  0.12499350197E+03 0.  0.
         25    2    1    2    0    0  0.67148884516E+02  0.10957664762E+03 -0.23170478909E+02  0.18076874731E+03  0.12499781804E+03 0.  0.
          5    1    3    3  502    0 -0.92339232720E+02 -0.10313345197E+03  0.99533774250E+01  0.13886757194E+03  0.47000000000E+01 0.  1.
         -5    1    3    3    0  502  0.25190348204E+02 -0.64431956503E+01  0.38756579348E+02  0.46906618463E+02  0.47000000000E+01 0.  1.
          5    1    4    4  503    0  0.15631963953E+02  0.37835385456E+01 -0.56050254178E+02  0.58501234639E+02  0.47000000000E+01 0. -1.
         -5    1    4    4    0  503  0.51516920563E+02  0.10579310907E+03  0.32879775269E+02  0.12226751267E+03  0.47000000000E+01 0. -1.
<mgrwt>
<rscale>  0 0.17927688E+03</rscale>
<asrwt>0</asrwt>
<pdfrwt beam="2">  1        5 0.26231036E-01 0.17927763E+03</pdfrwt>
<pdfrwt beam="1">  1       -5 0.30160186E-01 0.17927763E+03</pdfrwt>
<totfact> 0.11544497E+02</totfact>
</mgrwt>
</event>
<event>
 8    1  0.1865596E-007  0.1323516E+03  0.7546771E-02  0.1224010E+00
         -5   -1    0    0    0  501 -0.00000000000E+00  0.00000000000E+00  0.77274636093E+02  0.77417435913E+02  0.47000000000E+01 0. -1.
          5   -1    0    0  501    0  0.00000000000E+00 -0.00000000000E+00 -0.23247200582E+03  0.23251951207E+03  0.47000000000E+01 0. -1.
         25    2    1    2    0    0  0.17202730330E+02  0.39974424838E+02 -0.52350267856E+02  0.14232291996E+03  0.12498549687E+03 0.  0.
         25    2    1    2    0    0 -0.17202730330E+02 -0.39974424838E+02 -0.10284710187E+03  0.16761402802E+03  0.12499218957E+03 0.  0.
          5    1    4    4  502    0  0.42856376200E+01  0.37648631151E+02 -0.16847670039E+01  0.38219295614E+02  0.47000000000E+01 0.  1.
         -5    1    4    4    0  502 -0.21488367950E+02 -0.77623055989E+02 -0.10116233487E+03  0.12939473241E+03  0.47000000000E+01 0.  1.
          5    1    3    3  503    0  0.13029299181E+02 -0.35623446425E+02 -0.54342710273E+02  0.66438036787E+02  0.47000000000E+01 0.  1.
         -5    1    3    3    0  503  0.41734311492E+01  0.75597871263E+02  0.19924424172E+01  0.75884883171E+02  0.47000000000E+01 0.  1.
<mgrwt>
<rscale>  0 0.13234998E+03</rscale>
<asrwt>0</asrwt>
<pdfrwt beam="2">  1        5 0.35779563E-01 0.13235156E+03</pdfrwt>
<pdfrwt beam="1">  1       -5 0.11903045E-01 0.13235156E+03</pdfrwt>
<totfact> 0.32081585E+02</totfact>
</mgrwt>
</event>
<event>
 8    1  0.1865596E-007  0.1588576E+03  0.7546771E-02  0.1189993E+00
         -5   -1    0    0    0  501 -0.00000000000E+00  0.00000000000E+00  0.19626549710E+03  0.19632176485E+03  0.47000000000E+01 0.  1.
          5   -1    0    0  501    0  0.00000000000E+00 -0.00000000000E+00 -0.13081024744E+03  0.13089465549E+03  0.47000000000E+01 0.  1.
         25    2    1    2    0    0  0.62788186061E+02 -0.75270068436E+02  0.54638519603E+02  0.16799097816E+03  0.12501064517E+03 0.  0.
         25    2    1    2    0    0 -0.62788186061E+02  0.75270068436E+02  0.10816730059E+02  0.15922544218E+03  0.12501120060E+03 0.  0.
          5    1    4    4  502    0 -0.75106263552E+02  0.71919317200E+02 -0.36255855511E+02  0.11022665771E+03  0.47000000000E+01 0.  1.
         -5    1    4    4    0  502  0.12318077491E+02  0.33507512352E+01  0.47072585570E+02  0.48998784466E+02  0.47000000000E+01 0.  1.
          5    1    3    3  503    0 -0.44595493130E+01 -0.76698298101E+02  0.63760240820E+02  0.99949861536E+02  0.47000000000E+01 0. -1.
         -5    1    3    3    0  503  0.67247735374E+02  0.14282296654E+01 -0.91217212173E+01  0.68041116620E+02  0.47000000000E+01 0. -1.
<mgrwt>
<rscale>  0 0.15885750E+03</rscale>
<asrwt>0</asrwt>
<pdfrwt beam="2">  1        5 0.20135475E-01 0.15885761E+03</pdfrwt>
<pdfrwt beam="1">  1       -5 0.30205513E-01 0.15885761E+03</pdfrwt>
<totfact> 0.18361611E+02</totfact>
</mgrwt>
</event>
<event>
 8    1  0.1865596E-007  0.1253943E+03  0.7546771E-02  0.1234457E+00
          5   -1    0    0  501    0  0.00000000000E+00  0.00000000000E+00  0.27206129173E+02  0.27609119228E+02  0.47000000000E+01 0. -1.
         -5   -1    0    0    0  501 -0.00000000000E+00 -0.00000000000E+00 -0.70241031290E+03  0.70242603715E+03  0.47000000000E+01 0. -1.
         25    2    1    2    0    0  0.98466178778E+01  0.43837542202E+00 -0.49408471203E+03  0.50974840804E+03  0.12500635494E+03 0.  0.
         25    2    1    2    0    0 -0.98466178778E+01 -0.43837542202E+00 -0.18111947170E+03  0.22028674834E+03  0.12499936164E+03 0.  0.
          5    1    3    3  502    0 -0.68131382980E+01  0.56294667438E+02 -0.14436898006E+03  0.15517732063E+03  0.47000000000E+01 0.  1.
         -5    1    3    3    0  502  0.16659756176E+02 -0.55856292016E+02 -0.34971573198E+03  0.35457108741E+03  0.47000000000E+01 0.  1.
          5    1    4    4  503    0 -0.60990064093E+02 -0.61056013288E+01 -0.49626585066E+02  0.79006039206E+02  0.47000000000E+01 0.  1.
         -5    1    4    4    0  503  0.51143446215E+02  0.56672259068E+01 -0.13149288663E+03  0.14128070914E+03  0.47000000000E+01 0.  1.
<mgrwt>
<rscale>  0 0.12539258E+03</rscale>
<asrwt>0</asrwt>
<pdfrwt beam="1">  1        5 0.42177677E-02 0.12539433E+03</pdfrwt>
<pdfrwt beam="2">  1       -5 0.10809532E+00 0.12539433E+03</pdfrwt>
<totfact> 0.15895542E+02</totfact>
</mgrwt>
</event>
<event>
 8    1  0.1865596E-007  0.1258091E+03  0.7546771E-02  0.1233815E+00
         -5   -1    0    0    0  501 -0.00000000000E+00  0.00000000000E+00  0.42072122355E+02  0.42333833744E+02  0.47000000000E+01 0. -1.
          5   -1    0    0  501    0  0.00000000000E+00 -0.00000000000E+00 -0.55902643279E+03  0.55904619001E+03  0.47000000000E+01 0. -1.
         25    2    1    2    0    0 -0.13935143307E+02 -0.22826956389E+01 -0.85882513922E+02  0.15232768824E+03  0.12501407716E+03 0.  0.
         25    2    1    2    0    0  0.13935143307E+02  0.22826956389E+01 -0.43107179652E+03  0.44905233551E+03  0.12500282941E+03 0.  0.
          5    1    3    3  502    0  0.13501366378E+01 -0.59121283863E+02 -0.68834670236E+02  0.90870517227E+02  0.47000000000E+01 0. -1.
         -5    1    3    3    0  502 -0.15285279945E+02  0.56838588225E+02 -0.17047843686E+02  0.61457171011E+02  0.47000000000E+01 0. -1.
          5    1    4    4  503    0 -0.19274112011E+02  0.55965584232E+02 -0.25866073643E+03  0.26538859166E+03  0.47000000000E+01 0.  1.
         -5    1    4    4    0  503  0.33209255318E+02 -0.53682888593E+02 -0.17241106009E+03  0.18366374386E+03  0.47000000000E+01 0.  1.
<mgrwt>
<rscale>  0 0.12580626E+03</rscale>
<asrwt>0</asrwt>
<pdfrwt beam="2">  1        5 0.86025713E-01 0.12580906E+03</pdfrwt>
<pdfrwt beam="1">  1       -5 0.64942860E-02 0.12580906E+03</pdfrwt>
<totfact> 0.13451582E+02</totfact>
</mgrwt>
</event>
<event>
 8    1  0.1865596E-007  0.1935850E+03  0.7546771E-02  0.1155268E+00
          5   -1    0    0  501    0  0.00000000000E+00  0.00000000000E+00  0.27815189571E+03  0.27819160140E+03  0.47000000000E+01 0. -1.
         -5   -1    0    0    0  501 -0.00000000000E+00 -0.00000000000E+00 -0.14575687025E+03  0.14583262743E+03  0.47000000000E+01 0. -1.
         25    2    1    2    0    0  0.12447668813E+03 -0.79721587083E+02  0.76622092850E+01  0.19373435792E+03  0.12499725858E+03 0.  0.
         25    2    1    2    0    0 -0.12447668813E+03  0.79721587083E+02  0.12473281618E+03  0.23028987091E+03  0.12500068750E+03 0.  0.
          5    1    3    3  502    0  0.13199366895E+02 -0.38113554810E+02 -0.47647785583E+02  0.62604055920E+02  0.47000000000E+01 0.  1.
         -5    1    3    3    0  502  0.11127732124E+03 -0.41608032273E+02  0.55309994868E+02  0.13113030200E+03  0.47000000000E+01 0.  1.
          5    1    4    4  503    0 -0.61246284995E+01  0.63490000011E+02  0.10269863095E+02  0.64776934658E+02  0.47000000000E+01 0.  1.
         -5    1    4    4    0  503 -0.11835205963E+03  0.16231587072E+02  0.11446295309E+03  0.16551293625E+03  0.47000000000E+01 0.  1.
<mgrwt>
<rscale>  0 0.19358444E+03</rscale>
<asrwt>0</asrwt>
<pdfrwt beam="1">  1        5 0.42801480E-01 0.19358499E+03</pdfrwt>
<pdfrwt beam="2">  1       -5 0.22433016E-01 0.19358499E+03</pdfrwt>
<totfact> 0.78446802E+01</totfact>
</mgrwt>
</event>
<event>
 8    1  0.1865596E-007  0.1456128E+03  0.7546771E-02  0.1205972E+00
         -5   -1    0    0    0  501 -0.00000000000E+00  0.00000000000E+00  0.54977495319E+02  0.55178029972E+02  0.47000000000E+01 0.  1.
          5   -1    0    0  501    0  0.00000000000E+00 -0.00000000000E+00 -0.39538753761E+03  0.39541547124E+03  0.47000000000E+01 0.  1.
         25    2    1    2    0    0  0.73309167380E+02 -0.14277550340E+02 -0.13323766727E+03  0.19737109557E+03  0.12499996369E+03 0.  0.
         25    2    1    2    0    0 -0.73309167380E+02  0.14277550340E+02 -0.20717237501E+03  0.25322240563E+03  0.12499244489E+03 0.  0.
          5    1    4    4  502    0 -0.95967794095E+02 -0.60597251536E+01 -0.89031030300E+02  0.13113028685E+03  0.47000000000E+01 0. -1.
         -5    1    4    4    0  502  0.22658626715E+02  0.20337275493E+02 -0.11814134471E+03  0.12209211879E+03  0.47000000000E+01 0. -1.
          5    1    3    3  503    0  0.10873957764E+03 -0.12001889931E+02 -0.10571193372E+03  0.15220198434E+03  0.47000000000E+01 0.  1.
         -5    1    3    3    0  503 -0.35430410262E+02 -0.22756604086E+01 -0.27525733556E+02  0.45169111232E+02  0.47000000000E+01 0.  1.
<mgrwt>
<rscale>  0 0.14561114E+03</rscale>
<asrwt>0</asrwt>
<pdfrwt beam="2">  1        5 0.60846425E-01 0.14561275E+03</pdfrwt>
<pdfrwt beam="1">  1       -5 0.84756509E-02 0.14561275E+03</pdfrwt>
<totfact> 0.19679060E+02</totfact>
</mgrwt>
</event>
<event>
 8    1  0.1865596E-007  0.1936070E+03  0.7546771E-02  0.1155250E+00
          5   -1    0    0  501    0  0.00000000000E+00  0.00000000000E+00  0.33112783897E+02  0.33444677565E+02  0.47000000000E+01 0.  1.
         -5   -1    0    0    0  501 -0.00000000000E+00 -0.00000000000E+00 -0.12224424473E+04  0.12224514824E+04  0.47000000000E+01 0.  1.
         25    2    1    2    0    0  0.82040785843E+02  0.12299784233E+03 -0.77105668429E+03  0.79499187343E+03  0.12499803465E+03 0.  0.
         25    2    1    2    0    0 -0.82040785843E+02 -0.12299784233E+03 -0.41827297907E+03  0.46090428656E+03  0.12498526547E+03 0.  0.
          5    1    4    4  502    0 -0.46602385150E+00  0.14808163640E+02 -0.13148958259E+03  0.13240505737E+03  0.47000000000E+01 0.  1.
         -5    1    4    4    0  502 -0.81574761992E+02 -0.13780600597E+03 -0.28678339648E+03  0.32849922918E+03  0.47000000000E+01 0.  1.
          5    1    3    3  503    0 -0.17934704009E+02  0.63040865218E+02 -0.16125481554E+03  0.17412929056E+03  0.47000000000E+01 0.  1.
         -5    1    3    3    0  503  0.99975489853E+02  0.59956977109E+02 -0.60980186875E+03  0.62086258287E+03  0.47000000000E+01 0.  1.
<mgrwt>
<rscale>  0 0.19360493E+03</rscale>
<asrwt>0</asrwt>
<pdfrwt beam="1">  1        5 0.51205007E-02 0.19360699E+03</pdfrwt>
<pdfrwt beam="2">  1       -5 0.18809426E+00 0.19360699E+03</pdfrwt>
<totfact> 0.29094776E+01</totfact>
</mgrwt>
</event>
<event>
 8    1  0.1865596E-007  0.1435006E+03  0.7546771E-02  0.1208696E+00
          5   -1    0    0  501    0  0.00000000000E+00  0.00000000000E+00  0.44895275788E+03  0.44897735891E+03  0.47000000000E+01 0.  1.
         -5   -1    0    0    0  501 -0.00000000000E+00 -0.00000000000E+00 -0.46001580484E+02  0.46241057590E+02  0.47000000000E+01 0.  1.
         25    2    1    2    0    0  0.58370270074E+02 -0.39486349351E+02  0.18217568339E+03  0.23190604522E+03  0.12500469582E+03 0.  0.
         25    2    1    2    0    0 -0.58370270074E+02  0.39486349351E+02  0.22077549401E+03  0.26331237128E+03  0.12500130358E+03 0.  0.
          5    1    3    3  502    0  0.92456373624E+02 -0.21570380013E+02  0.16285770351E+03  0.18856877766E+03  0.47000000000E+01 0.  1.
         -5    1    3    3    0  502 -0.34086103551E+02 -0.17915969338E+02  0.19317979880E+02  0.43337267556E+02  0.47000000000E+01 0.  1.
          5    1    4    4  503    0  0.24643676917E+02  0.19255990620E+02  0.60981268819E+01  0.32208401672E+02  0.47000000000E+01 0.  1.
         -5    1    4    4    0  503 -0.83013946991E+02  0.20230358731E+02  0.21467736713E+03  0.23110396961E+03  0.47000000000E+01 0.  1.
<mgrwt>
<rscale>  0 0.14349990E+03</rscale>
<asrwt>0</asrwt>
<pdfrwt beam="1">  1        5 0.69089968E-01 0.14350064E+03</pdfrwt>
<pdfrwt beam="2">  1       -5 0.70974800E-02 0.14350064E+03</pdfrwt>
<totfact> 0.20009936E+02</totfact>
</mgrwt>
</event>
<event>
 8    1  0.1865596E-007  0.1278140E+03  0.7546771E-02  0.1230739E+00
         -5   -1    0    0    0  501 -0.00000000000E+00  0.00000000000E+00  0.34679135347E+03  0.34682320113E+03  0.47000000000E+01 0.  1.
          5   -1    0    0  501    0  0.00000000000E+00 -0.00000000000E+00 -0.52792768340E+02  0.53001569685E+02  0.47000000000E+01 0.  1.
         25    2    1    2    0    0  0.15994042160E+02 -0.21368340944E+02  0.21333008687E+03  0.24868882698E+03  0.12499596521E+03 0.  0.
         25    2    1    2    0    0 -0.15994042160E+02  0.21368340944E+02  0.80668498253E+02  0.15113594383E+03  0.12498900563E+03 0.  0.
          5    1    4    4  502    0  0.50005243550E+02  0.28927626609E+02  0.20784114620E+02  0.61574356548E+02  0.47000000000E+01 0. -1.
         -5    1    4    4    0  502 -0.65999285709E+02 -0.75592856651E+01  0.59884383633E+02  0.89561587285E+02  0.47000000000E+01 0. -1.
          5    1    3    3  503    0  0.27080043667E+02  0.30963651583E+02  0.16339297994E+02  0.44509989253E+02  0.47000000000E+01 0.  1.
         -5    1    3    3    0  503 -0.11086001508E+02 -0.52331992527E+02  0.19699078888E+03  0.20417883773E+03  0.47000000000E+01 0.  1.
<mgrwt>
<rscale>  0 0.12781225E+03</rscale>
<asrwt>0</asrwt>
<pdfrwt beam="2">  1        5 0.81404758E-02 0.12781395E+03</pdfrwt>
<pdfrwt beam="1">  1       -5 0.53371028E-01 0.12781395E+03</pdfrwt>
<totfact> 0.26803292E+02</totfact>
</mgrwt>
</event>
<event>
 8    1  0.1865596E-007  0.1259728E+03  0.7546771E-02  0.1233566E+00
          5   -1    0    0  501    0  0.00000000000E+00  0.00000000000E+00  0.12067225246E+03  0.12076374669E+03  0.47000000000E+01 0. -1.
         -5   -1    0    0    0  501 -0.00000000000E+00 -0.00000000000E+00 -0.18510037700E+03  0.18516003771E+03  0.47000000000E+01 0. -1.
         25    2    1    2    0    0 -0.34234840582E+01  0.15002313178E+02 -0.11464192319E+03  0.17031190801E+03  0.12500634309E+03 0.  0.
         25    2    1    2    0    0  0.34234840582E+01 -0.15002313178E+02  0.50213798649E+02  0.13561187639E+03  0.12502945973E+03 0.  0.
          5    1    4    4  502    0 -0.55912257630E+02  0.16212475844E+01  0.47862147394E+02  0.73767771758E+02  0.47000000000E+01 0.  1.
         -5    1    4    4    0  502  0.59335741688E+02 -0.16623560762E+02  0.23516512546E+01  0.61844104631E+02  0.47000000000E+01 0.  1.
          5    1    3    3  503    0  0.50485374218E+02  0.39498135599E+02 -0.43388785531E+02  0.77547098176E+02  0.47000000000E+01 0. -1.
         -5    1    3    3    0  503 -0.53908858276E+02 -0.24495822421E+02 -0.71253137656E+02  0.92764809829E+02  0.47000000000E+01 0. -1.
<mgrwt>
<rscale>  0 0.12596710E+03</rscale>
<asrwt>0</asrwt>
<pdfrwt beam="1">  1        5 0.18576589E-01 0.12597284E+03</pdfrwt>
<pdfrwt beam="2">  1       -5 0.28488608E-01 0.12597284E+03</pdfrwt>
<totfact> 0.22118942E+02</totfact>
</mgrwt>
</event>
<event>
 8    1  0.1865596E-007  0.1432438E+03  0.7546771E-02  0.1209030E+00
         -5   -1    0    0    0  501 -0.00000000000E+00  0.00000000000E+00  0.53049378446E+01  0.70874794910E+01  0.47000000000E+01 0.  1.
          5   -1    0    0  501    0  0.00000000000E+00 -0.00000000000E+00 -0.35037114363E+04  0.35037145887E+04  0.47000000000E+01 0.  1.
         25    2    1    2    0    0  0.30311352628E+02 -0.63046249170E+02 -0.13362509532E+04  0.13439067714E+04  0.12500077051E+03 0.  0.
         25    2    1    2    0    0 -0.30311352628E+02  0.63046249170E+02 -0.21621555453E+04  0.21668952968E+04  0.12500007063E+03 0.  0.
          5    1    3    3  502    0 -0.48320236126E+02 -0.24061310927E+02 -0.59545438035E+03  0.59791454321E+03  0.47000000000E+01 0. -1.
         -5    1    3    3    0  502  0.78631588754E+02 -0.38984938243E+02 -0.74079657284E+03  0.74599222817E+03  0.47000000000E+01 0. -1.
          5    1    4    4  503    0 -0.26707189554E+02  0.13473977419E+02 -0.10886218155E+03  0.11299507340E+03  0.47000000000E+01 0. -1.
         -5    1    4    4    0  503 -0.36041630742E+01  0.49572271751E+02 -0.20532933637E+04  0.20539002234E+04  0.47000000000E+01 0. -1.
<mgrwt>
<rscale>  0 0.14324370E+03</rscale>
<asrwt>0</asrwt>
<pdfrwt beam="2">  1        5 0.53916831E+00 0.14324385E+03</pdfrwt>
<pdfrwt beam="1">  1       -5 0.95350816E-03 0.14324385E+03</pdfrwt>
<totfact> 0.13798008E+00</totfact>
</mgrwt>
</event>
<event>
 8    1  0.1865596E-007  0.1331347E+03  0.7546771E-02  0.1222879E+00
          5   -1    0    0  501    0  0.00000000000E+00  0.00000000000E+00  0.65797507006E+03  0.65799185620E+03  0.47000000000E+01 0. -1.
         -5   -1    0    0    0  501 -0.00000000000E+00 -0.00000000000E+00 -0.29918401057E+02  0.30285321887E+02  0.47000000000E+01 0. -1.
         25    2    1    2    0    0  0.33494460625E+02 -0.31246048312E+02  0.20216857734E+03  0.24206477687E+03  0.12500011244E+03 0.  0.
         25    2    1    2    0    0 -0.33494460625E+02  0.31246048312E+02  0.42588809167E+03  0.44621240122E+03  0.12500658361E+03 0.  0.
          5    1    4    4  502    0  0.31506399068E+02  0.52927957198E+02  0.15765897012E+03  0.16932945017E+03  0.47000000000E+01 0.  1.
         -5    1    4    4    0  502 -0.65000859693E+02 -0.21681908887E+02  0.26822912155E+03  0.27688295105E+03  0.47000000000E+01 0.  1.
          5    1    3    3  503    0  0.65124792535E+02 -0.60988834708E+02  0.14035014096E+03  0.16637646657E+03  0.47000000000E+01 0. -1.
         -5    1    3    3    0  503 -0.31630331911E+02  0.29742786396E+02  0.61818436379E+02  0.75688310298E+02  0.47000000000E+01 0. -1.
<mgrwt>
<rscale>  0 0.13313315E+03</rscale>
<asrwt>0</asrwt>
<pdfrwt beam="1">  1        5 0.10125645E+00 0.13313467E+03</pdfrwt>
<pdfrwt beam="2">  1       -5 0.46323470E-02 0.13313467E+03</pdfrwt>
<totfact> 0.16331051E+02</totfact>
</mgrwt>
</event>
<event>
 8    1  0.1865596E-007  0.1397671E+03  0.7546771E-02  0.1213643E+00
          5   -1    0    0  501    0  0.00000000000E+00  0.00000000000E+00  0.79937769425E+03  0.79939151113E+03  0.47000000000E+01 0. -1.
         -5   -1    0    0    0  501 -0.00000000000E+00 -0.00000000000E+00 -0.30257217013E+02  0.30620078075E+02  0.47000000000E+01 0. -1.
         25    2    1    2    0    0 -0.32716506973E+02 -0.53290329647E+02  0.20011605845E+03  0.24409277287E+03  0.12499846341E+03 0.  0.
         25    2    1    2    0    0  0.32716506973E+02  0.53290329647E+02  0.56900441879E+03  0.58591881633E+03  0.12499840668E+03 0.  0.
          5    1    3    3  502    0 -0.71099209880E+02 -0.65391432186E+02  0.11836391981E+03  0.15285039928E+03  0.47000000000E+01 0. -1.
         -5    1    3    3    0  502  0.38382702907E+02  0.12101102539E+02  0.81752138647E+02  0.91242373591E+02  0.47000000000E+01 0. -1.
          5    1    4    4  503    0 -0.25936537707E+02  0.23257939324E+02  0.43596827575E+03  0.43738319948E+03  0.47000000000E+01 0.  1.
         -5    1    4    4    0  503  0.58653044680E+02  0.30032390323E+02  0.13303614304E+03  0.14853561685E+03  0.47000000000E+01 0.  1.
<mgrwt>
<rscale>  0 0.13976710E+03</rscale>
<asrwt>0</asrwt>
<pdfrwt beam="1">  1        5 0.12301015E+00 0.13976711E+03</pdfrwt>
<pdfrwt beam="2">  1       -5 0.46839319E-02 0.13976711E+03</pdfrwt>
<totfact> 0.10014375E+02</totfact>
</mgrwt>
</event>
<event>
 8    1  0.1865596E-007  0.1315807E+03  0.7546771E-02  0.1225130E+00
          5   -1    0    0  501    0  0.00000000000E+00  0.00000000000E+00  0.76478856274E+02  0.76623139174E+02  0.47000000000E+01 0. -1.
         -5   -1    0    0    0  501 -0.00000000000E+00 -0.00000000000E+00 -0.24567429552E+03  0.24571924930E+03  0.47000000000E+01 0. -1.
         25    2    1    2    0    0 -0.83428347758E+01  0.40231650966E+02 -0.13019356193E+03  0.18510306682E+03  0.12499837258E+03 0.  0.
         25    2    1    2    0    0  0.83428347758E+01 -0.40231650966E+02 -0.39001877314E+02  0.13723932165E+03  0.12500118537E+03 0.  0.
          5    1    4    4  502    0 -0.44226351996E+02 -0.42365617821E+02 -0.54578149537E+02  0.82168608306E+02  0.47000000000E+01 0. -1.
         -5    1    4    4    0  502  0.52569186772E+02  0.21339668547E+01  0.15576272223E+02  0.55070713348E+02  0.47000000000E+01 0. -1.
          5    1    3    3  503    0  0.22305781315E+02  0.84720429915E+01  0.18096139132E+02  0.30313093607E+02  0.47000000000E+01 0.  1.
         -5    1    3    3    0  503 -0.30648616091E+02  0.31759607974E+02 -0.14828970106E+03  0.15478997321E+03  0.47000000000E+01 0.  1.
<mgrwt>
<rscale>  0 0.13158005E+03</rscale>
<asrwt>0</asrwt>
<pdfrwt beam="1">  1        5 0.11780535E-01 0.13158072E+03</pdfrwt>
<pdfrwt beam="2">  1       -5 0.37810602E-01 0.13158072E+03</pdfrwt>
<totfact> 0.29167800E+02</totfact>
</mgrwt>
</event>
<event>
 8    1  0.1865596E-007  0.1697684E+03  0.7546771E-02  0.1178090E+00
          5   -1    0    0  501    0  0.00000000000E+00  0.00000000000E+00  0.45783697589E+02  0.46024308414E+02  0.47000000000E+01 0.  1.
         -5   -1    0    0    0  501 -0.00000000000E+00 -0.00000000000E+00 -0.65533240630E+03  0.65534926012E+03  0.47000000000E+01 0.  1.
         25    2    1    2    0    0  0.11344660916E+03  0.18060089018E+02 -0.37689102123E+03  0.41336158655E+03  0.12499863760E+03 0.  0.
         25    2    1    2    0    0 -0.11344660916E+03 -0.18060089018E+02 -0.23265768748E+03  0.28801198199E+03  0.12500000913E+03 0.  0.
          5    1    4    4  502    0 -0.33874090314E+02 -0.27712664457E+02 -0.19393735835E+03  0.19886989398E+03  0.47000000000E+01 0. -1.
         -5    1    4    4    0  502 -0.79572518845E+02  0.96525754394E+01 -0.38720329128E+02  0.89142088015E+02  0.47000000000E+01 0. -1.
          5    1    3    3  503    0  0.48092371024E+02 -0.52083895469E+02 -0.12466884512E+03  0.14349222718E+03  0.47000000000E+01 0. -1.
         -5    1    3    3    0  503  0.65354238135E+02  0.70143984487E+02 -0.25222217611E+03  0.26986935936E+03  0.47000000000E+01 0. -1.
<mgrwt>
<rscale>  0 0.16976813E+03</rscale>
<asrwt>0</asrwt>
<pdfrwt beam="1">  1        5 0.70634512E-02 0.16976838E+03</pdfrwt>
<pdfrwt beam="2">  1       -5 0.10084017E+00 0.16976838E+03</pdfrwt>
<totfact> 0.87643169E+01</totfact>
</mgrwt>
</event>
<event>
 8    1  0.1865596E-007  0.1677645E+03  0.7546771E-02  0.1180201E+00
         -5   -1    0    0    0  501 -0.00000000000E+00  0.00000000000E+00  0.28528239963E+03  0.28532111302E+03  0.47000000000E+01 0. -1.
          5   -1    0    0  501    0  0.00000000000E+00 -0.00000000000E+00 -0.13374742488E+03  0.13382998043E+03  0.47000000000E+01 0. -1.
         25    2    1    2    0    0  0.73331999358E+02  0.84511088466E+02  0.18321962265E+03  0.24842072664E+03  0.12499488428E+03 0.  0.
         25    2    1    2    0    0 -0.73331999358E+02 -0.84511088466E+02 -0.31684647907E+02  0.17073036682E+03  0.12500094015E+03 0.  0.
          5    1    3    3  502    0  0.99274958033E+02  0.89186521508E+02  0.17555137612E+03  0.22056774145E+03  0.47000000000E+01 0. -1.
         -5    1    3    3    0  502 -0.25942958675E+02 -0.46754330426E+01  0.76682465311E+01  0.27852985187E+02  0.47000000000E+01 0. -1.
          5    1    4    4  503    0 -0.10681365982E+03 -0.62182775947E+02 -0.83327253706E+01  0.12396523650E+03  0.47000000000E+01 0.  1.
         -5    1    4    4    0  503  0.33481660463E+02 -0.22328312519E+02 -0.23351922537E+02  0.46765130316E+02  0.47000000000E+01 0.  1.
<mgrwt>
<rscale>  0 0.16776341E+03</rscale>
<asrwt>0</asrwt>
<pdfrwt beam="2">  1        5 0.20585855E-01 0.16776454E+03</pdfrwt>
<pdfrwt beam="1">  1       -5 0.43898928E-01 0.16776454E+03</pdfrwt>
<totfact> 0.84028729E+01</totfact>
</mgrwt>
</event>
<event>
 8    1  0.1865596E-007  0.1271928E+03  0.7546771E-02  0.1231684E+00
         -5   -1    0    0    0  501 -0.00000000000E+00  0.00000000000E+00  0.36027264775E+02  0.36332544739E+02  0.47000000000E+01 0.  1.
          5   -1    0    0  501    0  0.00000000000E+00 -0.00000000000E+00 -0.48592323562E+03  0.48594596502E+03  0.47000000000E+01 0.  1.
         25    2    1    2    0    0 -0.40137310084E+01 -0.23136805299E+02 -0.15089388723E+03  0.19734988667E+03  0.12500636292E+03 0.  0.
         25    2    1    2    0    0  0.40137310084E+01  0.23136805299E+02 -0.29900208362E+03  0.32492862309E+03  0.12499976919E+03 0.  0.
          5    1    4    4  502    0  0.42978294607E+00  0.73260392183E+02 -0.21194972957E+03  0.22430347220E+03  0.47000000000E+01 0. -1.
         -5    1    4    4    0  502  0.35839480623E+01 -0.50123586883E+02 -0.87052354044E+02  0.10062515088E+03  0.47000000000E+01 0. -1.
          5    1    3    3  503    0 -0.35672862777E+01 -0.32039479408E+02  0.11571491499E+02  0.34572289303E+02  0.47000000000E+01 0. -1.
         -5    1    3    3    0  503 -0.44644473062E+00  0.89026741088E+01 -0.16246537873E+03  0.16277759737E+03  0.47000000000E+01 0. -1.
<mgrwt>
<rscale>  0 0.12719120E+03</rscale>
<asrwt>0</asrwt>
<pdfrwt beam="2">  1        5 0.74782648E-01 0.12719282E+03</pdfrwt>
<pdfrwt beam="1">  1       -5 0.55678880E-02 0.12719282E+03</pdfrwt>
<totfact> 0.24164145E+02</totfact>
</mgrwt>
</event>
<event>
 8    1  0.1865596E-007  0.1402919E+03  0.7546771E-02  0.1212949E+00
          5   -1    0    0  501    0  0.00000000000E+00  0.00000000000E+00  0.12156063067E+03  0.12165145675E+03  0.47000000000E+01 0.  1.
         -5   -1    0    0    0  501 -0.00000000000E+00 -0.00000000000E+00 -0.17881583702E+03  0.17887759381E+03  0.47000000000E+01 0.  1.
         25    2    1    2    0    0 -0.63365956294E+02 -0.55218967579E+01 -0.75122312197E+02  0.15913885704E+03  0.12504430523E+03 0.  0.
         25    2    1    2    0    0  0.63365956294E+02  0.55218967579E+01  0.17867105851E+02  0.14139019352E+03  0.12500487027E+03 0.  0.
          5    1    4    4  502    0  0.28756350935E+02  0.55851992193E+02  0.41818523172E+02  0.75612509754E+02  0.47000000000E+01 0. -1.
         -5    1    4    4    0  502  0.34609605359E+02 -0.50330095435E+02 -0.23951417321E+02  0.65777683763E+02  0.47000000000E+01 0. -1.
          5    1    3    3  503    0 -0.48301938010E+02 -0.27965365509E+02 -0.10473419591E+03  0.11877070631E+03  0.47000000000E+01 0. -1.
         -5    1    3    3    0  503 -0.15064018284E+02  0.22443468751E+02  0.29611883716E+02  0.40368150734E+02  0.47000000000E+01 0. -1.
<mgrwt>
<rscale>  0 0.14028310E+03</rscale>
<asrwt>0</asrwt>
<pdfrwt beam="1">  1        5 0.18713373E-01 0.14029189E+03</pdfrwt>
<pdfrwt beam="2">  1       -5 0.27521866E-01 0.14029189E+03</pdfrwt>
<totfact> 0.24227245E+02</totfact>
</mgrwt>
</event>
<event>
 8    1  0.1865596E-007  0.1299387E+03  0.7546771E-02  0.1227547E+00
          5   -1    0    0  501    0  0.00000000000E+00  0.00000000000E+00  0.14707045714E+03  0.14714553803E+03  0.47000000000E+01 0. -1.
         -5   -1    0    0    0  501 -0.00000000000E+00 -0.00000000000E+00 -0.12281839157E+03  0.12290828820E+03  0.47000000000E+01 0. -1.
         25    2    1    2    0    0  0.35418521185E+02 -0.21714742634E+01 -0.22672674894E+02  0.13190187233E+03  0.12499946717E+03 0.  0.
         25    2    1    2    0    0 -0.35418521185E+02  0.21714742634E+01  0.46924740466E+02  0.13815195390E+03  0.12499937662E+03 0.  0.
          5    1    4    4  502    0 -0.35221014989E+02  0.13435892282E+02 -0.37186298225E+02  0.53159701598E+02  0.47000000000E+01 0. -1.
         -5    1    4    4    0  502 -0.19750619589E+00 -0.11264418019E+02  0.84111038691E+02  0.84992252304E+02  0.47000000000E+01 0. -1.
          5    1    3    3  503    0 -0.24089041003E+02 -0.39973042346E+02 -0.37079939383E+02  0.59792457012E+02  0.47000000000E+01 0. -1.
         -5    1    3    3    0  503  0.59507562188E+02  0.37801568083E+02  0.14407264489E+02  0.72109415316E+02  0.47000000000E+01 0. -1.
<mgrwt>
<rscale>  0 0.12993863E+03</rscale>
<asrwt>0</asrwt>
<pdfrwt beam="1">  1        5 0.22638915E-01 0.12993865E+03</pdfrwt>
<pdfrwt beam="2">  1       -5 0.18907828E-01 0.12993865E+03</pdfrwt>
<totfact> 0.33640550E+02</totfact>
</mgrwt>
</event>
<event>
 8    1  0.1865596E-007  0.1402095E+03  0.7546771E-02  0.1213050E+00
          5   -1    0    0  501    0  0.00000000000E+00  0.00000000000E+00  0.42674913924E+02  0.42932950964E+02  0.47000000000E+01 0.  1.
         -5   -1    0    0    0  501 -0.00000000000E+00 -0.00000000000E+00 -0.49315044371E+03  0.49317284002E+03  0.47000000000E+01 0.  1.
         25    2    1    2    0    0 -0.50659055083E+02  0.38273226130E+02 -0.29577157880E+03  0.32731875812E+03  0.12500225154E+03 0.  0.
         25    2    1    2    0    0  0.50659055083E+02 -0.38273226130E+02 -0.15470395098E+03  0.20878703286E+03  0.12501013135E+03 0.  0.
          5    1    3    3  502    0 -0.29151332080E+02  0.80484495828E+02 -0.23480724017E+03  0.24996816651E+03  0.47000000000E+01 0.  1.
         -5    1    3    3    0  502 -0.21507723003E+02 -0.42211269698E+02 -0.60964338634E+02  0.77350591616E+02  0.47000000000E+01 0.  1.
          5    1    4    4  503    0 -0.25890465192E+02 -0.45911772426E+02 -0.10353522058E+03  0.11627484223E+03  0.47000000000E+01 0.  1.
         -5    1    4    4    0  503  0.76549520275E+02  0.76385462960E+01 -0.51168730401E+02  0.92512190628E+02  0.47000000000E+01 0.  1.
<mgrwt>
<rscale>  0 0.14020777E+03</rscale>
<asrwt>0</asrwt>
<pdfrwt beam="1">  1        5 0.65869435E-02 0.14020953E+03</pdfrwt>
<pdfrwt beam="2">  1       -5 0.75890867E-01 0.14020953E+03</pdfrwt>
<totfact> 0.18213835E+02</totfact>
</mgrwt>
</event>
<event>
 8    1  0.1865596E-007  0.1255421E+03  0.7546771E-02  0.1234225E+00
          5   -1    0    0  501    0  0.00000000000E+00  0.00000000000E+00  0.36194159732E+03  0.36197211201E+03  0.47000000000E+01 0.  1.
         -5   -1    0    0    0  501 -0.00000000000E+00 -0.00000000000E+00 -0.44247415875E+02  0.44496334811E+02  0.47000000000E+01 0.  1.
         25    2    1    2    0    0 -0.11649077169E+02  0.44337179780E+00  0.13057620059E+03  0.18113796162E+03  0.12499967761E+03 0.  0.
         25    2    1    2    0    0  0.11649077169E+02 -0.44337179780E+00  0.18711798086E+03  0.22533048520E+03  0.12499916488E+03 0.  0.
          5    1    3    3  502    0  0.34475159717E+02  0.15391686726E+02 -0.37700306844E+01  0.38232758063E+02  0.47000000000E+01 0. -1.
         -5    1    3    3    0  502 -0.46124236886E+02 -0.14948314928E+02  0.13434623127E+03  0.14290520356E+03  0.47000000000E+01 0. -1.
          5    1    4    4  503    0  0.14299230420E+02 -0.53731696146E+02  0.15033186339E+03  0.16035374118E+03  0.47000000000E+01 0. -1.
         -5    1    4    4    0  503 -0.26501532507E+01  0.53288324348E+02  0.36786117473E+02  0.64976744016E+02  0.47000000000E+01 0. -1.
<mgrwt>
<rscale>  0 0.12554196E+03</rscale>
<asrwt>0</asrwt>
<pdfrwt beam="1">  1        5 0.55704819E-01 0.12554209E+03</pdfrwt>
<pdfrwt beam="2">  1       -5 0.68287895E-02 0.12554209E+03</pdfrwt>
<totfact> 0.32765153E+02</totfact>
</mgrwt>
</event>
<event>
 8    1  0.1865596E-007  0.1695592E+03  0.7546771E-02  0.1178315E+00
          5   -1    0    0  501    0  0.00000000000E+00  0.00000000000E+00  0.19753343707E+03  0.19758934374E+03  0.47000000000E+01 0.  1.
         -5   -1    0    0    0  501 -0.00000000000E+00 -0.00000000000E+00 -0.14644829598E+03  0.14652369568E+03  0.47000000000E+01 0.  1.
         25    2    1    2    0    0 -0.32821709430E+02  0.10973016681E+03  0.11068541431E+02  0.16989578567E+03  0.12499636499E+03 0.  0.
         25    2    1    2    0    0  0.32821709430E+02 -0.10973016681E+03  0.40016599654E+02  0.17421725375E+03  0.12502939310E+03 0.  0.
          5    1    4    4  502    0  0.53710102354E+01  0.42280964470E+01 -0.34338263258E+02  0.35326065081E+02  0.47000000000E+01 0. -1.
         -5    1    4    4    0  502  0.27450699195E+02 -0.11395826326E+03  0.74354862912E+02  0.13889118867E+03  0.47000000000E+01 0. -1.
          5    1    3    3  503    0  0.18288771135E+02 -0.27475200770E+01 -0.33433362283E+02  0.38495554675E+02  0.47000000000E+01 0.  1.
         -5    1    3    3    0  503 -0.51110480566E+02  0.11247768689E+03  0.44501903714E+02  0.13140023099E+03  0.47000000000E+01 0.  1.
<mgrwt>
<rscale>  0 0.16955311E+03</rscale>
<asrwt>0</asrwt>
<pdfrwt beam="1">  1        5 0.30399860E-01 0.16955920E+03</pdfrwt>
<pdfrwt beam="2">  1       -5 0.22540608E-01 0.16955920E+03</pdfrwt>
<totfact> 0.14951295E+02</totfact>
</mgrwt>
</event>
<event>
 8    1  0.1865596E-007  0.2095858E+03  0.7546771E-02  0.1141894E+00
          5   -1    0    0  501    0  0.00000000000E+00  0.00000000000E+00  0.33354977481E+03  0.33358288666E+03  0.47000000000E+01 0. -1.
         -5   -1    0    0    0  501 -0.00000000000E+00 -0.00000000000E+00 -0.13817786435E+03  0.13825777445E+03  0.47000000000E+01 0. -1.
         25    2    1    2    0    0  0.66093830277E+02  0.15470354362E+03  0.46278503363E+02  0.21463440463E+03  0.12499858785E+03 0.  0.
         25    2    1    2    0    0 -0.66093830277E+02 -0.15470354362E+03  0.14909340709E+03  0.25720625649E+03  0.12499853411E+03 0.  0.
          5    1    3    3  502    0 -0.20493397096E+02  0.10966781106E+03  0.29454785540E+02  0.11548455524E+03  0.47000000000E+01 0.  1.
         -5    1    3    3    0  502  0.86587227374E+02  0.45035732562E+02  0.16823717823E+02  0.99149849385E+02  0.47000000000E+01 0.  1.
          5    1    4    4  503    0  0.29933023298E+02 -0.52741655135E+02  0.81282231732E+02  0.10152122569E+03  0.47000000000E+01 0. -1.
         -5    1    4    4    0  503 -0.96026853576E+02 -0.10196188849E+03  0.67811175360E+02  0.15568503080E+03  0.47000000000E+01 0.  1.
<mgrwt>
<rscale>  0 0.20958584E+03</rscale>
<asrwt>0</asrwt>
<pdfrwt beam="1">  1        5 0.51324043E-01 0.20958585E+03</pdfrwt>
<pdfrwt beam="2">  1       -5 0.21266827E-01 0.20958585E+03</pdfrwt>
<totfact> 0.60407694E+01</totfact>
</mgrwt>
</event>
<event>
 8    1  0.1865596E-007  0.1333172E+03  0.7546771E-02  0.1222617E+00
          5   -1    0    0  501    0  0.00000000000E+00  0.00000000000E+00  0.64947648266E+02  0.65117486248E+02  0.47000000000E+01 0. -1.
         -5   -1    0    0    0  501 -0.00000000000E+00 -0.00000000000E+00 -0.34130133854E+03  0.34133369844E+03  0.47000000000E+01 0. -1.
         25    2    1    2    0    0  0.50770495620E+01 -0.46064891499E+02 -0.22899305789E+03  0.26497144300E+03  0.12499717750E+03 0.  0.
         25    2    1    2    0    0 -0.50770495620E+01  0.46064891499E+02 -0.47360632387E+02  0.14147974169E+03  0.12500294855E+03 0.  0.
          5    1    3    3  502    0  0.27210861364E+02 -0.43507177626E+02 -0.20853824417E+02  0.55590264201E+02  0.47000000000E+01 0.  1.
         -5    1    3    3    0  502 -0.22133811802E+02 -0.25577138735E+01 -0.20813923347E+03  0.20938117880E+03  0.47000000000E+01 0.  1.
          5    1    4    4  503    0  0.33002375943E+02 -0.31029244595E+02 -0.27168179590E+02  0.53029904961E+02  0.47000000000E+01 0. -1.
         -5    1    4    4    0  503 -0.38079425505E+02  0.77094136094E+02 -0.20192452797E+02  0.88449836726E+02  0.47000000000E+01 0. -1.
<mgrwt>
<rscale>  0 0.13331589E+03</rscale>
<asrwt>0</asrwt>
<pdfrwt beam="1">  1        5 0.10007500E-01 0.13331724E+03</pdfrwt>
<pdfrwt beam="2">  1       -5 0.52523451E-01 0.13331724E+03</pdfrwt>
<totfact> 0.19701369E+02</totfact>
</mgrwt>
</event>
<event>
 8    1  0.1865596E-007  0.1353988E+03  0.7546771E-02  0.1219660E+00
         -5   -1    0    0    0  501 -0.00000000000E+00  0.00000000000E+00  0.28080478440E+03  0.28084411502E+03  0.47000000000E+01 0. -1.
          5   -1    0    0  501    0  0.00000000000E+00 -0.00000000000E+00 -0.67945768719E+02  0.68108130843E+02  0.47000000000E+01 0. -1.
         25    2    1    2    0    0  0.45261501235E+02  0.25674728929E+02  0.14173474289E+03  0.19601422829E+03  0.12500018060E+03 0.  0.
         25    2    1    2    0    0 -0.45261501235E+02 -0.25674728929E+02  0.71124272787E+02  0.15293801757E+03  0.12499431923E+03 0.  0.
          5    1    3    3  502    0  0.59840958752E+00  0.60585715963E+02  0.24150254955E+02  0.65393515635E+02  0.47000000000E+01 0. -1.
         -5    1    3    3    0  502  0.44663091647E+02 -0.34910987034E+02  0.11758448794E+03  0.13062071266E+03  0.47000000000E+01 0. -1.
          5    1    4    4  503    0  0.23003120442E+02 -0.20167125125E+02 -0.21472861947E+02  0.37670018398E+02  0.47000000000E+01 0. -1.
         -5    1    4    4    0  503 -0.68264621677E+02 -0.55076038031E+01  0.92597134735E+02  0.11526799917E+03  0.47000000000E+01 0. -1.
<mgrwt>
<rscale>  0 0.13539747E+03</rscale>
<asrwt>0</asrwt>
<pdfrwt beam="2">  1        5 0.10468710E-01 0.13539882E+03</pdfrwt>
<pdfrwt beam="1">  1       -5 0.43216251E-01 0.13539882E+03</pdfrwt>
<totfact> 0.27581925E+02</totfact>
</mgrwt>
</event>
<event>
 8    1  0.1865596E-007  0.2001429E+03  0.7546771E-02  0.1149620E+00
          5   -1    0    0  501    0  0.00000000000E+00  0.00000000000E+00  0.50265872653E+03  0.50268069921E+03  0.47000000000E+01 0. -1.
         -5   -1    0    0    0  501 -0.00000000000E+00 -0.00000000000E+00 -0.99317276394E+02  0.99428423453E+02  0.47000000000E+01 0. -1.
         25    2    1    2    0    0  0.20191139703E+02  0.15499088495E+03  0.67610510496E+02  0.21124794177E+03  0.12499862092E+03 0.  0.
         25    2    1    2    0    0 -0.20191139703E+02 -0.15499088495E+03  0.33573093964E+03  0.39086118089E+03  0.12500936908E+03 0.  0.
          5    1    4    4  502    0  0.16848825806E+02 -0.16130012967E+03  0.27485791641E+03  0.31917170767E+03  0.47000000000E+01 0.  1.
         -5    1    4    4    0  502 -0.37039965510E+02  0.63092447202E+01  0.60873023234E+02  0.71689473227E+02  0.47000000000E+01 0.  1.
          5    1    3    3  503    0 -0.43740908881E+01  0.76661830498E+02 -0.30923474415E+02  0.82912726383E+02  0.47000000000E+01 0. -1.
         -5    1    3    3    0  503  0.24565230592E+02  0.78329054454E+02  0.98533984911E+02  0.12833521539E+03  0.47000000000E+01 0. -1.
<mgrwt>
<rscale>  0 0.20014127E+03</rscale>
<asrwt>0</asrwt>
<pdfrwt beam="1">  1        5 0.77342352E-01 0.20014295E+03</pdfrwt>
<pdfrwt beam="2">  1       -5 0.15289821E-01 0.20014295E+03</pdfrwt>
<totfact> 0.44221893E+01</totfact>
</mgrwt>
</event>
<event>
 8    1  0.1865596E-007  0.1304625E+03  0.7546771E-02  0.1226795E+00
         -5   -1    0    0    0  501 -0.00000000000E+00  0.00000000000E+00  0.57419831484E+02  0.57611865511E+02  0.47000000000E+01 0. -1.
          5   -1    0    0  501    0  0.00000000000E+00 -0.00000000000E+00 -0.32156040593E+03  0.32159475223E+03  0.47000000000E+01 0. -1.
         25    2    1    2    0    0  0.31298950388E+02 -0.19941866674E+02 -0.78212772807E+02  0.15211084977E+03  0.12507266067E+03 0.  0.
         25    2    1    2    0    0 -0.31298950388E+02  0.19941866674E+02 -0.18592780164E+03  0.22709576797E+03  0.12500415219E+03 0.  0.
          5    1    4    4  502    0 -0.34701319138E+02  0.34103858140E+02 -0.92402543839E+01  0.49746627937E+02  0.47000000000E+01 0. -1.
         -5    1    4    4    0  502  0.34023687507E+01 -0.14161991467E+02 -0.17668754725E+03  0.17734914003E+03  0.47000000000E+01 0. -1.
          5    1    3    3  503    0  0.62677440172E+02  0.21945322179E+02 -0.12110210034E+02  0.67666874164E+02  0.47000000000E+01 0. -1.
         -5    1    3    3    0  503 -0.31378489784E+02 -0.41887188853E+02 -0.66102562773E+02  0.84443975607E+02  0.47000000000E+01 0. -1.
<mgrwt>
<rscale>  0 0.13044611E+03</rscale>
<asrwt>0</asrwt>
<pdfrwt beam="2">  1        5 0.49488244E-01 0.13046253E+03</pdfrwt>
<pdfrwt beam="1">  1       -5 0.88512343E-02 0.13046253E+03</pdfrwt>
<totfact> 0.27455888E+02</totfact>
</mgrwt>
</event>
<event>
 8    1  0.1865596E-007  0.1258045E+03  0.7546771E-02  0.1233818E+00
         -5   -1    0    0    0  501 -0.00000000000E+00  0.00000000000E+00  0.53426729002E+02  0.53633062302E+02  0.47000000000E+01 0.  1.
          5   -1    0    0  501    0  0.00000000000E+00 -0.00000000000E+00 -0.29555316138E+03  0.29559052962E+03  0.47000000000E+01 0.  1.
         25    2    1    2    0    0 -0.13416908114E+02  0.46660400103E+01 -0.11753681774E+03  0.17216615071E+03  0.12499797828E+03 0.  0.
         25    2    1    2    0    0  0.13416908114E+02 -0.46660400103E+01 -0.12458961464E+03  0.17705744122E+03  0.12499992024E+03 0.  0.
          5    1    4    4  502    0 -0.31372480271E+02 -0.50873195802E+02 -0.72874692233E+02  0.94366971646E+02  0.47000000000E+01 0. -1.
         -5    1    4    4    0  502  0.44789388385E+02  0.46207155792E+02 -0.51714922405E+02  0.82690469570E+02  0.47000000000E+01 0. -1.
          5    1    3    3  503    0 -0.53938684306E+02  0.21645827594E+02 -0.14545596043E+02  0.60096488093E+02  0.47000000000E+01 0.  1.
         -5    1    3    3    0  503  0.40521776192E+02 -0.16979787584E+02 -0.10299122170E+03  0.11206966262E+03  0.47000000000E+01 0.  1.
<mgrwt>
<rscale>  0 0.12580399E+03</rscale>
<asrwt>0</asrwt>
<pdfrwt beam="2">  1        5 0.45488463E-01 0.12580447E+03</pdfrwt>
<pdfrwt beam="1">  1       -5 0.82382432E-02 0.12580447E+03</pdfrwt>
<totfact> 0.36584988E+02</totfact>
</mgrwt>
</event>
<event>
 8    1  0.1865596E-007  0.1260965E+03  0.7546771E-02  0.1233366E+00
          5   -1    0    0  501    0  0.00000000000E+00  0.00000000000E+00  0.15532792069E+03  0.15539901204E+03  0.47000000000E+01 0. -1.
         -5   -1    0    0    0  501 -0.00000000000E+00 -0.00000000000E+00 -0.12579732383E+03  0.12588509317E+03  0.47000000000E+01 0. -1.
         25    2    1    2    0    0  0.28907604266E+01  0.16332468548E+02 -0.46085404371E+02  0.13425314981E+03  0.12499975085E+03 0.  0.
         25    2    1    2    0    0 -0.28907604266E+01 -0.16332468548E+02  0.75616001229E+02  0.14703095540E+03  0.12500086472E+03 0.  0.
          5    1    3    3  502    0  0.90029136020E+01  0.69328329715E+02 -0.12885308353E+02  0.71243181609E+02  0.47000000000E+01 0.  1.
         -5    1    3    3    0  502 -0.61121531754E+01 -0.52995861167E+02 -0.33200096018E+02  0.63009968203E+02  0.47000000000E+01 0.  1.
          5    1    4    4  503    0  0.60300085406E+02 -0.53679631417E+01  0.46289112826E+02  0.76352388925E+02  0.47000000000E+01 0. -1.
         -5    1    4    4    0  503 -0.63190845833E+02 -0.10964505406E+02  0.29326888403E+02  0.70678566477E+02  0.47000000000E+01 0. -1.
<mgrwt>
<rscale>  0 0.12609620E+03</rscale>
<asrwt>0</asrwt>
<pdfrwt beam="1">  1        5 0.23908823E-01 0.12609648E+03</pdfrwt>
<pdfrwt beam="2">  1       -5 0.19365654E-01 0.12609648E+03</pdfrwt>
<totfact> 0.28698518E+02</totfact>
</mgrwt>
</event>
<event>
 8    1  0.1865596E-007  0.1324391E+03  0.7546771E-02  0.1223885E+00
         -5   -1    0    0    0  501 -0.00000000000E+00  0.00000000000E+00  0.23503680571E+02  0.23969000821E+02  0.47000000000E+01 0.  1.
          5   -1    0    0  501    0  0.00000000000E+00 -0.00000000000E+00 -0.75598270177E+03  0.75599731175E+03  0.47000000000E+01 0.  1.
         25    2    1    2    0    0  0.45055215588E+01  0.43620448519E+02 -0.30679075472E+03  0.33415176030E+03  0.12495514585E+03 0.  0.
         25    2    1    2    0    0 -0.45055215588E+01 -0.43620448519E+02 -0.42568826647E+03  0.44581455227E+03  0.12496828217E+03 0.  0.
          5    1    4    4  502    0 -0.28165470310E+02 -0.82062007832E+02 -0.26881385268E+03  0.28250742334E+03  0.47000000000E+01 0.  1.
         -5    1    4    4    0  502  0.23659948751E+02  0.38441559313E+02 -0.15687441379E+03  0.16330712893E+03  0.47000000000E+01 0.  1.
          5    1    3    3  503    0 -0.53696379868E+02 -0.71555661659E+01 -0.11033255656E+03  0.12300352180E+03  0.47000000000E+01 0. -1.
         -5    1    3    3    0  503  0.58201901427E+02  0.50776014685E+02 -0.19645819816E+03  0.21114823850E+03  0.47000000000E+01 0. -1.
<mgrwt>
<rscale>  0 0.13243600E+03</rscale>
<asrwt>0</asrwt>
<pdfrwt beam="2">  1        5 0.11634193E+00 0.13243910E+03</pdfrwt>
<pdfrwt beam="1">  1       -5 0.36528692E-02 0.13243910E+03</pdfrwt>
<totfact> 0.17063683E+02</totfact>
</mgrwt>
</event>
<event>
 8    1  0.1865596E-007  0.1466879E+03  0.7546771E-02  0.1204613E+00
          5   -1    0    0  501    0  0.00000000000E+00  0.00000000000E+00  0.34430966906E+03  0.34434174625E+03  0.47000000000E+01 0.  1.
         -5   -1    0    0    0  501 -0.00000000000E+00 -0.00000000000E+00 -0.66708403186E+02  0.66873769563E+02  0.47000000000E+01 0.  1.
         25    2    1    2    0    0 -0.31647597065E+02  0.69897098903E+02  0.86380944560E+02  0.17023217553E+03  0.12502060297E+03 0.  0.
         25    2    1    2    0    0  0.31647597065E+02 -0.69897098903E+02  0.19122032132E+03  0.24098334029E+03  0.12498233545E+03 0.  0.
          5    1    3    3  502    0 -0.25135028827E+02 -0.76651661319E+01 -0.23452303209E+02  0.35533434562E+02  0.47000000000E+01 0.  1.
         -5    1    3    3    0  502 -0.65125682383E+01  0.77562265035E+02  0.10983324777E+03  0.13469874097E+03  0.47000000000E+01 0.  1.
          5    1    4    4  503    0  0.79572298549E+02 -0.44622357170E+02  0.10652058096E+03  0.14032686707E+03  0.47000000000E+01 0.  1.
         -5    1    4    4    0  503 -0.47924701483E+02 -0.25274741734E+02  0.84699740364E+02  0.10065647321E+03  0.47000000000E+01 0.  1.
<mgrwt>
<rscale>  0 0.14667970E+03</rscale>
<asrwt>0</asrwt>
<pdfrwt beam="1">  1        5 0.52985906E-01 0.14668785E+03</pdfrwt>
<pdfrwt beam="2">  1       -5 0.10278019E-01 0.14668785E+03</pdfrwt>
<totfact> 0.19050363E+02</totfact>
</mgrwt>
</event>
<event>
 8    1  0.1865596E-007  0.1412889E+03  0.7546771E-02  0.1211606E+00
          5   -1    0    0  501    0  0.00000000000E+00  0.00000000000E+00  0.10121557296E+03  0.10132463773E+03  0.47000000000E+01 0. -1.
         -5   -1    0    0    0  501 -0.00000000000E+00 -0.00000000000E+00 -0.27153248031E+03  0.27157315380E+03  0.47000000000E+01 0. -1.
         25    2    1    2    0    0  0.11275697989E+02 -0.64878999433E+02 -0.18282704645E+03  0.23105906632E+03  0.12500454905E+03 0.  0.
         25    2    1    2    0    0 -0.11275697989E+02  0.64878999433E+02  0.12510139101E+02  0.14183872520E+03  0.12500117781E+03 0.  0.
          5    1    3    3  502    0  0.37926601833E+02  0.12875860375E+02 -0.13072626137E+02  0.42393377562E+02  0.47000000000E+01 0.  1.
         -5    1    3    3    0  502 -0.26650903845E+02 -0.77754859808E+02 -0.16975442031E+03  0.18866568876E+03  0.47000000000E+01 0.  1.
          5    1    4    4  503    0  0.51642762990E+02  0.13327740418E+02 -0.15404259586E+02  0.55713417121E+02  0.47000000000E+01 0.  1.
         -5    1    4    4    0  503 -0.62918460979E+02  0.51551259015E+02  0.27914398688E+02  0.86125308081E+02  0.47000000000E+01 0.  1.
<mgrwt>
<rscale>  0 0.14128819E+03</rscale>
<asrwt>0</asrwt>
<pdfrwt beam="1">  1        5 0.15583145E-01 0.14128894E+03</pdfrwt>
<pdfrwt beam="2">  1       -5 0.41785746E-01 0.14128894E+03</pdfrwt>
<totfact> 0.14753352E+02</totfact>
</mgrwt>
</event>
<event>
 8    1  0.1865596E-007  0.1366537E+03  0.7546771E-02  0.1217905E+00
          5   -1    0    0  501    0  0.00000000000E+00  0.00000000000E+00  0.15819635900E+03  0.15826616189E+03  0.47000000000E+01 0.  1.
         -5   -1    0    0    0  501 -0.00000000000E+00 -0.00000000000E+00 -0.12045019270E+03  0.12054185547E+03  0.47000000000E+01 0.  1.
         25    2    1    2    0    0  0.47586665458E+02  0.28017720597E+02 -0.13954223878E+01  0.13665919248E+03  0.12499721713E+03 0.  0.
         25    2    1    2    0    0 -0.47586665458E+02 -0.28017720597E+02  0.39141588687E+02  0.14214882488E+03  0.12499896421E+03 0.  0.
          5    1    3    3  502    0  0.49736781881E+01  0.25162594637E+02  0.57860499553E+02  0.63465116813E+02  0.47000000000E+01 0. -1.
         -5    1    3    3    0  502  0.42612987270E+02  0.28551259600E+01 -0.59255921941E+02  0.73194075672E+02  0.47000000000E+01 0. -1.
          5    1    4    4  503    0 -0.61336187865E+02 -0.44117849779E+02  0.70882611405E+02  0.10370606159E+03  0.47000000000E+01 0. -1.
         -5    1    4    4    0  503  0.13749522407E+02  0.16100129182E+02 -0.31741022718E+02  0.38442763289E+02  0.47000000000E+01 0. -1.
<mgrwt>
<rscale>  0 0.13665327E+03</rscale>
<asrwt>0</asrwt>
<pdfrwt beam="1">  1        5 0.24350322E-01 0.13665367E+03</pdfrwt>
<pdfrwt beam="2">  1       -5 0.18543219E-01 0.13665367E+03</pdfrwt>
<totfact> 0.30910422E+02</totfact>
</mgrwt>
</event>
<event>
 8    1  0.1865596E-007  0.1258944E+03  0.7546771E-02  0.1233690E+00
         -5   -1    0    0    0  501 -0.00000000000E+00  0.00000000000E+00  0.10915396505E+02  0.11884270313E+02  0.47000000000E+01 0. -1.
          5   -1    0    0  501    0  0.00000000000E+00 -0.00000000000E+00 -0.14909205504E+04  0.14909279585E+04  0.47000000000E+01 0. -1.
         25    2    1    2    0    0 -0.13913660649E+02  0.48917398508E+01 -0.54351868138E+03  0.55790148861E+03  0.12499597960E+03 0.  0.
         25    2    1    2    0    0  0.13913660649E+02 -0.48917398508E+01 -0.93648647250E+03  0.94491074024E+03  0.12502749608E+03 0.  0.
          5    1    3    3  502    0 -0.12890604618E+02  0.52831449478E+02 -0.44389929953E+03  0.44724267223E+03  0.47000000000E+01 0. -1.
         -5    1    3    3    0  502 -0.10230560314E+01 -0.47939709627E+02 -0.99619381851E+02  0.11065881638E+03  0.47000000000E+01 0. -1.
          5    1    4    4  503    0 -0.35128882045E+02  0.43699922283E+02 -0.38147538314E+03  0.38560248897E+03  0.47000000000E+01 0.  1.
         -5    1    4    4    0  503  0.49042542695E+02 -0.48591662134E+02 -0.55501108937E+03  0.55930825127E+03  0.47000000000E+01 0.  1.
<mgrwt>
<rscale>  0 0.12588655E+03</rscale>
<asrwt>0</asrwt>
<pdfrwt beam="2">  1        5 0.22944734E+00 0.12589438E+03</pdfrwt>
<pdfrwt beam="1">  1       -5 0.17543916E-02 0.12589438E+03</pdfrwt>
<totfact> 0.77825341E+01</totfact>
</mgrwt>
</event>
<event>
 8    1  0.1865596E-007  0.1271420E+03  0.7546771E-02  0.1231761E+00
          5   -1    0    0  501    0  0.00000000000E+00  0.00000000000E+00  0.16496415250E+02  0.17152892354E+02  0.47000000000E+01 0.  1.
         -5   -1    0    0    0  501 -0.00000000000E+00 -0.00000000000E+00 -0.11369180535E+04  0.11369277683E+04  0.47000000000E+01 0.  1.
         25    2    1    2    0    0 -0.18797626421E+02 -0.13608766427E+02 -0.78770321804E+03  0.79789721449E+03  0.12500022360E+03 0.  0.
         25    2    1    2    0    0  0.18797626421E+02  0.13608766427E+02 -0.33271842017E+03  0.35618344614E+03  0.12500620346E+03 0.  0.
          5    1    3    3  502    0 -0.68403434082E+02 -0.16265207681E+02 -0.58093427420E+03  0.58519253901E+03  0.47000000000E+01 0. -1.
         -5    1    3    3    0  502  0.49605807661E+02  0.26564412532E+01 -0.20676894384E+03  0.21270467547E+03  0.47000000000E+01 0. -1.
          5    1    4    4  503    0  0.29796238618E+02  0.60345259158E+02 -0.11628248625E+03  0.13443612888E+03  0.47000000000E+01 0. -1.
         -5    1    4    4    0  503 -0.10998612197E+02 -0.46736492731E+02 -0.21643593392E+03  0.22174731726E+03  0.47000000000E+01 0. -1.
<mgrwt>
<rscale>  0 0.12714058E+03</rscale>
<asrwt>0</asrwt>
<pdfrwt beam="1">  1        5 0.25891565E-02 0.12714205E+03</pdfrwt>
<pdfrwt beam="2">  1       -5 0.17496165E+00 0.12714205E+03</pdfrwt>
<totfact> 0.97995216E+01</totfact>
</mgrwt>
</event>
<event>
 8    1  0.1865596E-007  0.1355973E+03  0.7546771E-02  0.1219403E+00
          5   -1    0    0  501    0  0.00000000000E+00  0.00000000000E+00  0.17817894398E+02  0.18427353602E+02  0.47000000000E+01 0.  1.
         -5   -1    0    0    0  501 -0.00000000000E+00 -0.00000000000E+00 -0.11015966813E+04  0.11016067076E+04  0.47000000000E+01 0.  1.
         25    2    1    2    0    0 -0.52518967631E+02  0.12980946474E+01 -0.70040620337E+03  0.71341116488E+03  0.12500685356E+03 0.  0.
         25    2    1    2    0    0  0.52518967631E+02 -0.12980946474E+01 -0.38337258356E+03  0.40662289636E+03  0.12493084092E+03 0.  0.
          5    1    3    3  502    0 -0.44045571937E+02 -0.29082924284E+02 -0.10952633599E+03  0.12167143119E+03  0.47000000000E+01 0.  1.
         -5    1    3    3    0  502 -0.84733956946E+01  0.30381018932E+02 -0.59087986739E+03  0.59173973369E+03  0.47000000000E+01 0.  1.
          5    1    4    4  503    0 -0.20039749766E+02  0.43845706504E+02 -0.16878860234E+03  0.17560102456E+03  0.47000000000E+01 0.  1.
         -5    1    4    4    0  503  0.72558717398E+02 -0.45143801151E+02 -0.21458398122E+03  0.23102187180E+03  0.47000000000E+01 0.  1.
<mgrwt>
<rscale>  0 0.13557983E+03</rscale>
<asrwt>0</asrwt>
<pdfrwt beam="1">  1        5 0.27888681E-02 0.13559735E+03</pdfrwt>
<pdfrwt beam="2">  1       -5 0.16952401E+00 0.13559735E+03</pdfrwt>
<totfact> 0.97209908E+01</totfact>
</mgrwt>
</event>
<event>
 8    1  0.1865596E-007  0.1448350E+03  0.7546771E-02  0.1206969E+00
          5   -1    0    0  501    0  0.00000000000E+00  0.00000000000E+00  0.22151289958E+03  0.22156275563E+03  0.47000000000E+01 0. -1.
         -5   -1    0    0    0  501 -0.00000000000E+00 -0.00000000000E+00 -0.10928417301E+03  0.10938519310E+03  0.47000000000E+01 0. -1.
         25    2    1    2    0    0 -0.54444665436E+02 -0.48866054371E+02 -0.45435187902E+01  0.14490620735E+03  0.12500021001E+03 0.  0.
         25    2    1    2    0    0  0.54444665436E+02  0.48866054371E+02  0.11677224536E+03  0.18604174138E+03  0.12499463742E+03 0.  0.
          5    1    3    3  502    0 -0.41171598134E+02  0.31094297131E+02  0.26242100491E+02  0.58074896858E+02  0.47000000000E+01 0.  1.
         -5    1    3    3    0  502 -0.13273067302E+02 -0.79960351501E+02 -0.30785619281E+02  0.86831310495E+02  0.47000000000E+01 0.  1.
          5    1    4    4  503    0  0.63830912928E+02  0.37688249478E+02  0.13984035827E+03  0.15834205189E+03  0.47000000000E+01 0.  1.
         -5    1    4    4    0  503 -0.93862474926E+01  0.11177804893E+02 -0.23068112914E+02  0.27699689486E+02  0.47000000000E+01 0.  1.
<mgrwt>
<rscale>  0 0.14483376E+03</rscale>
<asrwt>0</asrwt>
<pdfrwt beam="1">  1        5 0.34090513E-01 0.14483496E+03</pdfrwt>
<pdfrwt beam="2">  1       -5 0.16824556E-01 0.14483496E+03</pdfrwt>
<totfact> 0.19543858E+02</totfact>
</mgrwt>
</event>
<event>
 8    1  0.1865596E-007  0.1333237E+03  0.7546771E-02  0.1222609E+00
         -5   -1    0    0    0  501 -0.00000000000E+00  0.00000000000E+00  0.49566617196E+03  0.49568845461E+03  0.47000000000E+01 0.  1.
          5   -1    0    0  501    0  0.00000000000E+00 -0.00000000000E+00 -0.36326336742E+02  0.36629124219E+02  0.47000000000E+01 0.  1.
         25    2    1    2    0    0 -0.41824920244E+02 -0.19976409923E+02  0.26496565677E+03  0.29661325999E+03  0.12499698329E+03 0.  0.
         25    2    1    2    0    0  0.41824920244E+02  0.19976409923E+02  0.19437417845E+03  0.23570431883E+03  0.12500729482E+03 0.  0.
          5    1    4    4  502    0 -0.27821020173E+02  0.18930245124E+02  0.14810215322E+03  0.15194966644E+03  0.47000000000E+01 0.  1.
         -5    1    4    4    0  502  0.69645940417E+02  0.10461647990E+01  0.46272025235E+02  0.83754652389E+02  0.47000000000E+01 0.  1.
          5    1    3    3  503    0 -0.32479611876E+02 -0.35766616690E+02  0.27208314643E+03  0.27637927677E+03  0.47000000000E+01 0. -1.
         -5    1    3    3    0  503 -0.93453083683E+01  0.15790206767E+02 -0.71174896569E+01  0.20233983228E+02  0.47000000000E+01 0. -1.
<mgrwt>
<rscale>  0 0.13332127E+03</rscale>
<asrwt>0</asrwt>
<pdfrwt beam="2">  1        5 0.56136728E-02 0.13332368E+03</pdfrwt>
<pdfrwt beam="1">  1       -5 0.76281337E-01 0.13332368E+03</pdfrwt>
<totfact> 0.23162754E+02</totfact>
</mgrwt>
</event>
<event>
 8    1  0.1865596E-007  0.1285395E+03  0.7546771E-02  0.1229641E+00
          5   -1    0    0  501    0  0.00000000000E+00  0.00000000000E+00  0.32796834040E+02  0.33131892838E+02  0.47000000000E+01 0. -1.
         -5   -1    0    0    0  501 -0.00000000000E+00 -0.00000000000E+00 -0.50386882395E+03  0.50389074386E+03  0.47000000000E+01 0. -1.
         25    2    1    2    0    0 -0.89609798982E+01 -0.28578482302E+02 -0.21476069570E+03  0.25028601520E+03  0.12499561662E+03 0.  0.
         25    2    1    2    0    0  0.89609798982E+01  0.28578482302E+02 -0.25631129421E+03  0.28673662150E+03  0.12500152703E+03 0.  0.
          5    1    4    4  502    0 -0.20912742011E+02  0.23840353193E+02 -0.25402632407E+03  0.25604134146E+03  0.47000000000E+01 0.  1.
         -5    1    4    4    0  502  0.29873721909E+02  0.47381291092E+01 -0.22849701431E+01  0.30695280039E+02  0.47000000000E+01 0.  1.
          5    1    3    3  503    0 -0.14986331315E+02  0.28330484047E+02 -0.49608687283E+01  0.32770515271E+02  0.47000000000E+01 0.  1.
         -5    1    3    3    0  503  0.60253514171E+01 -0.56908966349E+02 -0.20979982697E+03  0.21751549993E+03  0.47000000000E+01 0.  1.
<mgrwt>
<rscale>  0 0.12853809E+03</rscale>
<asrwt>0</asrwt>
<pdfrwt beam="1">  1        5 0.50731270E-02 0.12853953E+03</pdfrwt>
<pdfrwt beam="2">  1       -5 0.77545735E-01 0.12853953E+03</pdfrwt>
<totfact> 0.26066022E+02</totfact>
</mgrwt>
</event>
<event>
 8    1  0.1865596E-007  0.1274612E+03  0.7546771E-02  0.1231276E+00
         -5   -1    0    0    0  501 -0.00000000000E+00  0.00000000000E+00  0.15639461250E+03  0.15646521920E+03  0.47000000000E+01 0. -1.
          5   -1    0    0  501    0  0.00000000000E+00 -0.00000000000E+00 -0.11940445460E+03  0.11949691953E+03  0.47000000000E+01 0. -1.
         25    2    1    2    0    0 -0.14834197843E+02 -0.19981791985E+02  0.68460123648E+02  0.14468287582E+03  0.12500808210E+03 0.  0.
         25    2    1    2    0    0  0.14834197843E+02  0.19981791985E+02 -0.31469965745E+02  0.13127926291E+03  0.12499824275E+03 0.  0.
          5    1    3    3  502    0 -0.52865076348E+02 -0.29644305595E+02 -0.52801796582E+01  0.61020254413E+02  0.47000000000E+01 0.  1.
         -5    1    3    3    0  502  0.38030878504E+02  0.96625136101E+01  0.73740303306E+02  0.83662621407E+02  0.47000000000E+01 0.  1.
          5    1    4    4  503    0 -0.15107874394E+02 -0.74615547230E+01  0.42945135983E+02  0.46371299013E+02  0.47000000000E+01 0. -1.
         -5    1    4    4    0  503  0.29942072237E+02  0.27443346708E+02 -0.74415101728E+02  0.84907963900E+02  0.47000000000E+01 0. -1.
<mgrwt>
<rscale>  0 0.12745874E+03</rscale>
<asrwt>0</asrwt>
<pdfrwt beam="2">  1        5 0.18382460E-01 0.12746115E+03</pdfrwt>
<pdfrwt beam="1">  1       -5 0.24073254E-01 0.12746115E+03</pdfrwt>
<totfact> 0.31318316E+02</totfact>
</mgrwt>
</event>
<event>
 8    1  0.1865596E-007  0.1346064E+03  0.7546771E-02  0.1220780E+00
          5   -1    0    0  501    0  0.00000000000E+00  0.00000000000E+00  0.12052902063E+03  0.12062062350E+03  0.47000000000E+01 0. -1.
         -5   -1    0    0    0  501 -0.00000000000E+00 -0.00000000000E+00 -0.16032957739E+03  0.16039845195E+03  0.47000000000E+01 0. -1.
         25    2    1    2    0    0 -0.37069431472E+02 -0.33430747532E+02 -0.55321703635E+02  0.14553139029E+03  0.12500854786E+03 0.  0.
         25    2    1    2    0    0  0.37069431472E+02  0.33430747532E+02  0.15521146872E+02  0.13548768516E+03  0.12499699676E+03 0.  0.
          5    1    3    3  502    0  0.31367934133E+01 -0.62136769229E+02 -0.70010039920E+02  0.93777999834E+02  0.47000000000E+01 0.  1.
         -5    1    3    3    0  502 -0.40206224885E+02  0.28706021697E+02  0.14688336285E+02  0.51753390459E+02  0.47000000000E+01 0.  1.
          5    1    4    4  503    0  0.65969411202E+02  0.57296345512E+02  0.33444288375E+02  0.93677344370E+02  0.47000000000E+01 0. -1.
         -5    1    4    4    0  503 -0.28899979730E+02 -0.23865597980E+02 -0.17923141503E+02  0.41810340786E+02  0.47000000000E+01 0. -1.
<mgrwt>
<rscale>  0 0.13460376E+03</rscale>
<asrwt>0</asrwt>
<pdfrwt beam="1">  1        5 0.18555271E-01 0.13460644E+03</pdfrwt>
<pdfrwt beam="2">  1       -5 0.24678433E-01 0.13460644E+03</pdfrwt>
<totfact> 0.29937940E+02</totfact>
</mgrwt>
</event>
<event>
 8    1  0.1865596E-007  0.1554335E+03  0.7546771E-02  0.1193952E+00
         -5   -1    0    0    0  501 -0.00000000000E+00  0.00000000000E+00  0.41490722454E+02  0.41756077998E+02  0.47000000000E+01 0. -1.
          5   -1    0    0  501    0  0.00000000000E+00 -0.00000000000E+00 -0.58026711378E+03  0.58028614781E+03  0.47000000000E+01 0. -1.
         25    2    1    2    0    0 -0.52064923787E+02 -0.76312622540E+02 -0.26492715749E+03  0.30715791202E+03  0.12500084598E+03 0.  0.
         25    2    1    2    0    0  0.52064923787E+02  0.76312622540E+02 -0.27384923384E+03  0.31488431378E+03  0.12499742215E+03 0.  0.
          5    1    4    4  502    0  0.32798907960E+02  0.33188352952E+02 -0.26172694583E+03  0.26589531645E+03  0.47000000000E+01 0. -1.
         -5    1    4    4    0  502  0.19266015827E+02  0.43124269588E+02 -0.12122288009E+02  0.48988997336E+02  0.47000000000E+01 0. -1.
          5    1    3    3  503    0 -0.36452360567E+02 -0.42272390343E+02 -0.20215112789E+02  0.59552249003E+02  0.47000000000E+01 0.  1.
         -5    1    3    3    0  503 -0.15612563219E+02 -0.34040232197E+02 -0.24471204470E+03  0.24760566302E+03  0.47000000000E+01 0.  1.
<mgrwt>
<rscale>  0 0.15543285E+03</rscale>
<asrwt>0</asrwt>
<pdfrwt beam="2">  1        5 0.89293734E-01 0.15543354E+03</pdfrwt>
<pdfrwt beam="1">  1       -5 0.64050646E-02 0.15543354E+03</pdfrwt>
<totfact> 0.13513654E+02</totfact>
</mgrwt>
</event>
<event>
 8    1  0.1865596E-007  0.1519003E+03  0.7546771E-02  0.1198160E+00
          5   -1    0    0  501    0  0.00000000000E+00  0.00000000000E+00  0.89211529440E+03  0.89212767500E+03  0.47000000000E+01 0. -1.
         -5   -1    0    0    0  501 -0.00000000000E+00 -0.00000000000E+00 -0.26653805059E+02  0.27065020305E+02  0.47000000000E+01 0. -1.
         25    2    1    2    0    0  0.12311620219E+02 -0.85416985807E+02  0.34362270442E+03  0.37569529164E+03  0.12499100654E+03 0.  0.
         25    2    1    2    0    0 -0.12311620219E+02  0.85416985807E+02  0.52183878492E+03  0.54349740366E+03  0.12500429145E+03 0.  0.
          5    1    3    3  502    0  0.54766464410E+02 -0.93095762788E+02  0.25681463217E+03  0.27864319832E+03  0.47000000000E+01 0. -1.
         -5    1    3    3    0  502 -0.42454844191E+02  0.76787769813E+01  0.86808072252E+02  0.97052093328E+02  0.47000000000E+01 0. -1.
          5    1    4    4  503    0 -0.59856233438E+02  0.84852871534E+02  0.34519877174E+03  0.36050944579E+03  0.47000000000E+01 0. -1.
         -5    1    4    4    0  503  0.47544613219E+02  0.56411427253E+00  0.17664001317E+03  0.18298795787E+03  0.47000000000E+01 0. -1.
<mgrwt>
<rscale>  0 0.15189760E+03</rscale>
<asrwt>0</asrwt>
<pdfrwt beam="1">  1        5 0.13728108E+00 0.15190033E+03</pdfrwt>
<pdfrwt beam="2">  1       -5 0.41331699E-02 0.15190033E+03</pdfrwt>
<totfact> 0.94871783E+01</totfact>
</mgrwt>
</event>
<event>
 8    1  0.1865596E-007  0.1280963E+03  0.7546771E-02  0.1230309E+00
         -5   -1    0    0    0  501 -0.00000000000E+00  0.00000000000E+00  0.23088821272E+03  0.23093604477E+03  0.47000000000E+01 0.  1.
          5   -1    0    0  501    0  0.00000000000E+00 -0.00000000000E+00 -0.77660167540E+02  0.77802259751E+02  0.47000000000E+01 0.  1.
         25    2    1    2    0    0  0.24502949814E+02 -0.13497726875E+02  0.12198768734E+03  0.17688754794E+03  0.12500250227E+03 0.  0.
         25    2    1    2    0    0 -0.24502949814E+02  0.13497726875E+02  0.31240357839E+02  0.13185075658E+03  0.12500431542E+03 0.  0.
          5    1    3    3  502    0  0.66631230637E+02  0.47471313626E+01  0.11069874337E+03  0.12937757896E+03  0.47000000000E+01 0.  1.
         -5    1    3    3    0  502 -0.42128280823E+02 -0.18244858237E+02  0.11288943974E+02  0.47509968988E+02  0.47000000000E+01 0.  1.
          5    1    4    4  503    0 -0.51816179965E+02 -0.24083699081E+02 -0.21661450413E+02  0.61288249294E+02  0.47000000000E+01 0. -1.
         -5    1    4    4    0  503  0.27313230150E+02  0.37581425956E+02  0.52901808252E+02  0.70562507286E+02  0.47000000000E+01 0. -1.
<mgrwt>
<rscale>  0 0.12809586E+03</rscale>
<asrwt>0</asrwt>
<pdfrwt beam="2">  1        5 0.11962328E-01 0.12809630E+03</pdfrwt>
<pdfrwt beam="1">  1       -5 0.35535873E-01 0.12809630E+03</pdfrwt>
<totfact> 0.31857918E+02</totfact>
</mgrwt>
</event>
<event>
 8    1  0.1865596E-007  0.1377906E+03  0.7546771E-02  0.1216336E+00
         -5   -1    0    0    0  501 -0.00000000000E+00  0.00000000000E+00  0.10942822041E+03  0.10952910765E+03  0.47000000000E+01 0.  1.
          5   -1    0    0  501    0  0.00000000000E+00 -0.00000000000E+00 -0.17814629336E+03  0.17820828218E+03  0.47000000000E+01 0.  1.
         25    2    1    2    0    0  0.50966324310E+02 -0.27622687660E+02 -0.10594071606E+02  0.13819726320E+03  0.12500268043E+03 0.  0.
         25    2    1    2    0    0 -0.50966324310E+02  0.27622687660E+02 -0.58124001347E+02  0.14954012663E+03  0.12499308322E+03 0.  0.
          5    1    4    4  502    0 -0.27677889246E+02 -0.45998759140E+02 -0.46763854081E+02  0.71350539199E+02  0.47000000000E+01 0. -1.
         -5    1    4    4    0  502 -0.23288435064E+02  0.73621446801E+02 -0.11360147267E+02  0.78189587431E+02  0.47000000000E+01 0. -1.
          5    1    3    3  503    0 -0.38243740156E+02 -0.98084938484E+01 -0.23513986895E+02  0.46192940937E+02  0.47000000000E+01 0. -1.
         -5    1    3    3    0  503  0.89210064466E+02 -0.17814193812E+02  0.12919915290E+02  0.92004322259E+02  0.47000000000E+01 0. -1.
<mgrwt>
<rscale>  0 0.13778842E+03</rscale>
<asrwt>0</asrwt>
<pdfrwt beam="2">  1        5 0.27419651E-01 0.13779060E+03</pdfrwt>
<pdfrwt beam="1">  1       -5 0.16847640E-01 0.13779060E+03</pdfrwt>
<totfact> 0.29430934E+02</totfact>
</mgrwt>
</event>
<event>
 8    1  0.1865596E-007  0.1294535E+03  0.7546771E-02  0.1228271E+00
          5   -1    0    0  501    0  0.00000000000E+00  0.00000000000E+00  0.74373509474E+02  0.74521868679E+02  0.47000000000E+01 0.  1.
         -5   -1    0    0    0  501 -0.00000000000E+00 -0.00000000000E+00 -0.22874195380E+03  0.22879023456E+03  0.47000000000E+01 0.  1.
         25    2    1    2    0    0 -0.29322416720E+02 -0.16530298011E+02 -0.96782879737E+02  0.16162830811E+03  0.12499491709E+03 0.  0.
         25    2    1    2    0    0  0.29322416720E+02  0.16530298011E+02 -0.57585564591E+02  0.14168379513E+03  0.12500058271E+03 0.  0.
          5    1    4    4  502    0 -0.20528990313E+02 -0.92085514008E+01 -0.78368586913E+02  0.81669837008E+02  0.47000000000E+01 0. -1.
         -5    1    4    4    0  502  0.49851407033E+02  0.25738849412E+02  0.20783022322E+02  0.60013958119E+02  0.47000000000E+01 0. -1.
          5    1    3    3  503    0 -0.24828312381E+02  0.49733802091E+02 -0.18306717944E+02  0.58712197098E+02  0.47000000000E+01 0. -1.
         -5    1    3    3    0  503 -0.44941043390E+01 -0.66264100103E+02 -0.78476161793E+02  0.10291611101E+03  0.47000000000E+01 0. -1.
<mgrwt>
<rscale>  0 0.12945210E+03</rscale>
<asrwt>0</asrwt>
<pdfrwt beam="1">  1        5 0.11457205E-01 0.12945347E+03</pdfrwt>
<pdfrwt beam="2">  1       -5 0.35206196E-01 0.12945347E+03</pdfrwt>
<totfact> 0.35164876E+02</totfact>
</mgrwt>
</event>
<event>
 8    1  0.1865596E-007  0.1436214E+03  0.7546771E-02  0.1208542E+00
          5   -1    0    0  501    0  0.00000000000E+00  0.00000000000E+00  0.45165397675E+02  0.45409284812E+02  0.47000000000E+01 0. -1.
         -5   -1    0    0    0  501 -0.00000000000E+00 -0.00000000000E+00 -0.45553842678E+03  0.45556267217E+03  0.47000000000E+01 0. -1.
         25    2    1    2    0    0  0.66951019574E+02 -0.22753972081E+02 -0.19809851756E+03  0.24468372293E+03  0.12500767712E+03 0.  0.
         25    2    1    2    0    0 -0.66951019574E+02  0.22753972081E+02 -0.21227451155E+03  0.25628823405E+03  0.12499203332E+03 0.  0.
          5    1    3    3  502    0 -0.29170220525E+02  0.20286407012E+02 -0.32532741926E+02  0.48403609082E+02  0.47000000000E+01 0.  1.
         -5    1    3    3    0  502  0.96121240100E+02 -0.43040379093E+02 -0.16556577564E+03  0.19628011385E+03  0.47000000000E+01 0.  1.
          5    1    4    4  503    0 -0.65222314933E+01  0.44182594666E+01  0.16517927100E+02  0.18894243463E+02  0.47000000000E+01 0. -1.
         -5    1    4    4    0  503 -0.60428788081E+02  0.18335712614E+02 -0.22879243865E+03  0.23739399059E+03  0.47000000000E+01 0. -1.
<mgrwt>
<rscale>  0 0.14361798E+03</rscale>
<asrwt>0</asrwt>
<pdfrwt beam="1">  1        5 0.69691486E-02 0.14362138E+03</pdfrwt>
<pdfrwt beam="2">  1       -5 0.70103457E-01 0.14362138E+03</pdfrwt>
<totfact> 0.19980006E+02</totfact>
</mgrwt>
</event>
<event>
 8    1  0.1865596E-007  0.1312879E+03  0.7546771E-02  0.1225558E+00
         -5   -1    0    0    0  501 -0.00000000000E+00  0.00000000000E+00  0.35047046790E+03  0.35050198126E+03  0.47000000000E+01 0.  1.
          5   -1    0    0  501    0  0.00000000000E+00 -0.00000000000E+00 -0.72459958537E+02  0.72612227559E+02  0.47000000000E+01 0.  1.
         25    2    1    2    0    0  0.66350140631E+01 -0.39589031435E+02  0.25911065159E+03  0.29047293445E+03  0.12499952423E+03 0.  0.
         25    2    1    2    0    0 -0.66350140631E+01  0.39589031435E+02  0.18899857772E+02  0.13264127437E+03  0.12500075289E+03 0.  0.
          5    1    3    3  502    0 -0.78370951771E+01 -0.45363982451E+02  0.19345842412E+02  0.50156381282E+02  0.47000000000E+01 0.  1.
         -5    1    3    3    0  502  0.14472109240E+02  0.57749510160E+01  0.23976480918E+03  0.24031655317E+03  0.47000000000E+01 0.  1.
          5    1    4    4  503    0 -0.29770189538E+02  0.88741376655E+01  0.65138290522E+02  0.72319439963E+02  0.47000000000E+01 0.  1.
         -5    1    4    4    0  503  0.23135175475E+02  0.30714893770E+02 -0.46238432750E+02  0.60321834411E+02  0.47000000000E+01 0.  1.
<mgrwt>
<rscale>  0 0.13128757E+03</rscale>
<asrwt>0</asrwt>
<pdfrwt beam="2">  1        5 0.11161823E-01 0.13128786E+03</pdfrwt>
<pdfrwt beam="1">  1       -5 0.53932671E-01 0.13128786E+03</pdfrwt>
<totfact> 0.15294218E+02</totfact>
</mgrwt>
</event>
<event>
 8    1  0.1865596E-007  0.1539923E+03  0.7546771E-02  0.1195653E+00
         -5   -1    0    0    0  501 -0.00000000000E+00  0.00000000000E+00  0.32987157874E+03  0.32990505977E+03  0.47000000000E+01 0. -1.
          5   -1    0    0  501    0  0.00000000000E+00 -0.00000000000E+00 -0.77742317972E+02  0.77884260307E+02  0.47000000000E+01 0. -1.
         25    2    1    2    0    0 -0.44349127980E+02  0.78230597354E+02  0.18250759664E+03  0.23879418594E+03  0.12500707536E+03 0.  0.
         25    2    1    2    0    0  0.44349127980E+02 -0.78230597354E+02  0.69621664122E+02  0.16899513413E+03  0.12500123092E+03 0.  0.
          5    1    3    3  502    0  0.37092840993E+02 -0.45643342334E+01  0.48299877662E+02  0.61250960663E+02  0.47000000000E+01 0.  1.
         -5    1    3    3    0  502 -0.81441968974E+02  0.82794931588E+02  0.13420771898E+03  0.17754322528E+03  0.47000000000E+01 0.  1.
          5    1    4    4  503    0 -0.60012888140E+01 -0.92155504189E+02  0.15741492051E+02  0.93800517012E+02  0.47000000000E+01 0.  1.
         -5    1    4    4    0  503  0.50350416794E+02  0.13924906835E+02  0.53880172072E+02  0.75194617122E+02  0.47000000000E+01 0.  1.
<mgrwt>
<rscale>  0 0.15399115E+03</rscale>
<asrwt>0</asrwt>
<pdfrwt beam="2">  1        5 0.11973851E-01 0.15399234E+03</pdfrwt>
<pdfrwt beam="1">  1       -5 0.50762968E-01 0.15399234E+03</pdfrwt>
<totfact> 0.16203574E+02</totfact>
</mgrwt>
</event>
<event>
 8    1  0.1865596E-007  0.1490639E+03  0.7546771E-02  0.1201629E+00
         -5   -1    0    0    0  501 -0.00000000000E+00  0.00000000000E+00  0.62461612063E+02  0.62638191078E+02  0.47000000000E+01 0. -1.
          5   -1    0    0  501    0  0.00000000000E+00 -0.00000000000E+00 -0.43308077498E+03  0.43310627755E+03  0.47000000000E+01 0. -1.
         25    2    1    2    0    0 -0.28380699463E+02  0.76087535427E+02 -0.80107733360E+02  0.16922195669E+03  0.12499617808E+03 0.  0.
         25    2    1    2    0    0  0.28380699463E+02 -0.76087535427E+02 -0.29051142956E+03  0.32652251194E+03  0.12500113179E+03 0.  0.
          5    1    4    4  502    0  0.52527516776E+02 -0.98450405011E+02 -0.25203665476E+03  0.27567406046E+03  0.47000000000E+01 0. -1.
         -5    1    4    4    0  502 -0.24146817313E+02  0.22362869584E+02 -0.38474774796E+02  0.50848451481E+02  0.47000000000E+01 0. -1.
          5    1    3    3  503    0 -0.11845851159E+02  0.66575047386E+02 -0.11249692755E+03  0.13134005418E+03  0.47000000000E+01 0.  1.
         -5    1    3    3    0  503 -0.16534848305E+02  0.95124880406E+01  0.32389194194E+02  0.37881902510E+02  0.47000000000E+01 0.  1.
<mgrwt>
<rscale>  0 0.14906291E+03</rscale>
<asrwt>0</asrwt>
<pdfrwt beam="2">  1        5 0.66643355E-01 0.14906395E+03</pdfrwt>
<pdfrwt beam="1">  1       -5 0.96250238E-02 0.14906395E+03</pdfrwt>
<totfact> 0.13002766E+02</totfact>
</mgrwt>
</event>
<event>
 8    1  0.1865596E-007  0.1431698E+03  0.7546771E-02  0.1209128E+00
          5   -1    0    0  501    0  0.00000000000E+00  0.00000000000E+00  0.67748981783E+02  0.67911814382E+02  0.47000000000E+01 0. -1.
         -5   -1    0    0    0  501 -0.00000000000E+00 -0.00000000000E+00 -0.30590756944E+03  0.30594367298E+03  0.47000000000E+01 0. -1.
         25    2    1    2    0    0  0.69799247714E+02  0.50231013058E+00 -0.14020267073E+03  0.20038230551E+03  0.12499636869E+03 0.  0.
         25    2    1    2    0    0 -0.69799247714E+02 -0.50231013058E+00 -0.97955916923E+02  0.17347318186E+03  0.12500158345E+03 0.  0.
          5    1    3    3  502    0  0.25841158247E+02  0.45918994458E+02 -0.12422425357E+03  0.13501879382E+03  0.47000000000E+01 0. -1.
         -5    1    3    3    0  502  0.43958089467E+02 -0.45416684327E+02 -0.15978417163E+02  0.65363511686E+02  0.47000000000E+01 0. -1.
          5    1    4    4  503    0 -0.30051374887E+02 -0.62029363552E+02 -0.55974708682E+02  0.88915606545E+02  0.47000000000E+01 0. -1.
         -5    1    4    4    0  503 -0.39747872828E+02  0.61527053421E+02 -0.41981208241E+02  0.84557575310E+02  0.47000000000E+01 0. -1.
<mgrwt>
<rscale>  0 0.14316863E+03</rscale>
<asrwt>0</asrwt>
<pdfrwt beam="1">  1        5 0.10438223E-01 0.14316977E+03</pdfrwt>
<pdfrwt beam="2">  1       -5 0.47078005E-01 0.14316977E+03</pdfrwt>
<totfact> 0.23634778E+02</totfact>
</mgrwt>
</event>
<event>
 8    1  0.1865596E-007  0.1694127E+03  0.7546771E-02  0.1178464E+00
         -5   -1    0    0    0  501 -0.00000000000E+00  0.00000000000E+00  0.19057301930E+03  0.19063096728E+03  0.47000000000E+01 0. -1.
          5   -1    0    0  501    0  0.00000000000E+00 -0.00000000000E+00 -0.15408820183E+03  0.15415986489E+03  0.47000000000E+01 0. -1.
         25    2    1    2    0    0  0.10628801175E+03 -0.42170562602E+02  0.44619320041E+02  0.17519000632E+03  0.12500062721E+03 0.  0.
         25    2    1    2    0    0 -0.10628801175E+03  0.42170562602E+02 -0.81345025664E+01  0.16960082584E+03  0.12499108850E+03 0.  0.
          5    1    3    3  502    0  0.61781595533E+02 -0.51331125944E+02  0.82946281850E+02  0.11555961972E+03  0.47000000000E+01 0. -1.
         -5    1    3    3    0  502  0.44506416213E+02  0.91605633417E+01 -0.38326961809E+02  0.59630386602E+02  0.47000000000E+01 0. -1.
          5    1    4    4  503    0 -0.13252656902E+03  0.22945326023E+02  0.38033315217E+01  0.13463407746E+03  0.47000000000E+01 0.  1.
         -5    1    4    4    0  503  0.26238557278E+02  0.19225236579E+02 -0.11937834088E+02  0.34966748380E+02  0.47000000000E+01 0.  1.
<mgrwt>
<rscale>  0 0.16941092E+03</rscale>
<asrwt>0</asrwt>
<pdfrwt beam="2">  1        5 0.23715848E-01 0.16941268E+03</pdfrwt>
<pdfrwt beam="1">  1       -5 0.29328896E-01 0.16941268E+03</pdfrwt>
<totfact> 0.14560543E+02</totfact>
</mgrwt>
</event>
<event>
 8    1  0.1865596E-007  0.1513073E+03  0.7546771E-02  0.1198879E+00
          5   -1    0    0  501    0  0.00000000000E+00  0.00000000000E+00  0.19936823327E+02  0.20483332844E+02  0.47000000000E+01 0. -1.
         -5   -1    0    0    0  501 -0.00000000000E+00 -0.00000000000E+00 -0.11471664703E+04  0.11471760983E+04  0.47000000000E+01 0. -1.
         25    2    1    2    0    0 -0.76806029995E+02 -0.36966352254E+02 -0.63037981349E+03  0.64828434950E+03  0.12501284377E+03 0.  0.
         25    2    1    2    0    0  0.76806029995E+02  0.36966352254E+02 -0.49684983350E+03  0.51937508169E+03  0.12500016396E+03 0.  0.
          5    1    3    3  502    0 -0.10402209638E+03  0.11003680630E+01 -0.42100119448E+03  0.43368871682E+03  0.47000000000E+01 0.  1.
         -5    1    3    3    0  502  0.27216066389E+02 -0.38066720317E+02 -0.20937861901E+03  0.21459563267E+03  0.47000000000E+01 0.  1.
          5    1    4    4  503    0  0.90146143709E+01 -0.20738095624E+02 -0.11305709865E+02  0.25714605926E+02  0.47000000000E+01 0. -1.
         -5    1    4    4    0  503  0.67791415624E+02  0.57704447878E+02 -0.48554412363E+03  0.49366047576E+03  0.47000000000E+01 0. -1.
<mgrwt>
<rscale>  0 0.15130465E+03</rscale>
<asrwt>0</asrwt>
<pdfrwt beam="1">  1        5 0.31099843E-02 0.15130727E+03</pdfrwt>
<pdfrwt beam="2">  1       -5 0.17652988E+00 0.15130727E+03</pdfrwt>
<totfact> 0.74902612E+01</totfact>
</mgrwt>
</event>
<event>
 8    1  0.1865596E-007  0.1990290E+03  0.7546771E-02  0.1150564E+00
         -5   -1    0    0    0  501 -0.00000000000E+00  0.00000000000E+00  0.12104216550E+04  0.12104307799E+04  0.47000000000E+01 0. -1.
          5   -1    0    0  501    0  0.00000000000E+00 -0.00000000000E+00 -0.36899749937E+02  0.37197870173E+02  0.47000000000E+01 0. -1.
         25    2    1    2    0    0 -0.15422041227E+03 -0.14230801089E+02  0.80012947928E+03  0.82451181616E+03  0.12500440034E+03 0.  0.
         25    2    1    2    0    0  0.15422041227E+03  0.14230801089E+02  0.37339242576E+03  0.42311683388E+03  0.12497799902E+03 0.  0.
          5    1    4    4  502    0  0.44853690676E+02  0.36989502682E+02  0.38088751691E+02  0.69662901758E+02  0.47000000000E+01 0. -1.
         -5    1    4    4    0  502  0.10936672159E+03 -0.22758701593E+02  0.33530367407E+03  0.35345393212E+03  0.47000000000E+01 0. -1.
          5    1    3    3  503    0 -0.37276687877E+02 -0.30366275619E+02  0.71024339086E+02  0.85896501073E+02  0.47000000000E+01 0. -1.
         -5    1    3    3    0  503 -0.11694372439E+03  0.16135474530E+02  0.72910514020E+03  0.73861531508E+03  0.47000000000E+01 0. -1.
<mgrwt>
<rscale>  0 0.19902488E+03</rscale>
<asrwt>0</asrwt>
<pdfrwt beam="2">  1        5 0.57005192E-02 0.19902902E+03</pdfrwt>
<pdfrwt beam="1">  1       -5 0.18624234E+00 0.19902902E+03</pdfrwt>
<totfact> 0.25195881E+01</totfact>
</mgrwt>
</event>
<event>
 8    1  0.1865596E-007  0.2212790E+03  0.7546771E-02  0.1132937E+00
         -5   -1    0    0    0  501 -0.00000000000E+00  0.00000000000E+00  0.31454622373E+03  0.31458133584E+03  0.47000000000E+01 0. -1.
          5   -1    0    0  501    0  0.00000000000E+00 -0.00000000000E+00 -0.17780706560E+03  0.17786917264E+03  0.47000000000E+01 0. -1.
         25    2    1    2    0    0 -0.13145598813E+03 -0.12672942729E+03  0.15541766452E+03  0.27040529614E+03  0.12499339653E+03 0.  0.
         25    2    1    2    0    0  0.13145598813E+03  0.12672942729E+03 -0.18678506388E+02  0.22204521235E+03  0.12495665315E+03 0.  0.
          5    1    4    4  502    0  0.52676656043E+02 -0.13155530688E+02  0.17823158789E+02  0.57338059514E+02  0.47000000000E+01 0. -1.
         -5    1    4    4    0  502  0.78779332091E+02  0.13988495798E+03 -0.36501665177E+02  0.16470715283E+03  0.47000000000E+01 0. -1.
          5    1    3    3  503    0 -0.72640782085E+02 -0.47073601198E+02  0.74139389558E+00  0.86690523222E+02  0.47000000000E+01 0.  1.
         -5    1    3    3    0  503 -0.58815206049E+02 -0.79655826094E+02  0.15467627062E+03  0.18371477292E+03  0.47000000000E+01 0.  1.
<mgrwt>
<rscale>  0 0.22127376E+03</rscale>
<asrwt>0</asrwt>
<pdfrwt beam="2">  1        5 0.27362412E-01 0.22127895E+03</pdfrwt>
<pdfrwt beam="1">  1       -5 0.48399205E-01 0.22127895E+03</pdfrwt>
<totfact> 0.42762086E+01</totfact>
</mgrwt>
</event>
<event>
 8    1  0.1865596E-007  0.1419903E+03  0.7546771E-02  0.1210676E+00
          5   -1    0    0  501    0  0.00000000000E+00  0.00000000000E+00  0.18994854957E+03  0.19000668800E+03  0.47000000000E+01 0. -1.
         -5   -1    0    0    0  501 -0.00000000000E+00 -0.00000000000E+00 -0.13346643504E+03  0.13354916429E+03  0.47000000000E+01 0. -1.
         25    2    1    2    0    0 -0.38140904533E+02 -0.55511203453E+02 -0.45088372690E+02  0.14897693958E+03  0.12499977947E+03 0.  0.
         25    2    1    2    0    0  0.38140904533E+02  0.55511203453E+02  0.10157048722E+03  0.17457891270E+03  0.12500004231E+03 0.  0.
          5    1    4    4  502    0  0.45227321389E+02 -0.10911669485E+02 -0.67338759095E+01  0.47244155360E+02  0.47000000000E+01 0.  1.
         -5    1    4    4    0  502 -0.70864168562E+01  0.66422872938E+02  0.10830436313E+03  0.12733475734E+03  0.47000000000E+01 0.  1.
          5    1    3    3  503    0 -0.54434233790E+02 -0.35262451801E+02  0.28345957372E+02  0.70937364024E+02  0.47000000000E+01 0. -1.
         -5    1    3    3    0  503  0.16293329258E+02 -0.20248751653E+02 -0.73434330062E+02  0.78039575559E+02  0.47000000000E+01 0. -1.
<mgrwt>
<rscale>  0 0.14199020E+03</rscale>
<asrwt>0</asrwt>
<pdfrwt beam="1">  1        5 0.29233690E-01 0.14199026E+03</pdfrwt>
<pdfrwt beam="2">  1       -5 0.20544134E-01 0.14199026E+03</pdfrwt>
<totfact> 0.18174308E+02</totfact>
</mgrwt>
</event>
<event>
 8    1  0.1865596E-007  0.1284683E+03  0.7546771E-02  0.1229754E+00
         -5   -1    0    0    0  501 -0.00000000000E+00  0.00000000000E+00  0.15962602506E+04  0.15962671699E+04  0.47000000000E+01 0.  1.
          5   -1    0    0  501    0  0.00000000000E+00 -0.00000000000E+00 -0.10898819302E+02  0.11869046389E+02  0.47000000000E+01 0.  1.
         25    2    1    2    0    0 -0.20141487249E+00  0.29590776741E+02  0.10371250721E+04  0.10450490140E+04  0.12499348763E+03 0.  0.
         25    2    1    2    0    0  0.20141487249E+00 -0.29590776741E+02  0.54823635922E+03  0.56308720224E+03  0.12501374774E+03 0.  0.
          5    1    3    3  502    0 -0.27217672188E+02  0.24605260166E+02  0.87279750043E+02  0.94794858905E+02  0.47000000000E+01 0. -1.
         -5    1    3    3    0  502  0.27016257316E+02  0.49855165749E+01  0.94984532204E+03  0.95025415513E+03  0.47000000000E+01 0. -1.
          5    1    4    4  503    0 -0.27726294216E+02  0.18453158080E+02  0.42095544425E+02  0.53883126251E+02  0.47000000000E+01 0.  1.
         -5    1    4    4    0  503  0.27927709089E+02 -0.48043934821E+02  0.50614081479E+03  0.50920407599E+03  0.47000000000E+01 0.  1.
<mgrwt>
<rscale>  0 0.12846332E+03</rscale>
<asrwt>0</asrwt>
<pdfrwt beam="2">  1        5 0.17519064E-02 0.12846825E+03</pdfrwt>
<pdfrwt beam="1">  1       -5 0.24565369E+00 0.12846825E+03</pdfrwt>
<totfact> 0.61873070E+01</totfact>
</mgrwt>
</event>
<event>
 8    1  0.1865596E-007  0.1288505E+03  0.7546771E-02  0.1229172E+00
          5   -1    0    0  501    0  0.00000000000E+00  0.00000000000E+00  0.80118274279E+03  0.80119652854E+03  0.47000000000E+01 0. -1.
         -5   -1    0    0    0  501 -0.00000000000E+00 -0.00000000000E+00 -0.24285738625E+02  0.24736351804E+02  0.47000000000E+01 0. -1.
         25    2    1    2    0    0  0.12484704832E+02 -0.28657932414E+02  0.22583334498E+03  0.26000608024E+03  0.12500126845E+03 0.  0.
         25    2    1    2    0    0 -0.12484704832E+02  0.28657932414E+02  0.55106365919E+03  0.56592680010E+03  0.12499936661E+03 0.  0.
          5    1    3    3  502    0 -0.32950520811E+02 -0.21755781782E+02  0.20588009978E+03  0.20968489775E+03  0.47000000000E+01 0. -1.
         -5    1    3    3    0  502  0.45435225643E+02 -0.69021506322E+01  0.19953245200E+02  0.50321182484E+02  0.47000000000E+01 0. -1.
          5    1    4    4  503    0 -0.50089392284E+02  0.57446277102E+02  0.41002154203E+03  0.41707166878E+03  0.47000000000E+01 0.  1.
         -5    1    4    4    0  503  0.37604687452E+02 -0.28788344688E+02  0.14104211716E+03  0.14885513132E+03  0.47000000000E+01 0.  1.
<mgrwt>
<rscale>  0 0.12885008E+03</rscale>
<asrwt>0</asrwt>
<pdfrwt beam="1">  1        5 0.12329461E+00 0.12885054E+03</pdfrwt>
<pdfrwt beam="2">  1       -5 0.37719905E-02 0.12885054E+03</pdfrwt>
<totfact> 0.13841213E+02</totfact>
</mgrwt>
</event>
<event>
 8    1  0.1865596E-007  0.1257497E+03  0.7546771E-02  0.1233902E+00
         -5   -1    0    0    0  501 -0.00000000000E+00  0.00000000000E+00  0.64163899241E+02  0.64335806250E+02  0.47000000000E+01 0.  1.
          5   -1    0    0  501    0  0.00000000000E+00 -0.00000000000E+00 -0.24888809714E+03  0.24893247056E+03  0.47000000000E+01 0.  1.
         25    2    1    2    0    0  0.79739329852E+01 -0.11220747439E+02 -0.75271188868E+02  0.14655622418E+03  0.12499394463E+03 0.  0.
         25    2    1    2    0    0 -0.79739329852E+01  0.11220747439E+02 -0.10945300903E+03  0.16671205263E+03  0.12499383394E+03 0.  0.
          5    1    4    4  502    0  0.17438172953E+02 -0.40720990760E+02 -0.19924812748E+01  0.44590906539E+02  0.47000000000E+01 0.  1.
         -5    1    4    4    0  502 -0.25412105938E+02  0.51941738198E+02 -0.10746052776E+03  0.12212114609E+03  0.47000000000E+01 0.  1.
          5    1    3    3  503    0  0.94513317252E+01 -0.39200695155E+02  0.21333200638E+02  0.45860850640E+02  0.47000000000E+01 0.  1.
         -5    1    3    3    0  503 -0.14773987400E+01  0.27979947716E+02 -0.96604389506E+02  0.10069537354E+03  0.47000000000E+01 0.  1.
<mgrwt>
<rscale>  0 0.12574962E+03</rscale>
<asrwt>0</asrwt>
<pdfrwt beam="2">  1        5 0.38307113E-01 0.12574965E+03</pdfrwt>
<pdfrwt beam="1">  1       -5 0.98880062E-02 0.12574965E+03</pdfrwt>
<totfact> 0.37985808E+02</totfact>
</mgrwt>
</event>
<event>
 8    1  0.1865596E-007  0.1429518E+03  0.7546771E-02  0.1209414E+00
          5   -1    0    0  501    0  0.00000000000E+00  0.00000000000E+00  0.63384712038E+03  0.63386454548E+03  0.47000000000E+01 0. -1.
         -5   -1    0    0    0  501 -0.00000000000E+00 -0.00000000000E+00 -0.34159726186E+02  0.34481544239E+02  0.47000000000E+01 0. -1.
         25    2    1    2    0    0 -0.67341458287E+02 -0.16511357979E+02  0.21718328033E+03  0.26000233398E+03  0.12500055788E+03 0.  0.
         25    2    1    2    0    0  0.67341458287E+02  0.16511357979E+02  0.38250411386E+03  0.40834375574E+03  0.12501091466E+03 0.  0.
          5    1    3    3  502    0 -0.93601944832E+02 -0.44202698737E+02  0.14504922655E+03  0.17825984061E+03  0.47000000000E+01 0.  1.
         -5    1    3    3    0  502  0.26260486545E+02  0.27691340758E+02  0.72134053787E+02  0.81742493370E+02  0.47000000000E+01 0.  1.
          5    1    4    4  503    0 -0.14029336806E+02  0.30939254435E+02  0.24836454984E+03  0.25072115861E+03  0.47000000000E+01 0. -1.
         -5    1    4    4    0  503  0.81370795093E+02 -0.14427896457E+02  0.13413956402E+03  0.15762259713E+03  0.47000000000E+01 0. -1.
<mgrwt>
<rscale>  0 0.14294957E+03</rscale>
<asrwt>0</asrwt>
<pdfrwt beam="1">  1        5 0.97541031E-01 0.14295183E+03</pdfrwt>
<pdfrwt beam="2">  1       -5 0.52814384E-02 0.14295183E+03</pdfrwt>
<totfact> 0.14721415E+02</totfact>
</mgrwt>
</event>
<event>
 8    1  0.1865596E-007  0.1387033E+03  0.7546771E-02  0.1215088E+00
          5   -1    0    0  501    0  0.00000000000E+00  0.00000000000E+00  0.12057226221E+03  0.12066383225E+03  0.47000000000E+01 0.  1.
         -5   -1    0    0    0  501 -0.00000000000E+00 -0.00000000000E+00 -0.20459199734E+03  0.20464597571E+03  0.47000000000E+01 0.  1.
         25    2    1    2    0    0  0.33092050211E+02  0.50154752323E+02 -0.11845691971E+03  0.18239536320E+03  0.12500177488E+03 0.  0.
         25    2    1    2    0    0 -0.33092050211E+02 -0.50154752323E+02  0.34437184581E+02  0.14291444476E+03  0.12501214290E+03 0.  0.
          5    1    4    4  502    0 -0.13066996299E+02 -0.89773000837E+02  0.83804520414E+01  0.91226421874E+02  0.47000000000E+01 0. -1.
         -5    1    4    4    0  502 -0.20025053912E+02  0.39618248513E+02  0.26056732540E+02  0.51688022888E+02  0.47000000000E+01 0. -1.
          5    1    3    3  503    0  0.29229230845E+02 -0.38411356188E+02 -0.54673374945E+02  0.73082474971E+02  0.47000000000E+01 0.  1.
         -5    1    3    3    0  503  0.38628193658E+01  0.88566108512E+02 -0.63783544767E+02  0.10931288823E+03  0.47000000000E+01 0.  1.
<mgrwt>
<rscale>  0 0.13870101E+03</rscale>
<asrwt>0</asrwt>
<pdfrwt beam="1">  1        5 0.18560775E-01 0.13870335E+03</pdfrwt>
<pdfrwt beam="2">  1       -5 0.31486888E-01 0.13870335E+03</pdfrwt>
<totfact> 0.18827028E+02</totfact>
</mgrwt>
</event>
<event>
 8    1  0.1865596E-007  0.1560090E+03  0.7546771E-02  0.1193278E+00
          5   -1    0    0  501    0  0.00000000000E+00  0.00000000000E+00  0.18406502191E+03  0.18412501810E+03  0.47000000000E+01 0. -1.
         -5   -1    0    0    0  501 -0.00000000000E+00 -0.00000000000E+00 -0.15417166018E+03  0.15424328447E+03  0.47000000000E+01 0. -1.
         25    2    1    2    0    0 -0.41913872924E+02 -0.83421196290E+02 -0.49031150282E+02  0.16353151999E+03  0.12499054203E+03 0.  0.
         25    2    1    2    0    0  0.41913872924E+02  0.83421196290E+02  0.78924512009E+02  0.17483678258E+03  0.12499181258E+03 0.  0.
          5    1    4    4  502    0  0.62870131629E+02  0.69911499471E+02  0.10322393188E+03  0.13970519433E+03  0.47000000000E+01 0. -1.
         -5    1    4    4    0  502 -0.20956258705E+02  0.13509696819E+02 -0.24299419869E+02  0.35131588251E+02  0.47000000000E+01 0. -1.
          5    1    3    3  503    0 -0.77244952379E+02 -0.53941280177E+02 -0.65045242715E+02  0.11458367238E+03  0.47000000000E+01 0. -1.
         -5    1    3    3    0  503  0.35331079455E+02 -0.29479916113E+02  0.16014092433E+02  0.48947847613E+02  0.47000000000E+01 0. -1.
<mgrwt>
<rscale>  0 0.15600879E+03</rscale>
<asrwt>0</asrwt>
<pdfrwt beam="1">  1        5 0.28327820E-01 0.15600904E+03</pdfrwt>
<pdfrwt beam="2">  1       -5 0.23728842E-01 0.15600904E+03</pdfrwt>
<totfact> 0.15178163E+02</totfact>
</mgrwt>
</event>
<event>
 8    1  0.1865596E-007  0.1669893E+03  0.7546771E-02  0.1181025E+00
         -5   -1    0    0    0  501 -0.00000000000E+00  0.00000000000E+00  0.16436980944E+03  0.16443699174E+03  0.47000000000E+01 0. -1.
          5   -1    0    0  501    0  0.00000000000E+00 -0.00000000000E+00 -0.20856690319E+03  0.20861985310E+03  0.47000000000E+01 0. -1.
         25    2    1    2    0    0 -0.79407819669E+02 -0.77165584359E+02  0.58589593079E+02  0.17696880753E+03  0.12500035675E+03 0.  0.
         25    2    1    2    0    0  0.79407819669E+02  0.77165584359E+02 -0.10278668684E+03  0.19608803731E+03  0.12500114460E+03 0.  0.
          5    1    3    3  502    0  0.17612288212E+02  0.96070229575E+01 -0.16702801058E+02  0.26524727130E+02  0.47000000000E+01 0. -1.
         -5    1    3    3    0  502 -0.97020107881E+02 -0.86772607316E+02  0.75292394137E+02  0.15044408040E+03  0.47000000000E+01 0. -1.
          5    1    4    4  503    0 -0.11316066483E+02 -0.15368958493E+02  0.11896871625E+02  0.22975721975E+02  0.47000000000E+01 0.  1.
         -5    1    4    4    0  503  0.90723886152E+02  0.92534542852E+02 -0.11468355846E+03  0.17311231533E+03  0.47000000000E+01 0.  1.
<mgrwt>
<rscale>  0 0.16698912E+03</rscale>
<asrwt>0</asrwt>
<pdfrwt beam="2">  1        5 0.32096457E-01 0.16698927E+03</pdfrwt>
<pdfrwt beam="1">  1       -5 0.25296904E-01 0.16698927E+03</pdfrwt>
<totfact> 0.10719642E+02</totfact>
</mgrwt>
</event>
<event>
 8    1  0.1865596E-007  0.1428735E+03  0.7546771E-02  0.1209514E+00
         -5   -1    0    0    0  501 -0.00000000000E+00  0.00000000000E+00  0.13629125152E+03  0.13637226712E+03  0.47000000000E+01 0.  1.
          5   -1    0    0  501    0  0.00000000000E+00 -0.00000000000E+00 -0.15386772485E+03  0.15393949055E+03  0.47000000000E+01 0.  1.
         25    2    1    2    0    0  0.23014074373E+02 -0.65252653973E+02  0.15345307571E+02  0.14369524317E+03  0.12500115189E+03 0.  0.
         25    2    1    2    0    0 -0.23014074373E+02  0.65252653973E+02 -0.32921780907E+02  0.14661651451E+03  0.12500000879E+03 0.  0.
          5    1    4    4  502    0 -0.92820789580E+01 -0.30451609861E+02  0.18384757407E+02  0.37061392821E+02  0.47000000000E+01 0. -1.
         -5    1    4    4    0  502 -0.13731995415E+02  0.95704263834E+02 -0.51306538314E+02  0.10955512169E+03  0.47000000000E+01 0. -1.
          5    1    3    3  503    0 -0.36291621239E+02 -0.67175542715E+02  0.30371399228E+02  0.82305207626E+02  0.47000000000E+01 0.  1.
         -5    1    3    3    0  503  0.59305695613E+02  0.19228887419E+01 -0.15026091657E+02  0.61390035541E+02  0.47000000000E+01 0.  1.
<mgrwt>
<rscale>  0 0.14287328E+03</rscale>
<asrwt>0</asrwt>
<pdfrwt beam="2">  1        5 0.23683710E-01 0.14287353E+03</pdfrwt>
<pdfrwt beam="1">  1       -5 0.20979637E-01 0.14287353E+03</pdfrwt>
<totfact> 0.26287181E+02</totfact>
</mgrwt>
</event>
<event>
 8    1  0.1865596E-007  0.1869608E+03  0.7546771E-02  0.1161232E+00
          5   -1    0    0  501    0  0.00000000000E+00  0.00000000000E+00  0.24920449580E+02  0.25359787209E+02  0.47000000000E+01 0. -1.
         -5   -1    0    0    0  501 -0.00000000000E+00 -0.00000000000E+00 -0.14595856714E+04  0.14595932386E+04  0.47000000000E+01 0. -1.
         25    2    1    2    0    0  0.53487202502E+02 -0.12832837071E+03 -0.87951160603E+03  0.89916349558E+03  0.12500110030E+03 0.  0.
         25    2    1    2    0    0 -0.53487202502E+02  0.12832837071E+03 -0.55515361581E+03  0.58578953025E+03  0.12499914016E+03 0.  0.
          5    1    3    3  502    0  0.52996290591E+02 -0.15255900070E+03 -0.78704962387E+03  0.80346254172E+03  0.47000000000E+01 0. -1.
         -5    1    3    3    0  502  0.49091191118E+00  0.24230629993E+02 -0.92461982165E+02  0.95700953862E+02  0.47000000000E+01 0. -1.
          5    1    4    4  503    0 -0.16769346495E+02 -0.23919093376E+02 -0.10799701540E+03  0.11197669108E+03  0.47000000000E+01 0. -1.
         -5    1    4    4    0  503 -0.36717856007E+02  0.15224746409E+03 -0.44715660041E+03  0.47381283917E+03  0.47000000000E+01 0. -1.
<mgrwt>
<rscale>  0 0.18696043E+03</rscale>
<asrwt>0</asrwt>
<pdfrwt beam="1">  1        5 0.38682938E-02 0.18696076E+03</pdfrwt>
<pdfrwt beam="2">  1       -5 0.22458595E+00 0.18696076E+03</pdfrwt>
<totfact> 0.26034955E+01</totfact>
</mgrwt>
</event>
<event>
 8    1  0.1865596E-007  0.1417175E+03  0.7546771E-02  0.1211059E+00
         -5   -1    0    0    0  501 -0.00000000000E+00  0.00000000000E+00  0.72048867614E+02  0.72202003604E+02  0.47000000000E+01 0.  1.
          5   -1    0    0  501    0  0.00000000000E+00 -0.00000000000E+00 -0.34299474643E+03  0.34302694658E+03  0.47000000000E+01 0.  1.
         25    2    1    2    0    0  0.36504755195E+02 -0.55719869472E+02 -0.45252557152E+02  0.14876709962E+03  0.12508619026E+03 0.  0.
         25    2    1    2    0    0 -0.36504755195E+02  0.55719869472E+02 -0.22569332166E+03  0.26646185056E+03  0.12500856513E+03 0.  0.
          5    1    4    4  502    0  0.37968200036E+02  0.39041018564E+02 -0.14656593755E+03  0.15642713765E+03  0.47000000000E+01 0.  1.
         -5    1    4    4    0  502 -0.74472955231E+02  0.16678850908E+02 -0.79127384113E+02  0.11003471291E+03  0.47000000000E+01 0.  1.
          5    1    3    3  503    0  0.22235557784E+01  0.26959452522E+02  0.23234593415E+02  0.35967938664E+02  0.47000000000E+01 0. -1.
         -5    1    3    3    0  503  0.34281199417E+02 -0.82679321994E+02 -0.68487150568E+02  0.11279916095E+03  0.47000000000E+01 0. -1.
<mgrwt>
<rscale>  0 0.14170039E+03</rscale>
<asrwt>0</asrwt>
<pdfrwt beam="2">  1        5 0.52782678E-01 0.14171752E+03</pdfrwt>
<pdfrwt beam="1">  1       -5 0.11098698E-01 0.14171752E+03</pdfrwt>
<totfact> 0.16594455E+02</totfact>
</mgrwt>
</event>
<event>
 8    1  0.1865596E-007  0.1659802E+03  0.7546771E-02  0.1182107E+00
          5   -1    0    0  501    0  0.00000000000E+00  0.00000000000E+00  0.20556666432E+03  0.20562038682E+03  0.47000000000E+01 0.  1.
         -5   -1    0    0    0  501 -0.00000000000E+00 -0.00000000000E+00 -0.14669328628E+03  0.14676856012E+03  0.47000000000E+01 0.  1.
         25    2    1    2    0    0 -0.10899715016E+03 -0.60682793808E+01  0.81442031492E+02  0.18488440135E+03  0.12502893509E+03 0.  0.
         25    2    1    2    0    0  0.10899715016E+03  0.60682793808E+01 -0.22568653462E+02  0.16750454560E+03  0.12502490120E+03 0.  0.
          5    1    3    3  502    0 -0.52492325930E+02  0.25898905340E+02 -0.21965965695E+02  0.62696022428E+02  0.47000000000E+01 0.  1.
         -5    1    3    3    0  502 -0.56504824233E+02 -0.31967184721E+02  0.10340799719E+03  0.12218837892E+03  0.47000000000E+01 0.  1.
          5    1    4    4  503    0  0.13097856638E+03 -0.18849486660E+02 -0.17370594754E+02  0.13354593053E+03  0.47000000000E+01 0. -1.
         -5    1    4    4    0  503 -0.21981416217E+02  0.24917766041E+02 -0.51980587078E+01  0.33958615074E+02  0.47000000000E+01 0. -1.
<mgrwt>
<rscale>  0 0.16597947E+03</rscale>
<asrwt>0</asrwt>
<pdfrwt beam="1">  1        5 0.31635564E-01 0.16598023E+03</pdfrwt>
<pdfrwt beam="2">  1       -5 0.22578121E-01 0.16598023E+03</pdfrwt>
<totfact> 0.13686327E+02</totfact>
</mgrwt>
</event>
<event>
 8    1  0.1865596E-007  0.1638638E+03  0.7546771E-02  0.1184402E+00
          5   -1    0    0  501    0  0.00000000000E+00  0.00000000000E+00  0.52477183034E+02  0.52687235069E+02  0.47000000000E+01 0.  1.
         -5   -1    0    0    0  501 -0.00000000000E+00 -0.00000000000E+00 -0.55401297650E+03  0.55403291250E+03  0.47000000000E+01 0.  1.
         25    2    1    2    0    0 -0.36396493968E+02 -0.99507847564E+02 -0.33583268553E+03  0.37367755473E+03  0.12499922295E+03 0.  0.
         25    2    1    2    0    0  0.36396493968E+02  0.99507847564E+02 -0.16570310794E+03  0.23304259284E+03  0.12499925439E+03 0.  0.
          5    1    4    4  502    0  0.70575466060E+02  0.20321775469E+02 -0.51364738654E+02  0.89745737196E+02  0.47000000000E+01 0.  1.
         -5    1    4    4    0  502 -0.34178972092E+02  0.79186072095E+02 -0.11433836928E+03  0.14329685564E+03  0.47000000000E+01 0.  1.
          5    1    3    3  503    0 -0.49662443629E+02 -0.97833449598E+02 -0.34126488044E+03  0.35849902481E+03  0.47000000000E+01 0.  1.
         -5    1    3    3    0  503  0.13265949661E+02 -0.16743979660E+01  0.54321949100E+01  0.15178529919E+02  0.47000000000E+01 0.  1.
<mgrwt>
<rscale>  0 0.16386375E+03</rscale>
<asrwt>0</asrwt>
<pdfrwt beam="1">  1        5 0.80911045E-02 0.16386375E+03</pdfrwt>
<pdfrwt beam="2">  1       -5 0.85250453E-01 0.16386375E+03</pdfrwt>
<totfact> 0.10284626E+02</totfact>
</mgrwt>
</event>
<event>
 8    1  0.1865596E-007  0.1317989E+03  0.7546771E-02  0.1224812E+00
          5   -1    0    0  501    0  0.00000000000E+00  0.00000000000E+00  0.36190102354E+03  0.36193154165E+03  0.47000000000E+01 0.  1.
         -5   -1    0    0    0  501 -0.00000000000E+00 -0.00000000000E+00 -0.54057868176E+02  0.54261801589E+02  0.47000000000E+01 0.  1.
         25    2    1    2    0    0  0.39524641592E+02 -0.13544750843E+02  0.83565486465E+02  0.15605812908E+03  0.12500116622E+03 0.  0.
         25    2    1    2    0    0 -0.39524641592E+02  0.13544750843E+02  0.22427766890E+03  0.26013521415E+03  0.12499679719E+03 0.  0.
          5    1    3    3  502    0  0.20727088546E+02  0.53671604712E+02  0.18756127763E+02  0.60697081319E+02  0.47000000000E+01 0.  1.
         -5    1    3    3    0  502  0.18797553046E+02 -0.67216355556E+02  0.64809358701E+02  0.95361047761E+02  0.47000000000E+01 0.  1.
          5    1    4    4  503    0 -0.52015196190E+02  0.10200091848E+02  0.22313114615E+02  0.57702578731E+02  0.47000000000E+01 0.  1.
         -5    1    4    4    0  503  0.12490554598E+02  0.33446589951E+01  0.20196455428E+03  0.20243263542E+03  0.47000000000E+01 0.  1.
<mgrwt>
<rscale>  0 0.13179786E+03</rscale>
<asrwt>0</asrwt>
<pdfrwt beam="1">  1        5 0.55695118E-01 0.13179890E+03</pdfrwt>
<pdfrwt beam="2">  1       -5 0.83346295E-02 0.13179890E+03</pdfrwt>
<totfact> 0.23748814E+02</totfact>
</mgrwt>
</event>
<event>
 8    1  0.1865596E-007  0.1291142E+03  0.7546771E-02  0.1228777E+00
         -5   -1    0    0    0  501 -0.00000000000E+00  0.00000000000E+00  0.58548639780E+03  0.58550526215E+03  0.47000000000E+01 0.  1.
          5   -1    0    0  501    0  0.00000000000E+00 -0.00000000000E+00 -0.28260146981E+02  0.28648314215E+02  0.47000000000E+01 0.  1.
         25    2    1    2    0    0  0.28318549545E+02 -0.15587475881E+02  0.28041902837E+03  0.30871501960E+03  0.12500088881E+03 0.  0.
         25    2    1    2    0    0 -0.28318549545E+02  0.15587475881E+02  0.27680722245E+03  0.30543855676E+03  0.12500225560E+03 0.  0.
          5    1    4    4  502    0  0.16441230541E+02 -0.29669138006E+02  0.17625787859E+02  0.38514026138E+02  0.47000000000E+01 0.  1.
         -5    1    4    4    0  502 -0.44759780085E+02  0.45256613887E+02  0.25918143459E+03  0.26692453062E+03  0.47000000000E+01 0.  1.
          5    1    3    3  503    0  0.41500140378E+02 -0.36153435793E+02  0.27832217899E+03  0.28375104914E+03  0.47000000000E+01 0.  1.
         -5    1    3    3    0  503 -0.13181590833E+02  0.20565959911E+02  0.20968493805E+01  0.24963970463E+02  0.47000000000E+01 0.  1.
<mgrwt>
<rscale>  0 0.12911386E+03</rscale>
<asrwt>0</asrwt>
<pdfrwt beam="2">  1        5 0.43790250E-02 0.12911419E+03</pdfrwt>
<pdfrwt beam="1">  1       -5 0.90106142E-01 0.12911419E+03</pdfrwt>
<totfact> 0.23464539E+02</totfact>
</mgrwt>
</event>
<event>
 8    1  0.1865596E-007  0.1304275E+03  0.7546771E-02  0.1226823E+00
          5   -1    0    0  501    0  0.00000000000E+00  0.00000000000E+00  0.41312181174E+02  0.41578676186E+02  0.47000000000E+01 0. -1.
         -5   -1    0    0    0  501 -0.00000000000E+00 -0.00000000000E+00 -0.42847428345E+03  0.42850006019E+03  0.47000000000E+01 0. -1.
         25    2    1    2    0    0  0.13813126017E+01  0.37208353442E+02 -0.24214505893E+03  0.27503702209E+03  0.12499905746E+03 0.  0.
         25    2    1    2    0    0 -0.13813126017E+01 -0.37208353442E+02 -0.14501704335E+03  0.19504171428E+03  0.12499983143E+03 0.  0.
          5    1    4    4  502    0 -0.56785147047E+01 -0.15961882757E+02  0.21091704955E+02  0.27458646149E+02  0.47000000000E+01 0.  1.
         -5    1    4    4    0  502  0.42972021031E+01 -0.21246470685E+02 -0.16610874830E+03  0.16758306814E+03  0.47000000000E+01 0.  1.
          5    1    3    3  503    0 -0.40637257739E+02  0.45884752650E+02 -0.53424314096E+02  0.81443505444E+02  0.47000000000E+01 0.  1.
         -5    1    3    3    0  503  0.42018570341E+02 -0.86763992076E+01 -0.18872074483E+03  0.19359351664E+03  0.47000000000E+01 0.  1.
<mgrwt>
<rscale>  0 0.13042729E+03</rscale>
<asrwt>0</asrwt>
<pdfrwt beam="1">  1        5 0.63782029E-02 0.13042748E+03</pdfrwt>
<pdfrwt beam="2">  1       -5 0.65941600E-01 0.13042748E+03</pdfrwt>
<totfact> 0.25768673E+02</totfact>
</mgrwt>
</event>
<event>
 8    1  0.1865596E-007  0.1285663E+03  0.7546771E-02  0.1229599E+00
         -5   -1    0    0    0  501 -0.00000000000E+00  0.00000000000E+00  0.32648514250E+03  0.32651897078E+03  0.47000000000E+01 0. -1.
          5   -1    0    0  501    0  0.00000000000E+00 -0.00000000000E+00 -0.65220383063E+02  0.65389512667E+02  0.47000000000E+01 0. -1.
         25    2    1    2    0    0 -0.29364900317E+02  0.64632152345E+01  0.22362052475E+03  0.25794436155E+03  0.12500033618E+03 0.  0.
         25    2    1    2    0    0  0.29364900317E+02 -0.64632152345E+01  0.37644234696E+02  0.13396412189E+03  0.12500090810E+03 0.  0.
          5    1    3    3  502    0 -0.19614303066E+02  0.43293909101E+02  0.21793316162E+02  0.52498781694E+02  0.47000000000E+01 0.  1.
         -5    1    3    3    0  502 -0.97505972514E+01 -0.36830693867E+02  0.20182720858E+03  0.20544557986E+03  0.47000000000E+01 0.  1.
          5    1    4    4  503    0 -0.35420114169E+02  0.32275202266E+02 -0.27407307226E+01  0.48227323935E+02  0.47000000000E+01 0. -1.
         -5    1    4    4    0  503  0.64785014486E+02 -0.38738417500E+02  0.40384965418E+02  0.85736797958E+02  0.47000000000E+01 0. -1.
<mgrwt>
<rscale>  0 0.12856618E+03</rscale>
<asrwt>0</asrwt>
<pdfrwt beam="2">  1        5 0.10049517E-01 0.12856632E+03</pdfrwt>
<pdfrwt beam="1">  1       -5 0.50244095E-01 0.12856632E+03</pdfrwt>
<totfact> 0.21220099E+02</totfact>
</mgrwt>
</event>
<event>
 8    1  0.1865596E-007  0.1779910E+03  0.7546771E-02  0.1169762E+00
          5   -1    0    0  501    0  0.00000000000E+00  0.00000000000E+00  0.13030420187E+04  0.13030504950E+04  0.47000000000E+01 0. -1.
         -5   -1    0    0    0  501 -0.00000000000E+00 -0.00000000000E+00 -0.29157002451E+02  0.29533384363E+02  0.47000000000E+01 0. -1.
         25    2    1    2    0    0 -0.11563253058E+03 -0.51804349446E+02  0.36082492187E+03  0.40233743680E+03  0.12500486414E+03 0.  0.
         25    2    1    2    0    0  0.11563253058E+03  0.51804349446E+02  0.91306009438E+03  0.93024644255E+03  0.12500054077E+03 0.  0.
          5    1    4    4  502    0  0.47749459576E+02  0.84715528566E+02  0.40169516359E+03  0.41332532722E+03  0.47000000000E+01 0. -1.
         -5    1    4    4    0  502  0.67883071001E+02 -0.32911179120E+02  0.51136493078E+03  0.51692111533E+03  0.47000000000E+01 0. -1.
          5    1    3    3  503    0  0.64659325033E+01 -0.23878756612E+02  0.18331485845E+03  0.18503629544E+03  0.47000000000E+01 0.  1.
         -5    1    3    3    0  503 -0.12209846308E+03 -0.27925592835E+02  0.17751006342E+03  0.21730114136E+03  0.47000000000E+01 0.  1.
<mgrwt>
<rscale>  0 0.17799022E+03</rscale>
<asrwt>0</asrwt>
<pdfrwt beam="1">  1        5 0.20049759E+00 0.17799098E+03</pdfrwt>
<pdfrwt beam="2">  1       -5 0.45152975E-02 0.17799098E+03</pdfrwt>
<totfact> 0.28850966E+01</totfact>
</mgrwt>
</event>
<event>
 8    1  0.1865596E-007  0.1440973E+03  0.7546771E-02  0.1207921E+00
         -5   -1    0    0    0  501 -0.00000000000E+00  0.00000000000E+00  0.14112557520E+04  0.14112635784E+04  0.47000000000E+01 0.  1.
          5   -1    0    0  501    0  0.00000000000E+00 -0.00000000000E+00 -0.14376321090E+02  0.15125098614E+02  0.47000000000E+01 0.  1.
         25    2    1    2    0    0  0.26931504930E+02 -0.66433205973E+02  0.73818584551E+03  0.75211858708E+03  0.12500139882E+03 0.  0.
         25    2    1    2    0    0 -0.26931504930E+02  0.66433205973E+02  0.65869358542E+03  0.67427008990E+03  0.12499695132E+03 0.  0.
          5    1    3    3  502    0 -0.23351061216E+02  0.20766667652E+00  0.48292145722E+03  0.48350857182E+03  0.47000000000E+01 0.  1.
         -5    1    3    3    0  502  0.50282566146E+02 -0.66640872650E+02  0.25526438829E+03  0.26861001525E+03  0.47000000000E+01 0.  1.
          5    1    4    4  503    0 -0.57971629231E+02  0.80261914335E+02  0.35281990854E+03  0.36647873411E+03  0.47000000000E+01 0.  1.
         -5    1    4    4    0  503  0.31040124301E+02 -0.13828708362E+02  0.30587367688E+03  0.30779135579E+03  0.47000000000E+01 0.  1.
<mgrwt>
<rscale>  0 0.14409632E+03</rscale>
<asrwt>0</asrwt>
<pdfrwt beam="2">  1        5 0.22699415E-02 0.14409728E+03</pdfrwt>
<pdfrwt beam="1">  1       -5 0.21717452E+00 0.14409728E+03</pdfrwt>
<totfact> 0.64610811E+01</totfact>
</mgrwt>
</event>
<event>
 8    1  0.1865596E-007  0.1321004E+03  0.7546771E-02  0.1224374E+00
         -5   -1    0    0    0  501 -0.00000000000E+00  0.00000000000E+00  0.23950542584E+03  0.23955153727E+03  0.47000000000E+01 0.  1.
          5   -1    0    0  501    0  0.00000000000E+00 -0.00000000000E+00 -0.75152885604E+02  0.75299709260E+02  0.47000000000E+01 0.  1.
         25    2    1    2    0    0  0.12405787653E+01 -0.42721093273E+02  0.53936966445E+02  0.14268744815E+03  0.12499552258E+03 0.  0.
         25    2    1    2    0    0 -0.12405787653E+01  0.42721093273E+02  0.11041557380E+03  0.17216379838E+03  0.12498857423E+03 0.  0.
          5    1    4    4  502    0  0.74698785665E+01 -0.79451966034E+01  0.11920663994E+03  0.11979665371E+03  0.47000000000E+01 0. -1.
         -5    1    4    4    0  502 -0.87104573318E+01  0.50666289876E+02 -0.87910661413E+01  0.52367144668E+02  0.47000000000E+01 0. -1.
          5    1    3    3  503    0 -0.37734831968E+02  0.24716192147E+02 -0.39555378651E+01  0.45525201567E+02  0.47000000000E+01 0.  1.
         -5    1    3    3    0  503  0.38975410733E+02 -0.67437285420E+02  0.57892504310E+02  0.97162246587E+02  0.47000000000E+01 0.  1.
<mgrwt>
<rscale>  0 0.13209874E+03</rscale>
<asrwt>0</asrwt>
<pdfrwt beam="2">  1        5 0.11576824E-01 0.13210038E+03</pdfrwt>
<pdfrwt beam="1">  1       -5 0.36861830E-01 0.13210038E+03</pdfrwt>
<totfact> 0.31712094E+02</totfact>
</mgrwt>
</event>
<event>
 8    1  0.1865596E-007  0.1257896E+03  0.7546771E-02  0.1233841E+00
         -5   -1    0    0    0  501 -0.00000000000E+00  0.00000000000E+00  0.48259804753E+03  0.48262093353E+03  0.47000000000E+01 0. -1.
          5   -1    0    0  501    0  0.00000000000E+00 -0.00000000000E+00 -0.33406628543E+02  0.33735631469E+02  0.47000000000E+01 0. -1.
         25    2    1    2    0    0  0.52569322769E+01  0.13082799066E+02  0.26463126791E+03  0.29300635698E+03  0.12499688919E+03 0.  0.
         25    2    1    2    0    0 -0.52569322769E+01 -0.13082799066E+02  0.18456015108E+03  0.22335020802E+03  0.12499628430E+03 0.  0.
          5    1    3    3  502    0  0.49271105765E+02  0.82318617469E+01  0.40460720805E+02  0.64455917798E+02  0.47000000000E+01 0. -1.
         -5    1    3    3    0  502 -0.44014173488E+02  0.48509373196E+01  0.22417054711E+03  0.22855043918E+03  0.47000000000E+01 0. -1.
          5    1    4    4  503    0 -0.23826135963E+01 -0.91273877126E+01 -0.17902284162E+02  0.20774210748E+02  0.47000000000E+01 0.  1.
         -5    1    4    4    0  503 -0.28743186806E+01 -0.39554113539E+01  0.20246243524E+03  0.20257599727E+03  0.47000000000E+01 0.  1.
<mgrwt>
<rscale>  0 0.12578943E+03</rscale>
<asrwt>0</asrwt>
<pdfrwt beam="2">  1        5 0.51665498E-02 0.12578958E+03</pdfrwt>
<pdfrwt beam="1">  1       -5 0.74272921E-01 0.12578958E+03</pdfrwt>
<totfact> 0.27689698E+02</totfact>
</mgrwt>
</event>
<event>
 8    1  0.1865596E-007  0.1336024E+03  0.7546771E-02  0.1222212E+00
         -5   -1    0    0    0  501 -0.00000000000E+00  0.00000000000E+00  0.41628387343E+03  0.41631040496E+03  0.47000000000E+01 0.  1.
          5   -1    0    0  501    0  0.00000000000E+00 -0.00000000000E+00 -0.44374374818E+02  0.44622585542E+02  0.47000000000E+01 0.  1.
         25    2    1    2    0    0  0.72442507652E+01  0.46603442976E+02  0.23037614804E+03  0.26631331044E+03  0.12500099864E+03 0.  0.
         25    2    1    2    0    0 -0.72442507652E+01 -0.46603442976E+02  0.14153335056E+03  0.19461968006E+03  0.12498308077E+03 0.  0.
          5    1    3    3  502    0  0.55231629478E+02  0.61116588954E+02  0.15633183911E+03  0.17676963613E+03  0.47000000000E+01 0. -1.
         -5    1    3    3    0  502 -0.47987378713E+02 -0.14513145978E+02  0.74044308937E+02  0.89543674304E+02  0.47000000000E+01 0. -1.
          5    1    4    4  503    0  0.23250824076E+02  0.21529842921E+02 -0.26984062417E+01  0.32148193614E+02  0.47000000000E+01 0. -1.
         -5    1    4    4    0  503 -0.30495074841E+02 -0.68133285898E+02  0.14423175681E+03  0.16247148645E+03  0.47000000000E+01 0. -1.
<mgrwt>
<rscale>  0 0.13359824E+03</rscale>
<asrwt>0</asrwt>
<pdfrwt beam="2">  1        5 0.68479606E-02 0.13360243E+03</pdfrwt>
<pdfrwt beam="1">  1       -5 0.64064810E-01 0.13360243E+03</pdfrwt>
<totfact> 0.24571269E+02</totfact>
</mgrwt>
</event>
<event>
 8    1  0.1865596E-007  0.1403724E+03  0.7546771E-02  0.1212830E+00
          5   -1    0    0  501    0  0.00000000000E+00  0.00000000000E+00  0.13519636554E+03  0.13527803686E+03  0.47000000000E+01 0.  1.
         -5   -1    0    0    0  501 -0.00000000000E+00 -0.00000000000E+00 -0.17716523485E+03  0.17722756682E+03  0.47000000000E+01 0.  1.
         25    2    1    2    0    0  0.62649800753E+02 -0.12407086421E+02 -0.86933042382E+02  0.16511136341E+03  0.12500190055E+03 0.  0.
         25    2    1    2    0    0 -0.62649800753E+02  0.12407086421E+02  0.44964173068E+02  0.14739424026E+03  0.12499740747E+03 0.  0.
          5    1    4    4  502    0 -0.34423207357E+02  0.60369123104E+02 -0.83890720559E+01  0.70155931745E+02  0.47000000000E+01 0.  1.
         -5    1    4    4    0  502 -0.28226593396E+02 -0.47962036683E+02  0.53353245124E+02  0.77238308518E+02  0.47000000000E+01 0.  1.
          5    1    3    3  503    0 -0.34865605737E+02  0.10195342194E+02 -0.78645984395E+01  0.37463280349E+02  0.47000000000E+01 0.  1.
         -5    1    3    3    0  503  0.97515406491E+02 -0.22602428615E+02 -0.79068443942E+02  0.12764808306E+03  0.47000000000E+01 0.  1.
<mgrwt>
<rscale>  0 0.14037139E+03</rscale>
<asrwt>0</asrwt>
<pdfrwt beam="1">  1        5 0.20810518E-01 0.14037239E+03</pdfrwt>
<pdfrwt beam="2">  1       -5 0.27267267E-01 0.14037239E+03</pdfrwt>
<totfact> 0.20240155E+02</totfact>
</mgrwt>
</event>
<event>
 8    1  0.1865596E-007  0.1268527E+03  0.7546771E-02  0.1232212E+00
         -5   -1    0    0    0  501 -0.00000000000E+00  0.00000000000E+00  0.37727465925E+03  0.37730393387E+03  0.47000000000E+01 0.  1.
          5   -1    0    0  501    0  0.00000000000E+00 -0.00000000000E+00 -0.48834770266E+02  0.49060419759E+02  0.47000000000E+01 0.  1.
         25    2    1    2    0    0  0.21244294441E+02  0.38176686888E+01  0.24087715974E+03  0.27222535358E+03  0.12497576727E+03 0.  0.
         25    2    1    2    0    0 -0.21244294441E+02 -0.38176686888E+01  0.87562729240E+02  0.15413900005E+03  0.12500282054E+03 0.  0.
          5    1    3    3  502    0 -0.50586946257E+02  0.15208094211E+02  0.11783077033E+03  0.12921495927E+03  0.47000000000E+01 0.  1.
         -5    1    3    3    0  502  0.71831240698E+02 -0.11390425522E+02  0.12304638941E+03  0.14301039431E+03  0.47000000000E+01 0.  1.
          5    1    4    4  503    0 -0.52946208238E+02  0.29501716643E+02  0.69208808168E+01  0.61185299239E+02  0.47000000000E+01 0.  1.
         -5    1    4    4    0  503  0.31701913797E+02 -0.33319385332E+02  0.80641848423E+02  0.92953700810E+02  0.47000000000E+01 0.  1.
<mgrwt>
<rscale>  0 0.12684600E+03</rscale>
<asrwt>0</asrwt>
<pdfrwt beam="2">  1        5 0.75326510E-02 0.12685267E+03</pdfrwt>
<pdfrwt beam="1">  1       -5 0.58061866E-01 0.12685267E+03</pdfrwt>
<totfact> 0.25453723E+02</totfact>
</mgrwt>
</event>
<event>
 8    1  0.1865596E-007  0.1415679E+03  0.7546771E-02  0.1211244E+00
          5   -1    0    0  501    0  0.00000000000E+00  0.00000000000E+00  0.12717281826E+03  0.12725963894E+03  0.47000000000E+01 0.  1.
         -5   -1    0    0    0  501 -0.00000000000E+00 -0.00000000000E+00 -0.17831009299E+03  0.17837202489E+03  0.47000000000E+01 0.  1.
         25    2    1    2    0    0  0.18462104327E+02  0.63840599147E+02 -0.77898618292E+02  0.16158489103E+03  0.12500004353E+03 0.  0.
         25    2    1    2    0    0 -0.18462104327E+02 -0.63840599147E+02  0.26761343561E+02  0.14404677280E+03  0.12496732313E+03 0.  0.
          5    1    4    4  502    0  0.20754998874E+02 -0.40653176981E+00  0.58956161910E+02  0.62680573334E+02  0.47000000000E+01 0. -1.
         -5    1    4    4    0  502 -0.39217103201E+02 -0.63434067378E+02 -0.32194818349E+02  0.81366199469E+02  0.47000000000E+01 0. -1.
          5    1    3    3  503    0 -0.44317752250E+02 -0.39120800719E+01 -0.75197659995E+01  0.45365233557E+02  0.47000000000E+01 0.  1.
         -5    1    3    3    0  503  0.62779856576E+02  0.67752679219E+02 -0.70378852293E+02  0.11621965747E+03  0.47000000000E+01 0.  1.
<mgrwt>
<rscale>  0 0.14156072E+03</rscale>
<asrwt>0</asrwt>
<pdfrwt beam="1">  1        5 0.19576492E-01 0.14156794E+03</pdfrwt>
<pdfrwt beam="2">  1       -5 0.27443764E-01 0.14156794E+03</pdfrwt>
<totfact> 0.22471648E+02</totfact>
</mgrwt>
</event>
<event>
 8    1  0.1865596E-007  0.1280379E+03  0.7546771E-02  0.1230398E+00
         -5   -1    0    0    0  501 -0.00000000000E+00  0.00000000000E+00  0.61421239482E+03  0.61423037694E+03  0.47000000000E+01 0.  1.
          5   -1    0    0  501    0  0.00000000000E+00 -0.00000000000E+00 -0.26602356045E+02  0.27014354465E+02  0.47000000000E+01 0.  1.
         25    2    1    2    0    0 -0.27524850309E+01  0.27551656939E+02  0.27092091665E+03  0.29965289036E+03  0.12500816634E+03 0.  0.
         25    2    1    2    0    0  0.27524850309E+01 -0.27551656939E+02  0.31668912213E+03  0.34159184104E+03  0.12500526315E+03 0.  0.
          5    1    3    3  502    0 -0.35835849196E+02  0.56476082766E+02  0.22945289410E+03  0.23904910923E+03  0.47000000000E+01 0.  1.
         -5    1    3    3    0  502  0.33083364165E+02 -0.28924425827E+02  0.41468022548E+02  0.60603781136E+02  0.47000000000E+01 0.  1.
          5    1    4    4  503    0 -0.53385265706E+02 -0.40209871834E+02  0.13109341259E+03  0.14722225787E+03  0.47000000000E+01 0.  1.
         -5    1    4    4    0  503  0.56137750737E+02  0.12658214896E+02  0.18559570954E+03  0.19436958317E+03  0.47000000000E+01 0.  1.
<mgrwt>
<rscale>  0 0.12803722E+03</rscale>
<asrwt>0</asrwt>
<pdfrwt beam="2">  1        5 0.41257458E-02 0.12803793E+03</pdfrwt>
<pdfrwt beam="1">  1       -5 0.94527285E-01 0.12803793E+03</pdfrwt>
<totfact> 0.23019731E+02</totfact>
</mgrwt>
</event>
<event>
 8    1  0.1865596E-007  0.1928760E+03  0.7546771E-02  0.1155893E+00
         -5   -1    0    0    0  501 -0.00000000000E+00  0.00000000000E+00  0.67915387659E+03  0.67917013927E+03  0.47000000000E+01 0. -1.
          5   -1    0    0  501    0  0.00000000000E+00 -0.00000000000E+00 -0.56347803949E+02  0.56543478933E+02  0.47000000000E+01 0. -1.
         25    2    1    2    0    0  0.13693938315E+02  0.14624654578E+03  0.37499919318E+03  0.42169225705E+03  0.12499755466E+03 0.  0.
         25    2    1    2    0    0 -0.13693938315E+02 -0.14624654578E+03  0.24780687946E+03  0.31402136116E+03  0.12500235861E+03 0.  0.
          5    1    3    3  502    0 -0.35560533408E+02  0.79929073478E+00  0.10606249573E+03  0.11196666202E+03  0.47000000000E+01 0. -1.
         -5    1    3    3    0  502  0.49254471723E+02  0.14544725505E+03  0.26893669744E+03  0.30972559503E+03  0.47000000000E+01 0. -1.
          5    1    4    4  503    0  0.22023385499E+02 -0.19929705357E+02  0.14257989137E+03  0.14571663628E+03  0.47000000000E+01 0. -1.
         -5    1    4    4    0  503 -0.35717323814E+02 -0.12631684042E+03  0.10522698809E+03  0.16830472488E+03  0.47000000000E+01 0. -1.
<mgrwt>
<rscale>  0 0.19287526E+03</rscale>
<asrwt>0</asrwt>
<pdfrwt beam="2">  1        5 0.86851964E-02 0.19287604E+03</pdfrwt>
<pdfrwt beam="1">  1       -5 0.10450151E+00 0.19287604E+03</pdfrwt>
<totfact> 0.58278967E+01</totfact>
</mgrwt>
</event>
<event>
 8    1  0.1865596E-007  0.1320066E+03  0.7546771E-02  0.1224508E+00
         -5   -1    0    0    0  501 -0.00000000000E+00  0.00000000000E+00  0.93228361613E+03  0.93229546331E+03  0.47000000000E+01 0. -1.
          5   -1    0    0  501    0  0.00000000000E+00 -0.00000000000E+00 -0.26395563672E+02  0.26810740042E+02  0.47000000000E+01 0. -1.
         25    2    1    2    0    0 -0.41493200750E+02  0.88683007270E+01  0.71460387351E+03  0.72669418502E+03  0.12500164019E+03 0.  0.
         25    2    1    2    0    0  0.41493200750E+02 -0.88683007270E+01  0.19128417895E+03  0.23241201832E+03  0.12500150671E+03 0.  0.
          5    1    3    3  502    0 -0.71494010370E+02  0.33118884587E+02  0.29781812443E+03  0.30810059927E+03  0.47000000000E+01 0.  1.
         -5    1    3    3    0  502  0.30000809620E+02 -0.24250583860E+02  0.41678574908E+03  0.41859358575E+03  0.47000000000E+01 0.  1.
          5    1    4    4  503    0  0.39313214382E+02 -0.34962953124E+02  0.16100896902E+02  0.55220157526E+02  0.47000000000E+01 0.  1.
         -5    1    4    4    0  503  0.21799863677E+01  0.26094652397E+02  0.17518328205E+03  0.17719186080E+03  0.47000000000E+01 0.  1.
<mgrwt>
<rscale>  0 0.13200657E+03</rscale>
<asrwt>0</asrwt>
<pdfrwt beam="2">  1        5 0.40937042E-02 0.13200660E+03</pdfrwt>
<pdfrwt beam="1">  1       -5 0.14346109E+00 0.13200660E+03</pdfrwt>
<totfact> 0.82065756E+01</totfact>
</mgrwt>
</event>
<event>
 8    1  0.1865596E-007  0.2005454E+03  0.7546771E-02  0.1149280E+00
          5   -1    0    0  501    0  0.00000000000E+00  0.00000000000E+00  0.42400047980E+03  0.42402652850E+03  0.47000000000E+01 0. -1.
         -5   -1    0    0    0  501 -0.00000000000E+00 -0.00000000000E+00 -0.95664164813E+02  0.95779551207E+02  0.47000000000E+01 0. -1.
         25    2    1    2    0    0 -0.10475845885E+03 -0.11670052440E+03  0.13901187021E+03  0.24401232629E+03  0.12499747288E+03 0.  0.
         25    2    1    2    0    0  0.10475845885E+03  0.11670052440E+03  0.18932444478E+03  0.27579375343E+03  0.12500040776E+03 0.  0.
          5    1    3    3  502    0 -0.80469795060E+02 -0.77736015240E+02  0.15836994288E+03  0.19396237983E+03  0.47000000000E+01 0.  1.
         -5    1    3    3    0  502 -0.24288663789E+02 -0.38964509156E+02 -0.19358072672E+02  0.50049946454E+02  0.47000000000E+01 0.  1.
          5    1    4    4  503    0  0.48016513464E+02  0.36107756478E+02 -0.22458994162E+01  0.60303314232E+02  0.47000000000E+01 0.  1.
         -5    1    4    4    0  503  0.56741945385E+02  0.80592767918E+02  0.19157034420E+03  0.21549043919E+03  0.47000000000E+01 0.  1.
<mgrwt>
<rscale>  0 0.20054492E+03</rscale>
<asrwt>0</asrwt>
<pdfrwt beam="1">  1        5 0.65241724E-01 0.20054538E+03</pdfrwt>
<pdfrwt beam="2">  1       -5 0.14728443E-01 0.20054538E+03</pdfrwt>
<totfact> 0.69772479E+01</totfact>
</mgrwt>
</event>
<event>
 8    1  0.1865596E-007  0.1629507E+03  0.7546771E-02  0.1185406E+00
         -5   -1    0    0    0  501 -0.00000000000E+00  0.00000000000E+00  0.93440648366E+02  0.93558777071E+02  0.47000000000E+01 0. -1.
          5   -1    0    0  501    0  0.00000000000E+00 -0.00000000000E+00 -0.29363605451E+03  0.29367366669E+03  0.47000000000E+01 0. -1.
         25    2    1    2    0    0  0.39855123348E+01 -0.10444805510E+03 -0.64752317285E+02  0.17534155714E+03  0.12500607403E+03 0.  0.
         25    2    1    2    0    0 -0.39855123348E+01  0.10444805510E+03 -0.13544308886E+03  0.21189088662E+03  0.12501054751E+03 0.  0.
          5    1    3    3  502    0  0.37308853994E+02  0.79295054428E+01 -0.39961634526E+02  0.55442311252E+02  0.47000000000E+01 0.  1.
         -5    1    3    3    0  502 -0.33323341660E+02 -0.11237756055E+03 -0.24790682759E+02  0.11989924589E+03  0.47000000000E+01 0.  1.
          5    1    4    4  503    0  0.30315517013E+02 -0.15864714197E+02 -0.48199212018E+02  0.59295647121E+02  0.47000000000E+01 0. -1.
         -5    1    4    4    0  503 -0.34301029347E+02  0.12031276930E+03 -0.87243876842E+02  0.15259523950E+03  0.47000000000E+01 0. -1.
<mgrwt>
<rscale>  0 0.16294980E+03</rscale>
<asrwt>0</asrwt>
<pdfrwt beam="2">  1        5 0.45186757E-01 0.16295066E+03</pdfrwt>
<pdfrwt beam="1">  1       -5 0.14387465E-01 0.16295066E+03</pdfrwt>
<totfact> 0.15174630E+02</totfact>
</mgrwt>
</event>
<event>
 8    1  0.1865596E-007  0.1515594E+03  0.7546771E-02  0.1198571E+00
          5   -1    0    0  501    0  0.00000000000E+00  0.00000000000E+00  0.48186921246E+03  0.48189213307E+03  0.47000000000E+01 0.  1.
         -5   -1    0    0    0  501 -0.00000000000E+00 -0.00000000000E+00 -0.50344907156E+02  0.50563817860E+02  0.47000000000E+01 0.  1.
         25    2    1    2    0    0  0.72240396600E+02 -0.46118219028E+02  0.15294264547E+03  0.21531764903E+03  0.12499868860E+03 0.  0.
         25    2    1    2    0    0 -0.72240396600E+02  0.46118219028E+02  0.27858165983E+03  0.31713830190E+03  0.12499358508E+03 0.  0.
          5    1    3    3  502    0 -0.12106316180E+02 -0.61060170510E+02  0.87167002663E+02  0.10721512798E+03  0.47000000000E+01 0. -1.
         -5    1    3    3    0  502  0.84346712780E+02  0.14941951482E+02  0.65775642806E+02  0.10810252105E+03  0.47000000000E+01 0. -1.
          5    1    4    4  503    0 -0.70726860907E+02 -0.28412736736E+02  0.15363250592E+03  0.17156517519E+03  0.47000000000E+01 0.  1.
         -5    1    4    4    0  503 -0.15135356929E+01  0.74530955764E+02  0.12494915391E+03  0.14557312671E+03  0.47000000000E+01 0.  1.
<mgrwt>
<rscale>  0 0.15155830E+03</rscale>
<asrwt>0</asrwt>
<pdfrwt beam="1">  1        5 0.74152329E-01 0.15155935E+03</pdfrwt>
<pdfrwt beam="2">  1       -5 0.77639726E-02 0.15155935E+03</pdfrwt>
<totfact> 0.14887958E+02</totfact>
</mgrwt>
</event>
<event>
 8    1  0.1865596E-007  0.2430046E+03  0.7546771E-02  0.1117807E+00
          5   -1    0    0  501    0  0.00000000000E+00  0.00000000000E+00  0.11821976252E+03  0.11831315333E+03  0.47000000000E+01 0.  1.
         -5   -1    0    0    0  501 -0.00000000000E+00 -0.00000000000E+00 -0.49952583702E+03  0.49954794750E+03  0.47000000000E+01 0.  1.
         25    2    1    2    0    0  0.65902280500E+02  0.19769461865E+03 -0.18275902125E+03  0.30405831487E+03  0.12499730469E+03 0.  0.
         25    2    1    2    0    0 -0.65902280500E+02 -0.19769461865E+03 -0.19854705325E+03  0.31380278595E+03  0.12499993320E+03 0.  0.
          5    1    3    3  502    0  0.14011268319E+02  0.12468182527E+03 -0.33543746203E+02  0.12995824753E+03  0.47000000000E+01 0.  1.
         -5    1    3    3    0  502  0.51891012180E+02  0.73012793377E+02 -0.14921527504E+03  0.17410006734E+03  0.47000000000E+01 0.  1.
          5    1    4    4  503    0 -0.58464283539E+02 -0.10432791961E+03 -0.34021556311E+02  0.12442645841E+03  0.47000000000E+01 0.  1.
         -5    1    4    4    0  503 -0.74379969605E+01 -0.93366699038E+02 -0.16452549694E+03  0.18937632754E+03  0.47000000000E+01 0.  1.
<mgrwt>
<rscale>  0 0.24300430E+03</rscale>
<asrwt>0</asrwt>
<pdfrwt beam="1">  1        5 0.18196541E-01 0.24300464E+03</pdfrwt>
<pdfrwt beam="2">  1       -5 0.76859012E-01 0.24300464E+03</pdfrwt>
<totfact> 0.34133282E+01</totfact>
</mgrwt>
</event>
<event>
 8    1  0.1865596E-007  0.1474729E+03  0.7546771E-02  0.1203615E+00
          5   -1    0    0  501    0  0.00000000000E+00  0.00000000000E+00  0.51939027183E+02  0.52151246818E+02  0.47000000000E+01 0.  1.
         -5   -1    0    0    0  501 -0.00000000000E+00 -0.00000000000E+00 -0.52288247718E+03  0.52290360005E+03  0.47000000000E+01 0.  1.
         25    2    1    2    0    0 -0.45892947492E+02 -0.63364752266E+02 -0.36444100733E+03  0.39314547578E+03  0.12499945138E+03 0.  0.
         25    2    1    2    0    0  0.45892947492E+02  0.63364752266E+02 -0.10650244267E+03  0.18190937108E+03  0.12500797788E+03 0.  0.
          5    1    4    4  502    0  0.59167678010E+02  0.51370112255E+01  0.15887859471E+00  0.59576155027E+02  0.47000000000E+01 0.  1.
         -5    1    4    4    0  502 -0.13274730518E+02  0.58227741041E+02 -0.10666132126E+03  0.12233321606E+03  0.47000000000E+01 0.  1.
          5    1    3    3  503    0  0.49041500699E+01 -0.58481037250E+02 -0.58694090154E+02  0.83133438668E+02  0.47000000000E+01 0. -1.
         -5    1    3    3    0  503 -0.50797097562E+02 -0.48837150156E+01 -0.30574691718E+03  0.31001203712E+03  0.47000000000E+01 0. -1.
<mgrwt>
<rscale>  0 0.14747107E+03</rscale>
<asrwt>0</asrwt>
<pdfrwt beam="1">  1        5 0.80085693E-02 0.14747288E+03</pdfrwt>
<pdfrwt beam="2">  1       -5 0.80461404E-01 0.14747288E+03</pdfrwt>
<totfact> 0.11596700E+02</totfact>
</mgrwt>
</event>
<event>
 8    1  0.1865596E-007  0.1426425E+03  0.7546771E-02  0.1209818E+00
          5   -1    0    0  501    0  0.00000000000E+00  0.00000000000E+00  0.18941242647E+03  0.18947072941E+03  0.47000000000E+01 0. -1.
         -5   -1    0    0    0  501 -0.00000000000E+00 -0.00000000000E+00 -0.10793552192E+03  0.10803780307E+03  0.47000000000E+01 0. -1.
         25    2    1    2    0    0 -0.39963126670E+02  0.55899961968E+02  0.29268869944E+02  0.14561198329E+03  0.12499730273E+03 0.  0.
         25    2    1    2    0    0  0.39963126670E+02 -0.55899961968E+02  0.52208034608E+02  0.15189654919E+03  0.12500010215E+03 0.  0.
          5    1    3    3  502    0 -0.17665631834E+02  0.90304034184E+02 -0.45650130795E+01  0.92248699083E+02  0.47000000000E+01 0. -1.
         -5    1    3    3    0  502 -0.22297494836E+02 -0.34404072216E+02  0.33833883024E+02  0.53363284208E+02  0.47000000000E+01 0. -1.
          5    1    4    4  503    0  0.45144260266E+02 -0.58629703156E+02 -0.21975902401E+02  0.77333541323E+02  0.47000000000E+01 0.  1.
         -5    1    4    4    0  503 -0.51811335962E+01  0.27297411886E+01  0.74183937009E+02  0.74563007869E+02  0.47000000000E+01 0.  1.
<mgrwt>
<rscale>  0 0.14264189E+03</rscale>
<asrwt>0</asrwt>
<pdfrwt beam="1">  1        5 0.29152726E-01 0.14264250E+03</pdfrwt>
<pdfrwt beam="2">  1       -5 0.16617818E-01 0.14264250E+03</pdfrwt>
<totfact> 0.27101706E+02</totfact>
</mgrwt>
</event>
<event>
 8    1  0.1865596E-007  0.1662189E+03  0.7546771E-02  0.1181851E+00
         -5   -1    0    0    0  501 -0.00000000000E+00  0.00000000000E+00  0.13008934956E+03  0.13017422505E+03  0.47000000000E+01 0. -1.
          5   -1    0    0  501    0  0.00000000000E+00 -0.00000000000E+00 -0.21330195299E+03  0.21335372776E+03  0.47000000000E+01 0. -1.
         25    2    1    2    0    0  0.28399484540E+01  0.10951826408E+03 -0.29226596156E+02  0.16876175334E+03  0.12499607991E+03 0.  0.
         25    2    1    2    0    0 -0.28399484540E+01 -0.10951826408E+03 -0.53986007277E+02  0.17476619947E+03  0.12500567995E+03 0.  0.
          5    1    3    3  502    0  0.45882679760E+02  0.11371196992E+03 -0.21375791867E+02  0.12455780539E+03  0.47000000000E+01 0.  1.
         -5    1    3    3    0  502 -0.43042731306E+02 -0.41937058367E+01 -0.78508042891E+01  0.44203947956E+02  0.47000000000E+01 0.  1.
          5    1    4    4  503    0 -0.16924166106E+02 -0.35707639618E+02  0.38595113710E+02  0.55435870407E+02  0.47000000000E+01 0. -1.
         -5    1    4    4    0  503  0.14084217652E+02 -0.73810624467E+02 -0.92581120988E+02  0.11933032906E+03  0.47000000000E+01 0. -1.
<mgrwt>
<rscale>  0 0.16621713E+03</rscale>
<asrwt>0</asrwt>
<pdfrwt beam="2">  1        5 0.32826197E-01 0.16621894E+03</pdfrwt>
<pdfrwt beam="1">  1       -5 0.20024258E-01 0.16621894E+03</pdfrwt>
<totfact> 0.15954550E+02</totfact>
</mgrwt>
</event>
<event>
 8    1  0.1865596E-007  0.1331322E+03  0.7546771E-02  0.1222881E+00
         -5   -1    0    0    0  501 -0.00000000000E+00  0.00000000000E+00  0.22155219535E+03  0.22160204255E+03  0.47000000000E+01 0. -1.
          5   -1    0    0  501    0  0.00000000000E+00 -0.00000000000E+00 -0.10469945754E+03  0.10480489687E+03  0.47000000000E+01 0. -1.
         25    2    1    2    0    0  0.35995574697E+02 -0.28338196361E+02  0.13783535051E+03  0.19163133447E+03  0.12500099891E+03 0.  0.
         25    2    1    2    0    0 -0.35995574697E+02  0.28338196361E+02 -0.20982612696E+02  0.13477560496E+03  0.12500183553E+03 0.  0.
          5    1    3    3  502    0  0.81744729608E+02 -0.20228929110E+02  0.71874868233E+02  0.11081289219E+03  0.47000000000E+01 0.  1.
         -5    1    3    3    0  502 -0.45749154912E+02 -0.81092672509E+01  0.65960482274E+02  0.80818442278E+02  0.47000000000E+01 0.  1.
          5    1    4    4  503    0 -0.37559882647E+02 -0.27048009502E+02 -0.53069543780E+02  0.70574826103E+02  0.47000000000E+01 0.  1.
         -5    1    4    4    0  503  0.15643079506E+01  0.55386205863E+02  0.32086931085E+02  0.64200778856E+02  0.47000000000E+01 0.  1.
<mgrwt>
<rscale>  0 0.13313204E+03</rscale>
<asrwt>0</asrwt>
<pdfrwt beam="2">  1        5 0.16119554E-01 0.13313224E+03</pdfrwt>
<pdfrwt beam="1">  1       -5 0.34096898E-01 0.13313224E+03</pdfrwt>
<totfact> 0.20539490E+02</totfact>
</mgrwt>
</event>
<event>
 8    1  0.1865596E-007  0.1328791E+03  0.7546771E-02  0.1223245E+00
         -5   -1    0    0    0  501 -0.00000000000E+00  0.00000000000E+00  0.17872930717E+04  0.17872992514E+04  0.47000000000E+01 0. -1.
          5   -1    0    0  501    0  0.00000000000E+00 -0.00000000000E+00 -0.94645129672E+01  0.10567261031E+02  0.47000000000E+01 0. -1.
         25    2    1    2    0    0  0.32363045296E+02 -0.31370692612E+02  0.78152152800E+03  0.79273751295E+03  0.12500151465E+03 0.  0.
         25    2    1    2    0    0 -0.32363045296E+02  0.31370692612E+02  0.99630703071E+03  0.10051289995E+04  0.12500047637E+03 0.  0.
          5    1    4    4  502    0  0.11160927016E+02  0.15325954291E+02  0.20894662456E+02  0.28602938414E+02  0.47000000000E+01 0.  1.
         -5    1    4    4    0  502 -0.43523972312E+02  0.16044738321E+02  0.97541236826E+03  0.97652606107E+03  0.47000000000E+01 0.  1.
          5    1    3    3  503    0  0.23753446945E+02  0.36305926729E+02  0.11996328443E+03  0.12765432296E+03  0.47000000000E+01 0. -1.
         -5    1    3    3    0  503  0.86095983508E+01 -0.67676619342E+02  0.66155824356E+03  0.66508319000E+03  0.47000000000E+01 0. -1.
<mgrwt>
<rscale>  0 0.13287890E+03</rscale>
<asrwt>0</asrwt>
<pdfrwt beam="2">  1        5 0.15413822E-02 0.13287914E+03</pdfrwt>
<pdfrwt beam="1">  1       -5 0.27505327E+00 0.13287914E+03</pdfrwt>
<totfact> 0.49888239E+01</totfact>
</mgrwt>
</event>
<event>
 8    1  0.1865596E-007  0.1254278E+03  0.7546771E-02  0.1234403E+00
          5   -1    0    0  501    0  0.00000000000E+00  0.00000000000E+00  0.21389406399E+02  0.21899696484E+02  0.47000000000E+01 0.  1.
         -5   -1    0    0    0  501 -0.00000000000E+00 -0.00000000000E+00 -0.98100096426E+03  0.98101222310E+03  0.47000000000E+01 0.  1.
         25    2    1    2    0    0  0.35529378123E+00 -0.10416967739E+02 -0.73524574318E+03  0.74586757372E+03  0.12499398073E+03 0.  0.
         25    2    1    2    0    0 -0.35529378123E+00  0.10416967739E+02 -0.22436581468E+03  0.25704434587E+03  0.12499254975E+03 0.  0.
          5    1    4    4  502    0 -0.43264242157E+02  0.40863483143E+02 -0.60998437791E+02  0.85349389669E+02  0.47000000000E+01 0. -1.
         -5    1    4    4    0  502  0.42908948376E+02 -0.30446515404E+02 -0.16336737689E+03  0.17169495620E+03  0.47000000000E+01 0. -1.
          5    1    3    3  503    0 -0.56092124754E+02  0.21567562106E+02 -0.36848306681E+03  0.37338096727E+03  0.47000000000E+01 0.  1.
         -5    1    3    3    0  503  0.56447418535E+02 -0.31984529846E+02 -0.36676267637E+03  0.37248660645E+03  0.47000000000E+01 0.  1.
<mgrwt>
<rscale>  0 0.12542745E+03</rscale>
<asrwt>0</asrwt>
<pdfrwt beam="1">  1        5 0.33307978E-02 0.12542781E+03</pdfrwt>
<pdfrwt beam="2">  1       -5 0.15096331E+00 0.12542781E+03</pdfrwt>
<totfact> 0.98409151E+01</totfact>
</mgrwt>
</event>
<event>
 8    1  0.1865596E-007  0.1587945E+03  0.7546771E-02  0.1190065E+00
         -5   -1    0    0    0  501 -0.00000000000E+00  0.00000000000E+00  0.68668480485E+02  0.68829137813E+02  0.47000000000E+01 0. -1.
          5   -1    0    0  501    0  0.00000000000E+00 -0.00000000000E+00 -0.36685670335E+03  0.36688680924E+03  0.47000000000E+01 0. -1.
         25    2    1    2    0    0 -0.65511509361E+02  0.72783516955E+02 -0.14337252821E+03  0.21394244004E+03  0.12500595029E+03 0.  0.
         25    2    1    2    0    0  0.65511509361E+02 -0.72783516955E+02 -0.15481569466E+03  0.22177350701E+03  0.12500556347E+03 0.  0.
          5    1    3    3  502    0 -0.80179343526E+02 -0.22353690521E+01 -0.57033996235E+02  0.98532688635E+02  0.47000000000E+01 0.  1.
         -5    1    3    3    0  502  0.14667834166E+02  0.75018886007E+02 -0.86338531974E+02  0.11540975141E+03  0.47000000000E+01 0.  1.
          5    1    4    4  503    0 -0.34201623884E+02 -0.24749195302E+02 -0.19069605728E+02  0.46561933025E+02  0.47000000000E+01 0.  1.
         -5    1    4    4    0  503  0.99713133244E+02 -0.48034321654E+02 -0.13574608893E+03  0.17521157398E+03  0.47000000000E+01 0.  1.
<mgrwt>
<rscale>  0 0.15879440E+03</rscale>
<asrwt>0</asrwt>
<pdfrwt beam="2">  1        5 0.56454166E-01 0.15879448E+03</pdfrwt>
<pdfrwt beam="1">  1       -5 0.10579056E-01 0.15879448E+03</pdfrwt>
<totfact> 0.16207810E+02</totfact>
</mgrwt>
</event>
<event>
 8    1  0.1865596E-007  0.1608358E+03  0.7546771E-02  0.1187758E+00
         -5   -1    0    0    0  501 -0.00000000000E+00  0.00000000000E+00  0.11240441282E+03  0.11250263118E+03  0.47000000000E+01 0.  1.
          5   -1    0    0  501    0  0.00000000000E+00 -0.00000000000E+00 -0.23123644992E+03  0.23128420994E+03  0.47000000000E+01 0.  1.
         25    2    1    2    0    0 -0.61557204551E+02 -0.80328028128E+02 -0.46361172879E+02  0.16738433845E+03  0.12500510739E+03 0.  0.
         25    2    1    2    0    0  0.61557204551E+02  0.80328028128E+02 -0.72470864214E+02  0.17640250267E+03  0.12499574094E+03 0.  0.
          5    1    3    3  502    0 -0.43618013135E+01 -0.27796151583E+02 -0.78260741958E+02  0.83297569504E+02  0.47000000000E+01 0.  1.
         -5    1    3    3    0  502 -0.57195403238E+02 -0.52531876544E+02  0.31899569079E+02  0.84086768949E+02  0.47000000000E+01 0.  1.
          5    1    4    4  503    0  0.36676345562E+02  0.84427757479E+02 -0.10187537454E+03  0.13738224956E+03  0.47000000000E+01 0.  1.
         -5    1    4    4    0  503  0.24880858989E+02 -0.40997293512E+01  0.29404510329E+02  0.39020253107E+02  0.47000000000E+01 0.  1.
<mgrwt>
<rscale>  0 0.16083399E+03</rscale>
<asrwt>0</asrwt>
<pdfrwt beam="2">  1        5 0.35586067E-01 0.16083581E+03</pdfrwt>
<pdfrwt beam="1">  1       -5 0.17304216E-01 0.16083581E+03</pdfrwt>
<totfact> 0.17619912E+02</totfact>
</mgrwt>
</event>
<event>
 8    1  0.1865596E-007  0.1250425E+03  0.7546771E-02  0.1235006E+00
         -5   -1    0    0    0  501 -0.00000000000E+00  0.00000000000E+00  0.39586995019E+02  0.39865024453E+02  0.47000000000E+01 0. -1.
          5   -1    0    0  501    0  0.00000000000E+00 -0.00000000000E+00 -0.61643399889E+03  0.61645191621E+03  0.47000000000E+01 0. -1.
         25    2    1    2    0    0  0.30274723231E+01 -0.11610459787E+00 -0.91016722939E+02  0.15465302136E+03  0.12499733634E+03 0.  0.
         25    2    1    2    0    0 -0.30274723231E+01  0.11610459787E+00 -0.48583028094E+03  0.50166391930E+03  0.12500578781E+03 0.  0.
          5    1    4    4  502    0  0.94083303194E+01  0.32441723773E+02 -0.45111063943E+03  0.45239792344E+03  0.47000000000E+01 0.  1.
         -5    1    4    4    0  502 -0.12435802642E+02 -0.32325619175E+02 -0.34719641504E+02  0.49265995865E+02  0.47000000000E+01 0.  1.
          5    1    3    3  503    0 -0.39636445065E+02  0.25940800655E+01  0.13030739202E+02  0.42067412482E+02  0.47000000000E+01 0.  1.
         -5    1    3    3    0  503  0.42663917388E+02 -0.27101846633E+01 -0.10404746214E+03  0.11258560888E+03  0.47000000000E+01 0.  1.
<mgrwt>
<rscale>  0 0.12504038E+03</rscale>
<asrwt>0</asrwt>
<pdfrwt beam="2">  1        5 0.94858758E-01 0.12504250E+03</pdfrwt>
<pdfrwt beam="1">  1       -5 0.61130725E-02 0.12504250E+03</pdfrwt>
<totfact> 0.11790167E+02</totfact>
</mgrwt>
</event>
<event>
 8    1  0.1865596E-007  0.1284390E+03  0.7546771E-02  0.1229802E+00
         -5   -1    0    0    0  501 -0.00000000000E+00  0.00000000000E+00  0.18090549651E+03  0.18096654019E+03  0.47000000000E+01 0. -1.
          5   -1    0    0  501    0  0.00000000000E+00 -0.00000000000E+00 -0.10076329522E+03  0.10087284899E+03  0.47000000000E+01 0. -1.
         25    2    1    2    0    0  0.29243691169E+02  0.31230093177E+01  0.83833240682E+02  0.15337729639E+03  0.12502654176E+03 0.  0.
         25    2    1    2    0    0 -0.29243691169E+02 -0.31230093177E+01 -0.36910393939E+01  0.12846209279E+03  0.12499575533E+03 0.  0.
          5    1    4    4  502    0  0.19335144521E+02 -0.13910382708E+02 -0.52971398820E+02  0.58270109436E+02  0.47000000000E+01 0. -1.
         -5    1    4    4    0  502 -0.48578835690E+02  0.10787373390E+02  0.49280359426E+02  0.70191983352E+02  0.47000000000E+01 0. -1.
          5    1    3    3  503    0  0.71983559202E+02 -0.25747126344E+02  0.52197638610E+02  0.92688892467E+02  0.47000000000E+01 0.  1.
         -5    1    3    3    0  503 -0.42739868034E+02  0.28870135662E+02  0.31635602072E+02  0.60688403926E+02  0.47000000000E+01 0.  1.
<mgrwt>
<rscale>  0 0.12843153E+03</rscale>
<asrwt>0</asrwt>
<pdfrwt beam="2">  1        5 0.15515168E-01 0.12843902E+03</pdfrwt>
<pdfrwt beam="1">  1       -5 0.27844738E-01 0.12843902E+03</pdfrwt>
<totfact> 0.32380218E+02</totfact>
</mgrwt>
</event>
<event>
 8    1  0.1865596E-007  0.1534487E+03  0.7546771E-02  0.1196299E+00
          5   -1    0    0  501    0  0.00000000000E+00  0.00000000000E+00  0.68686931587E+03  0.68688539589E+03  0.47000000000E+01 0. -1.
         -5   -1    0    0    0  501 -0.00000000000E+00 -0.00000000000E+00 -0.36151107239E+02  0.36455350151E+02  0.47000000000E+01 0. -1.
         25    2    1    2    0    0  0.51812665382E+02 -0.72364983544E+02  0.23966183283E+03  0.28457673429E+03  0.12499952179E+03 0.  0.
         25    2    1    2    0    0 -0.51812665382E+02  0.72364983544E+02  0.41105637580E+03  0.43876401175E+03  0.12500108311E+03 0.  0.
          5    1    3    3  502    0  0.30914335985E+02 -0.22369710009E+02 -0.38075387904E+00  0.38449123121E+02  0.47000000000E+01 0.  1.
         -5    1    3    3    0  502  0.20898329396E+02 -0.49995273535E+02  0.24004258671E+03  0.24612761117E+03  0.47000000000E+01 0.  1.
          5    1    4    4  503    0  0.28653032044E+02  0.61590824885E+02  0.23808175410E+03  0.24762761879E+03  0.47000000000E+01 0.  1.
         -5    1    4    4    0  503 -0.80465697426E+02  0.10774158659E+02  0.17297462171E+03  0.19113639295E+03  0.47000000000E+01 0.  1.
<mgrwt>
<rscale>  0 0.15344842E+03</rscale>
<asrwt>0</asrwt>
<pdfrwt beam="1">  1        5 0.10569684E+00 0.15344873E+03</pdfrwt>
<pdfrwt beam="2">  1       -5 0.55863490E-02 0.15344873E+03</pdfrwt>
<totfact> 0.11259021E+02</totfact>
</mgrwt>
</event>
<event>
 8    1  0.1865596E-007  0.1541616E+03  0.7546771E-02  0.1195452E+00
         -5   -1    0    0    0  501 -0.00000000000E+00  0.00000000000E+00  0.58338390612E+03  0.58340283846E+03  0.47000000000E+01 0. -1.
          5   -1    0    0  501    0  0.00000000000E+00 -0.00000000000E+00 -0.41220247653E+02  0.41487333206E+02  0.47000000000E+01 0. -1.
         25    2    1    2    0    0 -0.33790263549E+02  0.83660865023E+02  0.30984105425E+03  0.34607407553E+03  0.12499945843E+03 0.  0.
         25    2    1    2    0    0  0.33790263549E+02 -0.83660865023E+02  0.23232260422E+03  0.27881609614E+03  0.12499480304E+03 0.  0.
          5    1    3    3  502    0 -0.66635459979E+02  0.55803701240E+02  0.28063930525E+03  0.29382792115E+03  0.47000000000E+01 0.  1.
         -5    1    3    3    0  502  0.32845196430E+02  0.27857163783E+02  0.29201749008E+02  0.52246154382E+02  0.47000000000E+01 0.  1.
          5    1    4    4  503    0  0.29523115977E+02  0.12467679938E+02  0.14571381222E+03  0.14927043409E+03  0.47000000000E+01 0. -1.
         -5    1    4    4    0  503  0.42671475712E+01 -0.96128544961E+02  0.86608791996E+02  0.12954566205E+03  0.47000000000E+01 0. -1.
<mgrwt>
<rscale>  0 0.15416062E+03</rscale>
<asrwt>0</asrwt>
<pdfrwt beam="2">  1        5 0.63635779E-02 0.15416156E+03</pdfrwt>
<pdfrwt beam="1">  1       -5 0.89773372E-01 0.15416156E+03</pdfrwt>
<totfact> 0.13455206E+02</totfact>
</mgrwt>
</event>
<event>
 8    1  0.1865596E-007  0.1274500E+03  0.7546771E-02  0.1231291E+00
         -5   -1    0    0    0  501 -0.00000000000E+00  0.00000000000E+00  0.77949193274E+01  0.91022396870E+01  0.47000000000E+01 0. -1.
          5   -1    0    0  501    0  0.00000000000E+00 -0.00000000000E+00 -0.19326331818E+04  0.19326388968E+04  0.47000000000E+01 0. -1.
         25    2    1    2    0    0  0.17324611093E+02  0.17827122583E+02 -0.88785719830E+03  0.89695731202E+03  0.12499626620E+03 0.  0.
         25    2    1    2    0    0 -0.17324611093E+02 -0.17827122583E+02 -0.10369810642E+04  0.10447838244E+04  0.12500225578E+03 0.  0.
          5    1    3    3  502    0  0.39143758454E+02 -0.45118751834E+02 -0.37190288624E+03  0.37669852984E+03  0.47000000000E+01 0. -1.
         -5    1    3    3    0  502 -0.21819147361E+02  0.62945874417E+02 -0.51595431207E+03  0.52025878218E+03  0.47000000000E+01 0. -1.
          5    1    4    4  503    0 -0.26506289172E+02 -0.55987411790E+01 -0.45423453316E+02  0.53097169225E+02  0.47000000000E+01 0.  1.
         -5    1    4    4    0  503  0.91816780790E+01 -0.12228381404E+02 -0.99155761085E+03  0.99168665522E+03  0.47000000000E+01 0.  1.
<mgrwt>
<rscale>  0 0.12744857E+03</rscale>
<asrwt>0</asrwt>
<pdfrwt beam="2">  1        5 0.29742883E+00 0.12745004E+03</pdfrwt>
<pdfrwt beam="1">  1       -5 0.13002226E-02 0.12745004E+03</pdfrwt>
<totfact> 0.46549956E+01</totfact>
</mgrwt>
</event>
<event>
 8    1  0.1865596E-007  0.1261333E+03  0.7546771E-02  0.1233310E+00
         -5   -1    0    0    0  501 -0.00000000000E+00  0.00000000000E+00  0.56058095473E+02  0.56254778180E+02  0.47000000000E+01 0. -1.
          5   -1    0    0  501    0  0.00000000000E+00 -0.00000000000E+00 -0.28750021164E+03  0.28753862643E+03  0.47000000000E+01 0. -1.
         25    2    1    2    0    0 -0.62045305007E+01 -0.15671441979E+02 -0.94434919543E+02  0.15756764943E+03  0.12500207928E+03 0.  0.
         25    2    1    2    0    0  0.62045305007E+01  0.15671441979E+02 -0.13700719662E+03  0.18622575518E+03  0.12499987870E+03 0.  0.
          5    1    4    4  502    0  0.52252978320E+02  0.46354674046E+02 -0.85253601930E+02  0.11031498625E+03  0.47000000000E+01 0. -1.
         -5    1    4    4    0  502 -0.46048447820E+02 -0.30683232067E+02 -0.51753594691E+02  0.75910768934E+02  0.47000000000E+01 0. -1.
          5    1    3    3  503    0  0.21340898649E+02  0.30215877834E+02  0.11301445006E+02  0.38964674869E+02  0.47000000000E+01 0.  1.
         -5    1    3    3    0  503 -0.27545429149E+02 -0.45887319814E+02 -0.10573636455E+03  0.11860297456E+03  0.47000000000E+01 0.  1.
<mgrwt>
<rscale>  0 0.12613276E+03</rscale>
<asrwt>0</asrwt>
<pdfrwt beam="2">  1        5 0.44248885E-01 0.12613330E+03</pdfrwt>
<pdfrwt beam="1">  1       -5 0.86424070E-02 0.12613330E+03</pdfrwt>
<totfact> 0.35720296E+02</totfact>
</mgrwt>
</event>
<event>
 8    1  0.1865596E-007  0.1521019E+03  0.7546771E-02  0.1197915E+00
          5   -1    0    0  501    0  0.00000000000E+00  0.00000000000E+00  0.14586756890E+04  0.14586832609E+04  0.47000000000E+01 0.  1.
         -5   -1    0    0    0  501 -0.00000000000E+00 -0.00000000000E+00 -0.42708189383E+02  0.42966026583E+02  0.47000000000E+01 0.  1.
         25    2    1    2    0    0 -0.66646073050E+02  0.55388825375E+02  0.11211448569E+03  0.18895447202E+03  0.12499805424E+03 0.  0.
         25    2    1    2    0    0  0.66646073050E+02 -0.55388825375E+02  0.13038530139E+04  0.13126948155E+04  0.12500150257E+03 0.  0.
          5    1    4    4  502    0  0.46118868873E+02  0.34106605562E+02  0.38914056093E+03  0.39337345713E+03  0.47000000000E+01 0.  1.
         -5    1    4    4    0  502  0.20527204178E+02 -0.89495430937E+02  0.91471245302E+03  0.91932135838E+03  0.47000000000E+01 0.  1.
          5    1    3    3  503    0  0.43147143951E+01  0.68981032515E+01  0.10183549989E+03  0.10226807726E+03  0.47000000000E+01 0.  1.
         -5    1    3    3    0  503 -0.70960787446E+02  0.48490722124E+02  0.10278985804E+02  0.86686394758E+02  0.47000000000E+01 0.  1.
<mgrwt>
<rscale>  0 0.15210122E+03</rscale>
<asrwt>0</asrwt>
<pdfrwt beam="1">  1        5 0.22443202E+00 0.15210193E+03</pdfrwt>
<pdfrwt beam="2">  1       -5 0.65909081E-02 0.15210193E+03</pdfrwt>
<totfact> 0.10222854E+01</totfact>
</mgrwt>
</event>
<event>
 8    1  0.1865596E-007  0.1346103E+03  0.7546771E-02  0.1220771E+00
          5   -1    0    0  501    0  0.00000000000E+00  0.00000000000E+00  0.14191073320E+03  0.14198854249E+03  0.47000000000E+01 0.  1.
         -5   -1    0    0    0  501 -0.00000000000E+00 -0.00000000000E+00 -0.13153315868E+03  0.13161710311E+03  0.47000000000E+01 0.  1.
         25    2    1    2    0    0  0.25174581074E+02  0.43143967391E+02 -0.18668108801E+02  0.13589731804E+03  0.12499768522E+03 0.  0.
         25    2    1    2    0    0 -0.25174581074E+02 -0.43143967391E+02  0.29045683327E+02  0.13770832756E+03  0.12499908122E+03 0.  0.
          5    1    4    4  502    0 -0.37331727069E+01  0.36975626291E+02  0.38959352873E+02  0.54046782460E+02  0.47000000000E+01 0.  1.
         -5    1    4    4    0  502 -0.21441408367E+02 -0.80119593682E+02 -0.99136695455E+01  0.83661545099E+02  0.47000000000E+01 0.  1.
          5    1    3    3  503    0  0.38529907854E+02 -0.15740461412E+02  0.35300723678E+02  0.54777249081E+02  0.47000000000E+01 0.  1.
         -5    1    3    3    0  503 -0.13355326781E+02  0.58884428803E+02 -0.53968832479E+02  0.81120068960E+02  0.47000000000E+01 0.  1.
<mgrwt>
<rscale>  0 0.13460997E+03</rscale>
<asrwt>0</asrwt>
<pdfrwt beam="1">  1        5 0.21844863E-01 0.13461030E+03</pdfrwt>
<pdfrwt beam="2">  1       -5 0.20248313E-01 0.13461030E+03</pdfrwt>
<totfact> 0.32082578E+02</totfact>
</mgrwt>
</event>
<event>
 8    1  0.1865596E-007  0.1708859E+03  0.7546771E-02  0.1176927E+00
         -5   -1    0    0    0  501 -0.00000000000E+00  0.00000000000E+00  0.25322184865E+03  0.25326546278E+03  0.47000000000E+01 0. -1.
          5   -1    0    0  501    0  0.00000000000E+00 -0.00000000000E+00 -0.14305952177E+03  0.14313670658E+03  0.47000000000E+01 0. -1.
         25    2    1    2    0    0  0.11185035727E+03  0.32665225532E+02  0.14247610865E+03  0.22248919361E+03  0.12499792142E+03 0.  0.
         25    2    1    2    0    0 -0.11185035727E+03 -0.32665225532E+02 -0.32313781767E+02  0.17391297574E+03  0.12499609298E+03 0.  0.
          5    1    3    3  502    0  0.13403049870E+03  0.39324459997E+02  0.93619434846E+02  0.16821794291E+03  0.47000000000E+01 0.  1.
         -5    1    3    3    0  502 -0.22180141437E+02 -0.66592344652E+01  0.48856673801E+02  0.54271250701E+02  0.47000000000E+01 0.  1.
          5    1    4    4  503    0 -0.30522824995E+02 -0.34575982959E+02  0.42794918585E+02  0.63092285582E+02  0.47000000000E+01 0.  1.
         -5    1    4    4    0  503 -0.81327532271E+02  0.19107574269E+01 -0.75108700353E+02  0.11082069016E+03  0.47000000000E+01 0.  1.
<mgrwt>
<rscale>  0 0.17088559E+03</rscale>
<asrwt>0</asrwt>
<pdfrwt beam="2">  1        5 0.22018449E-01 0.17088593E+03</pdfrwt>
<pdfrwt beam="1">  1       -5 0.38966500E-01 0.17088593E+03</pdfrwt>
<totfact> 0.95162856E+01</totfact>
</mgrwt>
</event>
<event>
 8    1  0.1865596E-007  0.1253978E+03  0.7546771E-02  0.1234457E+00
         -5   -1    0    0    0  501 -0.00000000000E+00  0.00000000000E+00  0.74840571561E+03  0.74842047350E+03  0.47000000000E+01 0. -1.
          5   -1    0    0  501    0  0.00000000000E+00 -0.00000000000E+00 -0.48626468689E+02  0.48853080324E+02  0.47000000000E+01 0. -1.
         25    2    1    2    0    0  0.84845919113E+01 -0.51183328658E+01  0.65063640700E+03  0.66261025630E+03  0.12500572795E+03 0.  0.
         25    2    1    2    0    0 -0.84845919113E+01  0.51183328658E+01  0.49142839923E+02  0.13466329752E+03  0.12498399638E+03 0.  0.
          5    1    4    4  502    0  0.30214644547E+02 -0.49370843890E+02  0.18148211188E+02  0.60842851189E+02  0.47000000000E+01 0. -1.
         -5    1    4    4    0  502 -0.38699236459E+02  0.54489176756E+02  0.30994628735E+02  0.73820446330E+02  0.47000000000E+01 0. -1.
          5    1    3    3  503    0 -0.46475932716E+02 -0.27007638638E+02  0.45451367313E+03  0.45770535711E+03  0.47000000000E+01 0. -1.
         -5    1    3    3    0  503  0.54960524627E+02  0.21889305772E+02  0.19612273387E+03  0.20490489920E+03  0.47000000000E+01 0. -1.
<mgrwt>
<rscale>  0 0.12539242E+03</rscale>
<asrwt>0</asrwt>
<pdfrwt beam="2">  1        5 0.74995628E-02 0.12539784E+03</pdfrwt>
<pdfrwt beam="1">  1       -5 0.11515790E+00 0.12539784E+03</pdfrwt>
<totfact> 0.51896627E+01</totfact>
</mgrwt>
</event>
<event>
 8    1  0.1865596E-007  0.1272709E+03  0.7546771E-02  0.1231569E+00
         -5   -1    0    0    0  501 -0.00000000000E+00  0.00000000000E+00  0.23265950947E+03  0.23270697743E+03  0.47000000000E+01 0. -1.
          5   -1    0    0  501    0  0.00000000000E+00 -0.00000000000E+00 -0.13139687859E+03  0.13148091003E+03  0.47000000000E+01 0. -1.
         25    2    1    2    0    0  0.11674155933E+02 -0.20840541393E+02  0.17555164542E+03  0.21682190605E+03  0.12499097827E+03 0.  0.
         25    2    1    2    0    0 -0.11674155933E+02  0.20840541393E+02 -0.74289014538E+02  0.14736598142E+03  0.12500904254E+03 0.  0.
          5    1    4    4  502    0 -0.47937768754E+02  0.55315790294E+02 -0.26422518981E+02  0.77962207756E+02  0.47000000000E+01 0. -1.
         -5    1    4    4    0  502  0.36263612821E+02 -0.34475248901E+02 -0.47866495557E+02  0.69403773662E+02  0.47000000000E+01 0. -1.
          5    1    3    3  503    0 -0.20866825160E+02 -0.67103302895E+02  0.93700161224E+02  0.11721812089E+03  0.47000000000E+01 0.  1.
         -5    1    3    3    0  503  0.32540981093E+02  0.46262761502E+02  0.81851484195E+02  0.99603785155E+02  0.47000000000E+01 0.  1.
<mgrwt>
<rscale>  0 0.12726644E+03</rscale>
<asrwt>0</asrwt>
<pdfrwt beam="2">  1        5 0.20225020E-01 0.12727087E+03</pdfrwt>
<pdfrwt beam="1">  1       -5 0.35803886E-01 0.12727087E+03</pdfrwt>
<totfact> 0.12067287E+02</totfact>
</mgrwt>
</event>
<event>
 8    1  0.1865596E-007  0.1669179E+03  0.7546771E-02  0.1181102E+00
         -5   -1    0    0    0  501 -0.00000000000E+00  0.00000000000E+00  0.10580065475E+04  0.10580169869E+04  0.47000000000E+01 0. -1.
          5   -1    0    0  501    0  0.00000000000E+00 -0.00000000000E+00 -0.33118585589E+02  0.33450421693E+02  0.47000000000E+01 0. -1.
         25    2    1    2    0    0  0.14059613235E+02 -0.10971158623E+03  0.76198611067E+03  0.78005294969E+03  0.12500186635E+03 0.  0.
         25    2    1    2    0    0 -0.14059613235E+02  0.10971158623E+03  0.26290185129E+03  0.31141445894E+03  0.12500910746E+03 0.  0.
          5    1    3    3  502    0  0.62686607236E+02 -0.46273717208E+02  0.25177847494E+03  0.26360075507E+03  0.47000000000E+01 0. -1.
         -5    1    3    3    0  502 -0.48626994001E+02 -0.63437869027E+02  0.51020763573E+03  0.51645219462E+03  0.47000000000E+01 0. -1.
          5    1    4    4  503    0  0.11327580873E+02 -0.64520555155E+01  0.13875894079E+03  0.13944919060E+03  0.47000000000E+01 0.  1.
         -5    1    4    4    0  503 -0.25387194108E+02  0.11616364175E+03  0.12414291050E+03  0.17196526834E+03  0.47000000000E+01 0.  1.
<mgrwt>
<rscale>  0 0.16691653E+03</rscale>
<asrwt>0</asrwt>
<pdfrwt beam="2">  1        5 0.51214964E-02 0.16691789E+03</pdfrwt>
<pdfrwt beam="1">  1       -5 0.16279655E+00 0.16691789E+03</pdfrwt>
<totfact> 0.42800844E+01</totfact>
</mgrwt>
</event>
<event>
 8    1  0.1865596E-007  0.1326752E+03  0.7546771E-02  0.1223547E+00
         -5   -1    0    0    0  501 -0.00000000000E+00  0.00000000000E+00  0.33672967326E+02  0.33999393061E+02  0.47000000000E+01 0.  1.
          5   -1    0    0  501    0  0.00000000000E+00 -0.00000000000E+00 -0.52389803277E+03  0.52391911470E+03  0.47000000000E+01 0.  1.
         25    2    1    2    0    0  0.13073496349E+02  0.42519482288E+02 -0.22047221893E+03  0.25730364377E+03  0.12497336955E+03 0.  0.
         25    2    1    2    0    0 -0.13073496349E+02 -0.42519482288E+02 -0.26975284652E+03  0.30061486399E+03  0.12499550218E+03 0.  0.
          5    1    4    4  502    0 -0.36247673545E+02 -0.71921972117E+02 -0.10968429682E+03  0.13615946122E+03  0.47000000000E+01 0.  1.
         -5    1    4    4    0  502  0.23174177196E+02  0.29402489829E+02 -0.16006854970E+03  0.16445540277E+03  0.47000000000E+01 0.  1.
          5    1    3    3  503    0 -0.24196655980E+02 -0.14567658004E+02 -0.16988063288E+03  0.17227656326E+03  0.47000000000E+01 0.  1.
         -5    1    3    3    0  503  0.37270152330E+02  0.57087140292E+02 -0.50591586050E+02  0.85027080512E+02  0.47000000000E+01 0.  1.
<mgrwt>
<rscale>  0 0.13266995E+03</rscale>
<asrwt>0</asrwt>
<pdfrwt beam="2">  1        5 0.80626423E-01 0.13267516E+03</pdfrwt>
<pdfrwt beam="1">  1       -5 0.52071882E-02 0.13267516E+03</pdfrwt>
<totfact> 0.23074604E+02</totfact>
</mgrwt>
</event>
<event>
 8    1  0.1865596E-007  0.1252312E+03  0.7546771E-02  0.1234718E+00
          5   -1    0    0  501    0  0.00000000000E+00  0.00000000000E+00  0.89357244813E+02  0.89480764417E+02  0.47000000000E+01 0.  1.
         -5   -1    0    0    0  501 -0.00000000000E+00 -0.00000000000E+00 -0.18286631455E+03  0.18292670389E+03  0.47000000000E+01 0.  1.
         25    2    1    2    0    0 -0.20500150487E+01 -0.72714998045E+01 -0.74627929229E+02  0.14576088396E+03  0.12497931909E+03 0.  0.
         25    2    1    2    0    0  0.20500150487E+01  0.72714998045E+01 -0.18881140508E+02  0.12664658435E+03  0.12500313032E+03 0.  0.
          5    1    4    4  502    0 -0.47154894810E+02 -0.19754420556E+02 -0.41424174339E+02  0.65968730894E+02  0.47000000000E+01 0.  1.
         -5    1    4    4    0  502  0.49204909859E+02  0.27025920361E+02  0.22543033832E+02  0.60677853455E+02  0.47000000000E+01 0.  1.
          5    1    3    3  503    0 -0.17471792562E+02 -0.93965296697E+01 -0.10732448879E+03  0.10924373757E+03  0.47000000000E+01 0. -1.
         -5    1    3    3    0  503  0.15421777514E+02  0.21250298652E+01  0.32696559557E+02  0.36517146390E+02  0.47000000000E+01 0. -1.
<mgrwt>
<rscale>  0 0.12522528E+03</rscale>
<asrwt>0</asrwt>
<pdfrwt beam="1">  1        5 0.13761415E-01 0.12523123E+03</pdfrwt>
<pdfrwt beam="2">  1       -5 0.28147426E-01 0.12523123E+03</pdfrwt>
<totfact> 0.38997327E+02</totfact>
</mgrwt>
</event>
<event>
 8    1  0.1865596E-007  0.1291508E+03  0.7546771E-02  0.1228722E+00
          5   -1    0    0  501    0  0.00000000000E+00  0.00000000000E+00  0.20525363094E+03  0.20530743536E+03  0.47000000000E+01 0. -1.
         -5   -1    0    0    0  501 -0.00000000000E+00 -0.00000000000E+00 -0.10487415442E+03  0.10497941829E+03  0.47000000000E+01 0. -1.
         25    2    1    2    0    0  0.25673391189E+02 -0.19885058472E+02 -0.23569405141E+02  0.13128055224E+03  0.12499811188E+03 0.  0.
         25    2    1    2    0    0 -0.25673391189E+02  0.19885058472E+02  0.12394888166E+03  0.17900630141E+03  0.12500156845E+03 0.  0.
          5    1    4    4  502    0 -0.39888513203E+02 -0.39852338477E+02  0.23682939560E+02  0.61337378440E+02  0.47000000000E+01 0. -1.
         -5    1    4    4    0  502  0.14215122013E+02  0.59737396949E+02  0.10026594210E+03  0.11766892297E+03  0.47000000000E+01 0. -1.
          5    1    3    3  503    0 -0.42673128891E+02 -0.30764615265E+02 -0.31445488990E+02  0.61468416765E+02  0.47000000000E+01 0.  1.
         -5    1    3    3    0  503  0.68346520081E+02  0.10879556793E+02  0.78760838494E+01  0.69812135478E+02  0.47000000000E+01 0.  1.
<mgrwt>
<rscale>  0 0.12914997E+03</rscale>
<asrwt>0</asrwt>
<pdfrwt beam="1">  1        5 0.31589717E-01 0.12915081E+03</pdfrwt>
<pdfrwt beam="2">  1       -5 0.16146722E-01 0.12915081E+03</pdfrwt>
<totfact> 0.23572533E+02</totfact>
</mgrwt>
</event>
<event>
 8    1  0.1865596E-007  0.1277358E+03  0.7546771E-02  0.1230859E+00
          5   -1    0    0  501    0  0.00000000000E+00  0.00000000000E+00  0.53059692301E+02  0.53267447349E+02  0.47000000000E+01 0. -1.
         -5   -1    0    0    0  501 -0.00000000000E+00 -0.00000000000E+00 -0.31160007893E+03  0.31163552299E+03  0.47000000000E+01 0. -1.
         25    2    1    2    0    0  0.12605349106E+02 -0.23078178546E+02 -0.15225372758E+03  0.19874008746E+03  0.12499971059E+03 0.  0.
         25    2    1    2    0    0 -0.12605349106E+02  0.23078178546E+02 -0.10628665905E+03  0.16616288288E+03  0.12498700975E+03 0.  0.
          5    1    3    3  502    0 -0.13923342225E+02 -0.16774109709E+02 -0.16624515984E+03  0.16773423439E+03  0.47000000000E+01 0.  1.
         -5    1    3    3    0  502  0.26528691331E+02 -0.63040688365E+01  0.13991432261E+02  0.31005853066E+02  0.47000000000E+01 0.  1.
          5    1    4    4  503    0 -0.35387634293E+02  0.57139393677E+00 -0.12415774861E+03  0.12918919340E+03  0.47000000000E+01 0. -1.
         -5    1    4    4    0  503  0.22782285187E+02  0.22506784609E+02  0.17871089562E+02  0.36973689482E+02  0.47000000000E+01 0. -1.
<mgrwt>
<rscale>  0 0.12773265E+03</rscale>
<asrwt>0</asrwt>
<pdfrwt beam="1">  1        5 0.81817374E-02 0.12773576E+03</pdfrwt>
<pdfrwt beam="2">  1       -5 0.47957180E-01 0.12773576E+03</pdfrwt>
<totfact> 0.33330078E+02</totfact>
</mgrwt>
</event>
