<event>
 8    1  0.3488953E-007  0.1513428E+03  0.7546771E-02  0.1198834E+00
         -5   -1    0    0    0  501 -0.00000000000E+00  0.00000000000E+00  0.11966982889E+03  0.11976208894E+03  0.47000000000E+01 0. -1.
          5   -1    0    0  501    0  0.00000000000E+00 -0.00000000000E+00 -0.20793776098E+03  0.20799087105E+03  0.47000000000E+01 0. -1.
         25    2    1    2    0    0 -0.53492638822E+02  0.66464999917E+02  0.23464916230E+01  0.15136094945E+03  0.12500228947E+03 0.  0.
         25    2    1    2    0    0  0.53492638822E+02 -0.66464999917E+02 -0.90614423706E+02  0.17639201055E+03  0.12499643586E+03 0.  0.
          5    1    3    3  502    0  0.28201109394E+01  0.33698689919E+01 -0.50905839129E+02  0.51310851681E+02  0.47000000000E+01 0. -1.
         -5    1    3    3    0  502 -0.56312749761E+02  0.63095130926E+02  0.53252330752E+02  0.10005009776E+03  0.47000000000E+01 0. -1.
          5    1    4    4  503    0  0.38372627379E+02  0.28338843702E+02 -0.57208135029E+02  0.74635174735E+02  0.47000000000E+01 0.  1.
         -5    1    4    4    0  503  0.15120011443E+02 -0.94803843619E+02 -0.33406288677E+02  0.10175683581E+03  0.47000000000E+01 0.  1.
<mgrwt>
<rscale>  0 0.15134155E+03</rscale>
<asrwt>0</asrwt>
<pdfrwt beam="2">  1        5 0.32001607E-01 0.15134276E+03</pdfrwt>
<pdfrwt beam="1">  1       -5 0.18421925E-01 0.15134276E+03</pdfrwt>
<totfact> 0.19028644E+02</totfact>
</mgrwt>
</event>
<event>
 8    1  0.3488953E-007  0.1397275E+03  0.7546771E-02  0.1213698E+00
          5   -1    0    0  501    0  0.00000000000E+00  0.00000000000E+00  0.48041289939E+02  0.48270648835E+02  0.47000000000E+01 0. -1.
         -5   -1    0    0    0  501 -0.00000000000E+00 -0.00000000000E+00 -0.70997940790E+03  0.70999496451E+03  0.47000000000E+01 0. -1.
         25    2    1    2    0    0  0.58747275582E+01 -0.62158198285E+02 -0.57933974082E+03  0.59595026801E+03  0.12499613038E+03 0.  0.
         25    2    1    2    0    0 -0.58747275582E+01  0.62158198285E+02 -0.82598377132E+02  0.16231534533E+03  0.12500250153E+03 0.  0.
          5    1    4    4  502    0 -0.17067401372E+02  0.99012796257E+02 -0.54423418584E+02  0.11436270591E+03  0.47000000000E+01 0.  1.
         -5    1    4    4    0  502  0.11192673814E+02 -0.36854597972E+02 -0.28174958548E+02  0.47952639426E+02  0.47000000000E+01 0.  1.
          5    1    3    3  503    0  0.28420832823E+02 -0.91111726044E+02 -0.31930676812E+03  0.33329865365E+03  0.47000000000E+01 0. -1.
         -5    1    3    3    0  503 -0.22546105265E+02  0.28953527759E+02 -0.26003297271E+03  0.26265161436E+03  0.47000000000E+01 0. -1.
<mgrwt>
<rscale>  0 0.13972609E+03</rscale>
<asrwt>0</asrwt>
<pdfrwt beam="1">  1        5 0.74098078E-02 0.13972752E+03</pdfrwt>
<pdfrwt beam="2">  1       -5 0.10924643E+00 0.13972752E+03</pdfrwt>
<totfact> 0.62515374E+01</totfact>
</mgrwt>
</event>
<event>
 8    1  0.3488953E-007  0.1459949E+03  0.7546771E-02  0.1205485E+00
          5   -1    0    0  501    0  0.00000000000E+00  0.00000000000E+00  0.53493282957E+02  0.53699360532E+02  0.47000000000E+01 0. -1.
         -5   -1    0    0    0  501 -0.00000000000E+00 -0.00000000000E+00 -0.40222184640E+03  0.40224930543E+03  0.47000000000E+01 0. -1.
         25    2    1    2    0    0 -0.50391868427E+01 -0.75258494124E+02 -0.19919480544E+03  0.24696779442E+03  0.12500114649E+03 0.  0.
         25    2    1    2    0    0  0.50391868427E+01  0.75258494124E+02 -0.14953375800E+03  0.20898087154E+03  0.12499370203E+03 0.  0.
          5    1    3    3  502    0 -0.12568626479E+02 -0.94234563036E+02 -0.20431725063E+03  0.22540131354E+03  0.47000000000E+01 0.  1.
         -5    1    3    3    0  502  0.75294396363E+01  0.18976068912E+02  0.51224451903E+01  0.21566480875E+02  0.47000000000E+01 0.  1.
          5    1    4    4  503    0  0.53307805047E+02  0.12879953830E+02 -0.22680103459E+02  0.59532280173E+02  0.47000000000E+01 0. -1.
         -5    1    4    4    0  503 -0.48268618205E+02  0.62378540294E+02 -0.12685365454E+03  0.14944859137E+03  0.47000000000E+01 0. -1.
<mgrwt>
<rscale>  0 0.14599334E+03</rscale>
<asrwt>0</asrwt>
<pdfrwt beam="1">  1        5 0.82477004E-02 0.14599493E+03</pdfrwt>
<pdfrwt beam="2">  1       -5 0.61898247E-01 0.14599493E+03</pdfrwt>
<totfact> 0.19878920E+02</totfact>
</mgrwt>
</event>
<event>
 8    1  0.3488953E-007  0.1373078E+03  0.7546771E-02  0.1216998E+00
          5   -1    0    0  501    0  0.00000000000E+00  0.00000000000E+00  0.91257780122E+02  0.91378730747E+02  0.47000000000E+01 0. -1.
         -5   -1    0    0    0  501 -0.00000000000E+00 -0.00000000000E+00 -0.30203602083E+03  0.30207258710E+03  0.47000000000E+01 0. -1.
         25    2    1    2    0    0 -0.16478980462E+02 -0.54373947777E+02 -0.21610920303E+03  0.25604006716E+03  0.12500098145E+03 0.  0.
         25    2    1    2    0    0  0.16478980462E+02  0.54373947777E+02  0.53309623220E+01  0.13741125069E+03  0.12500139864E+03 0.  0.
          5    1    4    4  502    0 -0.48056093972E+01  0.28336809002E+02  0.63610748735E+02  0.69960603061E+02  0.47000000000E+01 0.  1.
         -5    1    4    4    0  502  0.21284589859E+02  0.26037138775E+02 -0.58279786413E+02  0.67450647628E+02  0.47000000000E+01 0.  1.
          5    1    3    3  503    0 -0.27480605882E+02 -0.87498689316E+02 -0.10505154230E+03  0.13953179162E+03  0.47000000000E+01 0. -1.
         -5    1    3    3    0  503  0.11001625420E+02  0.33124741539E+02 -0.11105766073E+03  0.11650827554E+03  0.47000000000E+01 0. -1.
<mgrwt>
<rscale>  0 0.13730771E+03</rscale>
<asrwt>0</asrwt>
<pdfrwt beam="1">  1        5 0.14051775E-01 0.13730780E+03</pdfrwt>
<pdfrwt beam="2">  1       -5 0.46479197E-01 0.13730780E+03</pdfrwt>
<totfact> 0.14126745E+02</totfact>
</mgrwt>
</event>
<event>
 8    1  0.3488953E-007  0.1410014E+03  0.7546771E-02  0.1211996E+00
         -5   -1    0    0    0  501 -0.00000000000E+00  0.00000000000E+00  0.27839496961E+02  0.28233448090E+02  0.47000000000E+01 0.  1.
          5   -1    0    0  501    0  0.00000000000E+00 -0.00000000000E+00 -0.70861006166E+03  0.70862564834E+03  0.47000000000E+01 0.  1.
         25    2    1    2    0    0 -0.33513477540E+02 -0.55942761905E+02 -0.34160488588E+03  0.36956095172E+03  0.12501461192E+03 0.  0.
         25    2    1    2    0    0  0.33513477540E+02  0.55942761905E+02 -0.33916567883E+03  0.36729814472E+03  0.12498729388E+03 0.  0.
          5    1    4    4  502    0 -0.64172982896E+01 -0.20440394124E+02 -0.54513003135E+01  0.22600843002E+02  0.47000000000E+01 0.  1.
         -5    1    4    4    0  502  0.39930775830E+02  0.76383156028E+02 -0.33371437851E+03  0.34469730171E+03  0.47000000000E+01 0.  1.
          5    1    3    3  503    0 -0.11663777342E+02 -0.94713603571E+02 -0.24924381396E+03  0.26692935245E+03  0.47000000000E+01 0.  1.
         -5    1    3    3    0  503 -0.21849700198E+02  0.38770841667E+02 -0.92361071917E+02  0.10263159927E+03  0.47000000000E+01 0.  1.
<mgrwt>
<rscale>  0 0.14099536E+03</rscale>
<asrwt>0</asrwt>
<pdfrwt beam="2">  1        5 0.10904842E+00 0.14100141E+03</pdfrwt>
<pdfrwt beam="1">  1       -5 0.43145030E-02 0.14100141E+03</pdfrwt>
<totfact> 0.15582748E+02</totfact>
</mgrwt>
</event>
<event>
 8    1  0.3488953E-007  0.1799577E+03  0.7546771E-02  0.1167847E+00
         -5   -1    0    0    0  501 -0.00000000000E+00  0.00000000000E+00  0.52374826413E+02  0.52585287313E+02  0.47000000000E+01 0.  1.
          5   -1    0    0  501    0  0.00000000000E+00 -0.00000000000E+00 -0.63869760252E+03  0.63871489529E+03  0.47000000000E+01 0.  1.
         25    2    1    2    0    0  0.24715607321E+02 -0.12707673706E+03 -0.22918989462E+03  0.29138936961E+03  0.12498159295E+03 0.  0.
         25    2    1    2    0    0 -0.24715607321E+02  0.12707673706E+03 -0.35713288149E+03  0.39991081300E+03  0.12500161985E+03 0.  0.
          5    1    4    4  502    0 -0.38371194290E+02  0.12484661221E+03 -0.36171023553E+03  0.38459772440E+03  0.47000000000E+01 0.  1.
         -5    1    4    4    0  502  0.13655586969E+02  0.22301248496E+01  0.45773540376E+01  0.15313088594E+02  0.47000000000E+01 0.  1.
          5    1    3    3  503    0  0.28762263250E+02 -0.10738587043E+03 -0.71297387432E+02  0.13215294325E+03  0.47000000000E+01 0.  1.
         -5    1    3    3    0  503 -0.40466559291E+01 -0.19690866633E+02 -0.15789250719E+03  0.15923642636E+03  0.47000000000E+01 0.  1.
<mgrwt>
<rscale>  0 0.17995419E+03</rscale>
<asrwt>0</asrwt>
<pdfrwt beam="2">  1        5 0.98278684E-01 0.17995767E+03</pdfrwt>
<pdfrwt beam="1">  1       -5 0.80751856E-02 0.17995767E+03</pdfrwt>
<totfact> 0.75428117E+01</totfact>
</mgrwt>
</event>
<event>
 8    1  0.3488953E-007  0.1259276E+03  0.7546771E-02  0.1233656E+00
          5   -1    0    0  501    0  0.00000000000E+00  0.00000000000E+00  0.39357912453E+02  0.39637548773E+02  0.47000000000E+01 0. -1.
         -5   -1    0    0    0  501 -0.00000000000E+00 -0.00000000000E+00 -0.41779266951E+03  0.41781910523E+03  0.47000000000E+01 0. -1.
         25    2    1    2    0    0  0.13855901190E+02 -0.65273381316E+01 -0.23518329810E+03  0.26677510011E+03  0.12499271256E+03 0.  0.
         25    2    1    2    0    0 -0.13855901190E+02  0.65273381316E+01 -0.14325145895E+03  0.19068155389E+03  0.12491550088E+03 0.  0.
          5    1    4    4  502    0  0.20663039064E+02  0.55056969854E+02 -0.10283352011E+03  0.11855401288E+03  0.47000000000E+01 0. -1.
         -5    1    4    4    0  502 -0.34518940254E+02 -0.48529631723E+02 -0.40417938847E+02  0.72127541009E+02  0.47000000000E+01 0. -1.
          5    1    3    3  503    0  0.24904372927E+01  0.21776466796E+01  0.15038824487E+02  0.16099710089E+02  0.47000000000E+01 0.  1.
         -5    1    3    3    0  503  0.11365463897E+02 -0.87049848112E+01 -0.25022212259E+03  0.25067539002E+03  0.47000000000E+01 0.  1.
<mgrwt>
<rscale>  0 0.12590848E+03</rscale>
<asrwt>0</asrwt>
<pdfrwt beam="1">  1        5 0.60786078E-02 0.12592764E+03</pdfrwt>
<pdfrwt beam="2">  1       -5 0.64299336E-01 0.12592764E+03</pdfrwt>
<totfact> 0.29176867E+02</totfact>
</mgrwt>
</event>
<event>
 8    1  0.3488953E-007  0.1256246E+03  0.7546771E-02  0.1234097E+00
          5   -1    0    0  501    0  0.00000000000E+00  0.00000000000E+00  0.16489727697E+02  0.17146460846E+02  0.47000000000E+01 0. -1.
         -5   -1    0    0    0  501 -0.00000000000E+00 -0.00000000000E+00 -0.93768844628E+03  0.93770022518E+03  0.47000000000E+01 0. -1.
         25    2    1    2    0    0 -0.11133731871E+02 -0.56359614750E+01 -0.46097683211E+03  0.47778723515E+03  0.12500111312E+03 0.  0.
         25    2    1    2    0    0  0.11133731871E+02  0.56359614750E+01 -0.46022188648E+03  0.47705945087E+03  0.12500324327E+03 0.  0.
          5    1    4    4  502    0 -0.40486218669E+02  0.43909062274E+02 -0.18794430574E+03  0.19726198750E+03  0.47000000000E+01 0.  1.
         -5    1    4    4    0  502  0.51619950540E+02 -0.38273100799E+02 -0.27227758074E+03  0.27979746338E+03  0.47000000000E+01 0.  1.
          5    1    3    3  503    0 -0.49783586708E+02  0.18744836551E+02 -0.38728403448E+03  0.39094857432E+03  0.47000000000E+01 0.  1.
         -5    1    3    3    0  503  0.38649854837E+02 -0.24380798026E+02 -0.73692797630E+02  0.86838660825E+02  0.47000000000E+01 0.  1.
<mgrwt>
<rscale>  0 0.12562405E+03</rscale>
<asrwt>0</asrwt>
<pdfrwt beam="1">  1        5 0.25883059E-02 0.12562458E+03</pdfrwt>
<pdfrwt beam="2">  1       -5 0.14431114E+00 0.12562458E+03</pdfrwt>
<totfact> 0.16697103E+02</totfact>
</mgrwt>
</event>
<event>
 8    1  0.3488953E-007  0.2283855E+03  0.7546771E-02  0.1127781E+00
         -5   -1    0    0    0  501 -0.00000000000E+00  0.00000000000E+00  0.29461012799E+02  0.29833559545E+02  0.47000000000E+01 0. -1.
          5   -1    0    0  501    0  0.00000000000E+00 -0.00000000000E+00 -0.17974158670E+04  0.17974220120E+04  0.47000000000E+01 0. -1.
         25    2    1    2    0    0 -0.17811518788E+02  0.19030882794E+03 -0.75036339289E+03  0.78434985609E+03  0.12499910066E+03 0.  0.
         25    2    1    2    0    0  0.17811518788E+02 -0.19030882794E+03 -0.10175914614E+04  0.10429057154E+04  0.12500099537E+03 0.  0.
          5    1    4    4  502    0  0.57268367945E+02 -0.60899313628E+02 -0.25506564405E+03  0.26845663550E+03  0.47000000000E+01 0. -1.
         -5    1    4    4    0  502 -0.39456849157E+02 -0.12940951431E+03 -0.76252581730E+03  0.77444907992E+03  0.47000000000E+01 0. -1.
          5    1    3    3  503    0 -0.41772221871E+02  0.89305895979E+01 -0.10278427371E+03  0.11140633229E+03  0.47000000000E+01 0. -1.
         -5    1    3    3    0  503  0.23960703083E+02  0.18137823834E+03 -0.64757911917E+03  0.67294352380E+03  0.47000000000E+01 0. -1.
<mgrwt>
<rscale>  0 0.22838527E+03</rscale>
<asrwt>0</asrwt>
<pdfrwt beam="2">  1        5 0.27655456E+00 0.22838553E+03</pdfrwt>
<pdfrwt beam="1">  1       -5 0.45615951E-02 0.22838553E+03</pdfrwt>
<totfact> 0.95428957E+00</totfact>
</mgrwt>
</event>
<event>
 8    1  0.3488953E-007  0.1359214E+03  0.7546771E-02  0.1218925E+00
          5   -1    0    0  501    0  0.00000000000E+00  0.00000000000E+00  0.27588627059E+03  0.27592630229E+03  0.47000000000E+01 0.  1.
         -5   -1    0    0    0  501 -0.00000000000E+00 -0.00000000000E+00 -0.95289823092E+02  0.95405662227E+02  0.47000000000E+01 0.  1.
         25    2    1    2    0    0 -0.84423762266E+01  0.52698371243E+02 -0.11060586669E+02  0.13637014702E+03  0.12500435341E+03 0.  0.
         25    2    1    2    0    0  0.84423762266E+01 -0.52698371243E+02  0.19165703416E+03  0.23496181750E+03  0.12500497947E+03 0.  0.
          5    1    4    4  502    0 -0.43086205709E+02  0.16169557046E+02  0.43039930160E+02  0.63185451535E+02  0.47000000000E+01 0. -1.
         -5    1    4    4    0  502  0.51528581936E+02 -0.68867928289E+02  0.14861710400E+03  0.17177636597E+03  0.47000000000E+01 0. -1.
          5    1    3    3  503    0 -0.28313174974E+02  0.43045867504E+02 -0.61939072579E+02  0.80703911294E+02  0.47000000000E+01 0. -1.
         -5    1    3    3    0  503  0.19870798747E+02  0.96525037387E+01  0.50878485910E+02  0.55666235725E+02  0.47000000000E+01 0. -1.
<mgrwt>
<rscale>  0 0.13592129E+03</rscale>
<asrwt>0</asrwt>
<pdfrwt beam="1">  1        5 0.42456030E-01 0.13592144E+03</pdfrwt>
<pdfrwt beam="2">  1       -5 0.14671963E-01 0.13592144E+03</pdfrwt>
<totfact> 0.15722353E+02</totfact>
</mgrwt>
</event>
<event>
 8    1  0.3488953E-007  0.1275055E+03  0.7546771E-02  0.1231205E+00
         -5   -1    0    0    0  501 -0.00000000000E+00  0.00000000000E+00  0.68913316034E+02  0.69073403903E+02  0.47000000000E+01 0.  1.
          5   -1    0    0  501    0  0.00000000000E+00 -0.00000000000E+00 -0.23842935332E+03  0.23847567282E+03  0.47000000000E+01 0.  1.
         25    2    1    2    0    0 -0.15394851951E+02  0.19997236017E+02 -0.67587286670E+02  0.14431110514E+03  0.12498305018E+03 0.  0.
         25    2    1    2    0    0  0.15394851951E+02 -0.19997236017E+02 -0.10192875062E+03  0.16323797158E+03  0.12498109557E+03 0.  0.
          5    1    4    4  502    0 -0.30092600608E+02 -0.38511028974E+02 -0.10276898723E+03  0.11389564829E+03  0.47000000000E+01 0. -1.
         -5    1    4    4    0  502  0.45487452559E+02  0.18513792957E+02  0.84023661171E+00  0.49342323289E+02  0.47000000000E+01 0. -1.
          5    1    3    3  503    0  0.53856212746E+02  0.11195228147E+02 -0.43596345286E+02  0.70345974348E+02  0.47000000000E+01 0. -1.
         -5    1    3    3    0  503 -0.69251064697E+02  0.88020078706E+01 -0.23990941383E+02  0.73965130790E+02  0.47000000000E+01 0. -1.
<mgrwt>
<rscale>  0 0.12750503E+03</rscale>
<asrwt>0</asrwt>
<pdfrwt beam="2">  1        5 0.36697316E-01 0.12750550E+03</pdfrwt>
<pdfrwt beam="1">  1       -5 0.10617926E-01 0.12750550E+03</pdfrwt>
<totfact> 0.36773653E+02</totfact>
</mgrwt>
</event>
<event>
 8    1  0.3488953E-007  0.1648755E+03  0.7546771E-02  0.1183301E+00
         -5   -1    0    0    0  501 -0.00000000000E+00  0.00000000000E+00  0.55565821945E+02  0.55764240947E+02  0.47000000000E+01 0.  1.
          5   -1    0    0  501    0  0.00000000000E+00 -0.00000000000E+00 -0.53781738558E+03  0.53783792190E+03  0.47000000000E+01 0.  1.
         25    2    1    2    0    0  0.10167775962E+03  0.34923055641E+02 -0.15092860433E+03  0.22352264511E+03  0.12499977063E+03 0.  0.
         25    2    1    2    0    0 -0.10167775962E+03 -0.34923055641E+02 -0.33132295931E+03  0.37007951774E+03  0.12500383781E+03 0.  0.
          5    1    3    3  502    0 -0.19065090715E+02  0.16223669218E+02 -0.75913768187E+02  0.80072937545E+02  0.47000000000E+01 0.  1.
         -5    1    3    3    0  502  0.12074285033E+03  0.18699386423E+02 -0.75014836140E+02  0.14344970756E+03  0.47000000000E+01 0.  1.
          5    1    4    4  503    0 -0.37073059800E+02  0.40724055168E+02 -0.62670246837E+02  0.83561416161E+02  0.47000000000E+01 0. -1.
         -5    1    4    4    0  503 -0.64604699818E+02 -0.75647110808E+02 -0.26865271247E+03  0.28651810157E+03  0.47000000000E+01 0. -1.
<mgrwt>
<rscale>  0 0.16487478E+03</rscale>
<asrwt>0</asrwt>
<pdfrwt beam="2">  1        5 0.82757976E-01 0.16487555E+03</pdfrwt>
<pdfrwt beam="1">  1       -5 0.85654311E-02 0.16487555E+03</pdfrwt>
<totfact> 0.10011976E+02</totfact>
</mgrwt>
</event>
<event>
 8    1  0.3488953E-007  0.1300451E+03  0.7546771E-02  0.1227417E+00
          5   -1    0    0  501    0  0.00000000000E+00  0.00000000000E+00  0.41179276431E+03  0.41181958518E+03  0.47000000000E+01 0. -1.
         -5   -1    0    0    0  501 -0.00000000000E+00 -0.00000000000E+00 -0.90536069466E+02  0.90657982960E+02  0.47000000000E+01 0. -1.
         25    2    1    2    0    0 -0.35845739268E+02  0.13231067490E+01 -0.25224543568E+02  0.13239516895E+03  0.12492211785E+03 0.  0.
         25    2    1    2    0    0  0.35845739268E+02 -0.13231067490E+01  0.34648123841E+03  0.37008239920E+03  0.12500026395E+03 0.  0.
          5    1    4    4  502    0 -0.37289222457E+02 -0.32928828427E+02  0.12206130887E+03  0.13189331665E+03  0.47000000000E+01 0.  1.
         -5    1    4    4    0  502  0.73134961724E+02  0.31605721678E+02  0.22441992954E+03  0.23818908255E+03  0.47000000000E+01 0.  1.
          5    1    3    3  503    0 -0.48064605026E+02  0.55883678632E+02 -0.14092042369E+02  0.75192203398E+02  0.47000000000E+01 0.  1.
         -5    1    3    3    0  503  0.12218865758E+02 -0.54560571883E+02 -0.11132501199E+02  0.57202965548E+02  0.47000000000E+01 0.  1.
<mgrwt>
<rscale>  0 0.13002634E+03</rscale>
<asrwt>0</asrwt>
<pdfrwt beam="1">  1        5 0.63364173E-01 0.13004512E+03</pdfrwt>
<pdfrwt beam="2">  1       -5 0.13940068E-01 0.13004512E+03</pdfrwt>
<totfact> 0.72319280E+01</totfact>
</mgrwt>
</event>
<event>
 8    1  0.3488953E-007  0.1465101E+03  0.7546771E-02  0.1204829E+00
          5   -1    0    0  501    0  0.00000000000E+00  0.00000000000E+00  0.47201766208E+03  0.47204106105E+03  0.47000000000E+01 0.  1.
         -5   -1    0    0    0  501 -0.00000000000E+00 -0.00000000000E+00 -0.59243984349E+02  0.59430124360E+02  0.47000000000E+01 0.  1.
         25    2    1    2    0    0  0.38624160484E+02  0.65940244636E+02  0.77858506257E+02  0.16591307296E+03  0.12500103659E+03 0.  0.
         25    2    1    2    0    0 -0.38624160484E+02 -0.65940244636E+02  0.33491517148E+03  0.36555811245E+03  0.12499847942E+03 0.  0.
          5    1    3    3  502    0  0.61506137230E+02 -0.98528274839E+01  0.13824827284E+02  0.63978894769E+02  0.47000000000E+01 0. -1.
         -5    1    3    3    0  502 -0.22881976746E+02  0.75793072119E+02  0.64033678973E+02  0.10193417819E+03  0.47000000000E+01 0. -1.
          5    1    4    4  503    0 -0.67107932543E+02 -0.41586269223E+02  0.99357715704E+02  0.12699188190E+03  0.47000000000E+01 0. -1.
         -5    1    4    4    0  503  0.28483772059E+02 -0.24353975412E+02  0.23555745577E+03  0.23856623055E+03  0.47000000000E+01 0. -1.
<mgrwt>
<rscale>  0 0.14650953E+03</rscale>
<asrwt>0</asrwt>
<pdfrwt beam="1">  1        5 0.72634219E-01 0.14651007E+03</pdfrwt>
<pdfrwt beam="2">  1       -5 0.91305777E-02 0.14651007E+03</pdfrwt>
<totfact> 0.11673749E+02</totfact>
</mgrwt>
</event>
<event>
 8    1  0.3488953E-007  0.1394854E+03  0.7546771E-02  0.1214032E+00
         -5   -1    0    0    0  501 -0.00000000000E+00  0.00000000000E+00  0.14225841714E+02  0.14982141785E+02  0.47000000000E+01 0. -1.
          5   -1    0    0  501    0  0.00000000000E+00 -0.00000000000E+00 -0.13599935855E+04  0.13600017068E+04  0.47000000000E+01 0. -1.
         25    2    1    2    0    0  0.57554977448E+02  0.22782495574E+02 -0.57289048850E+03  0.58962060713E+03  0.12496932023E+03 0.  0.
         25    2    1    2    0    0 -0.57554977448E+02 -0.22782495574E+02 -0.77287725527E+03  0.78536324148E+03  0.12499820729E+03 0.  0.
          5    1    3    3  502    0  0.36106708854E+02 -0.16709302611E+02 -0.46851505588E+02  0.61644535799E+02  0.47000000000E+01 0. -1.
         -5    1    3    3    0  502  0.21448268594E+02  0.39491798185E+02 -0.52603898291E+03  0.52797607133E+03  0.47000000000E+01 0. -1.
          5    1    4    4  503    0 -0.43388881828E+02 -0.72009303871E+02 -0.38572123199E+03  0.39480488057E+03  0.47000000000E+01 0. -1.
         -5    1    4    4    0  503 -0.14166095619E+02  0.49226808297E+02 -0.38715602328E+03  0.39055836091E+03  0.47000000000E+01 0. -1.
<mgrwt>
<rscale>  0 0.13947890E+03</rscale>
<asrwt>0</asrwt>
<pdfrwt beam="2">  1        5 0.20928848E+00 0.13948537E+03</pdfrwt>
<pdfrwt beam="1">  1       -5 0.22473938E-02 0.13948537E+03</pdfrwt>
<totfact> 0.73327035E+01</totfact>
</mgrwt>
</event>
<event>
 8    1  0.3488953E-007  0.1260750E+03  0.7546771E-02  0.1233402E+00
         -5   -1    0    0    0  501 -0.00000000000E+00  0.00000000000E+00  0.15655921772E+03  0.15662975022E+03  0.47000000000E+01 0. -1.
          5   -1    0    0  501    0  0.00000000000E+00 -0.00000000000E+00 -0.12020640653E+03  0.12029825506E+03  0.47000000000E+01 0. -1.
         25    2    1    2    0    0  0.16341647447E+02 -0.11209526441E+01  0.72944762189E+02  0.14565013242E+03  0.12499886707E+03 0.  0.
         25    2    1    2    0    0 -0.16341647447E+02  0.11209526441E+01 -0.36591950993E+02  0.13127787286E+03  0.12500641203E+03 0.  0.
          5    1    4    4  502    0 -0.27464623918E+02  0.59116843748E+02 -0.29192450832E+02  0.71577901389E+02  0.47000000000E+01 0.  1.
         -5    1    4    4    0  502  0.11122976472E+02 -0.57995891104E+02 -0.73995001610E+01  0.59699971467E+02  0.47000000000E+01 0.  1.
          5    1    3    3  503    0  0.13600031662E+00  0.14249559570E+02 -0.33541624109E+02  0.36745053979E+02  0.47000000000E+01 0. -1.
         -5    1    3    3    0  503  0.16205647130E+02 -0.15370512214E+02  0.10648638630E+03  0.10890507845E+03  0.47000000000E+01 0. -1.
<mgrwt>
<rscale>  0 0.12607314E+03</rscale>
<asrwt>0</asrwt>
<pdfrwt beam="2">  1        5 0.18505784E-01 0.12607501E+03</pdfrwt>
<pdfrwt beam="1">  1       -5 0.24098524E-01 0.12607501E+03</pdfrwt>
<totfact> 0.30748740E+02</totfact>
</mgrwt>
</event>
<event>
 8    1  0.3488953E-007  0.1710689E+03  0.7546771E-02  0.1176738E+00
         -5   -1    0    0    0  501 -0.00000000000E+00  0.00000000000E+00  0.13717833996E+03  0.13725883197E+03  0.47000000000E+01 0. -1.
          5   -1    0    0  501    0  0.00000000000E+00 -0.00000000000E+00 -0.26020277198E+03  0.26024521618E+03  0.47000000000E+01 0. -1.
         25    2    1    2    0    0  0.11329564547E+03  0.28371506372E+02  0.22975813588E+02  0.17260495849E+03  0.12499495201E+03 0.  0.
         25    2    1    2    0    0 -0.11329564547E+03 -0.28371506372E+02 -0.14600024561E+03  0.22489908966E+03  0.12499073227E+03 0.  0.
          5    1    4    4  502    0 -0.10564515499E+03 -0.70097715305E+02 -0.12159551860E+03  0.17573317446E+03  0.47000000000E+01 0. -1.
         -5    1    4    4    0  502 -0.76504904825E+01  0.41726208933E+02 -0.24404727013E+02  0.49165915197E+02  0.47000000000E+01 0. -1.
          5    1    3    3  503    0  0.15422041412E+02 -0.28714420116E+02 -0.32581115214E+02  0.46324684052E+02  0.47000000000E+01 0.  1.
         -5    1    3    3    0  503  0.97873604058E+02  0.57085926488E+02  0.55556928803E+02  0.12628027444E+03  0.47000000000E+01 0.  1.
<mgrwt>
<rscale>  0 0.17106817E+03</rscale>
<asrwt>0</asrwt>
<pdfrwt beam="2">  1        5 0.40040652E-01 0.17106894E+03</pdfrwt>
<pdfrwt beam="1">  1       -5 0.21113817E-01 0.17106894E+03</pdfrwt>
<totfact> 0.97461661E+01</totfact>
</mgrwt>
</event>
<event>
 8    1  0.3488953E-007  0.1391677E+03  0.7546771E-02  0.1214457E+00
         -5   -1    0    0    0  501 -0.00000000000E+00  0.00000000000E+00  0.24380288284E+02  0.24829185585E+02  0.47000000000E+01 0.  1.
          5   -1    0    0  501    0  0.00000000000E+00 -0.00000000000E+00 -0.80647032417E+03  0.80648401954E+03  0.47000000000E+01 0.  1.
         25    2    1    2    0    0 -0.12398833565E+02 -0.59887085082E+02 -0.32589028565E+03  0.35436159576E+03  0.12500987255E+03 0.  0.
         25    2    1    2    0    0  0.12398833565E+02  0.59887085082E+02 -0.45619975024E+03  0.47695160937E+03  0.12499772608E+03 0.  0.
          5    1    4    4  502    0  0.17762466692E+02  0.10603776306E+02 -0.40490862896E+03  0.40546397263E+03  0.47000000000E+01 0. -1.
         -5    1    4    4    0  502 -0.53636331270E+01  0.49283308776E+02 -0.51291121286E+02  0.71487636742E+02  0.47000000000E+01 0. -1.
          5    1    3    3  503    0 -0.61425665256E+02 -0.59169348340E+02 -0.16079350786E+03  0.18207351895E+03  0.47000000000E+01 0. -1.
         -5    1    3    3    0  503  0.49026831691E+02 -0.71773674192E+00 -0.16509677779E+03  0.17228807680E+03  0.47000000000E+01 0. -1.
<mgrwt>
<rscale>  0 0.13916502E+03</rscale>
<asrwt>0</asrwt>
<pdfrwt beam="2">  1        5 0.12410792E+00 0.13916775E+03</pdfrwt>
<pdfrwt beam="1">  1       -5 0.37863983E-02 0.13916775E+03</pdfrwt>
<totfact> 0.13869562E+02</totfact>
</mgrwt>
</event>
<event>
 8    1  0.3488953E-007  0.1711977E+03  0.7546771E-02  0.1176606E+00
          5   -1    0    0  501    0  0.00000000000E+00  0.00000000000E+00  0.66256294536E+02  0.66422786494E+02  0.47000000000E+01 0. -1.
         -5   -1    0    0    0  501 -0.00000000000E+00 -0.00000000000E+00 -0.10400201583E+04  0.10400307782E+04  0.47000000000E+01 0. -1.
         25    2    1    2    0    0  0.53426730737E+02 -0.10405622236E+03 -0.90648816021E+03  0.92251152063E+03  0.12499843243E+03 0.  0.
         25    2    1    2    0    0 -0.53426730737E+02  0.10405622236E+03 -0.67275703553E+02  0.18394204410E+03  0.12500616917E+03 0.  0.
          5    1    3    3  502    0  0.84036806525E+02 -0.71668669387E+02 -0.79007906220E+03  0.79777540546E+03  0.47000000000E+01 0. -1.
         -5    1    3    3    0  502 -0.30610075788E+02 -0.32387552976E+02 -0.11640909801E+03  0.12473611517E+03  0.47000000000E+01 0. -1.
          5    1    4    4  503    0 -0.65085920252E+02  0.82825231704E+02  0.70000556570E+01  0.10567538408E+03  0.47000000000E+01 0. -1.
         -5    1    4    4    0  503  0.11659189515E+02  0.21230990659E+02 -0.74275759211E+02  0.78266660021E+02  0.47000000000E+01 0. -1.
<mgrwt>
<rscale>  0 0.17119630E+03</rscale>
<asrwt>0</asrwt>
<pdfrwt beam="1">  1        5 0.10206901E-01 0.17119771E+03</pdfrwt>
<pdfrwt beam="2">  1       -5 0.16001671E+00 0.17119771E+03</pdfrwt>
<totfact> 0.13913104E+01</totfact>
</mgrwt>
</event>
<event>
 8    1  0.3488953E-007  0.1630232E+03  0.7546771E-02  0.1185328E+00
          5   -1    0    0  501    0  0.00000000000E+00  0.00000000000E+00  0.61984217100E+03  0.61985998980E+03  0.47000000000E+01 0. -1.
         -5   -1    0    0    0  501 -0.00000000000E+00 -0.00000000000E+00 -0.45452066059E+02  0.45694423172E+02  0.47000000000E+01 0. -1.
         25    2    1    2    0    0  0.56711238949E+02 -0.87936159421E+02  0.36845844520E+03  0.40291215193E+03  0.12501057385E+03 0.  0.
         25    2    1    2    0    0 -0.56711238949E+02  0.87936159421E+02  0.20593165974E+03  0.26264226104E+03  0.12499670413E+03 0.  0.
          5    1    3    3  502    0  0.62435791624E+02 -0.11279169341E+03  0.24639410848E+03  0.27812288808E+03  0.47000000000E+01 0. -1.
         -5    1    3    3    0  502 -0.57245526753E+01  0.24855533992E+02  0.12206433672E+03  0.12478926385E+03  0.47000000000E+01 0. -1.
          5    1    4    4  503    0 -0.92204719245E+02  0.84561033971E+02  0.14216568259E+03  0.18943455340E+03  0.47000000000E+01 0.  1.
         -5    1    4    4    0  503  0.35493480295E+02  0.33751254504E+01  0.63765977152E+02  0.73207707637E+02  0.47000000000E+01 0.  1.
<mgrwt>
<rscale>  0 0.16302058E+03</rscale>
<asrwt>0</asrwt>
<pdfrwt beam="1">  1        5 0.95380349E-01 0.16302324E+03</pdfrwt>
<pdfrwt beam="2">  1       -5 0.70126390E-02 0.16302324E+03</pdfrwt>
<totfact> 0.10040427E+02</totfact>
</mgrwt>
</event>
<event>
 8    1  0.3488953E-007  0.1385018E+03  0.7546771E-02  0.1215364E+00
         -5   -1    0    0    0  501 -0.00000000000E+00  0.00000000000E+00  0.18851142610E+03  0.18857000761E+03  0.47000000000E+01 0. -1.
          5   -1    0    0  501    0  0.00000000000E+00 -0.00000000000E+00 -0.10164715594E+03  0.10175575812E+03  0.47000000000E+01 0. -1.
         25    2    1    2    0    0  0.54709074892E+02  0.23721656784E+02  0.41073506345E+02  0.14445070540E+03  0.12499269375E+03 0.  0.
         25    2    1    2    0    0 -0.54709074892E+02 -0.23721656784E+02  0.45790763812E+02  0.14587506033E+03  0.12500775696E+03 0.  0.
          5    1    4    4  502    0 -0.36352079090E+01  0.40443805510E+02 -0.15147858549E+02  0.43594308795E+02  0.47000000000E+01 0.  1.
         -5    1    4    4    0  502 -0.51073866983E+02 -0.64165462294E+02  0.60938622361E+02  0.10228075154E+03  0.47000000000E+01 0.  1.
          5    1    3    3  503    0 -0.34038732644E+02  0.29353361778E+02 -0.26004488311E+01  0.45267068624E+02  0.47000000000E+01 0.  1.
         -5    1    3    3    0  503  0.88747807536E+02 -0.56317049941E+01  0.43673955176E+02  0.99183636777E+02  0.47000000000E+01 0.  1.
<mgrwt>
<rscale>  0 0.13849837E+03</rscale>
<asrwt>0</asrwt>
<pdfrwt beam="2">  1        5 0.15650884E-01 0.13850177E+03</pdfrwt>
<pdfrwt beam="1">  1       -5 0.29014618E-01 0.13850177E+03</pdfrwt>
<totfact> 0.30211084E+02</totfact>
</mgrwt>
</event>
<event>
 8    1  0.3488953E-007  0.1523454E+03  0.7546771E-02  0.1197621E+00
         -5   -1    0    0    0  501 -0.00000000000E+00  0.00000000000E+00  0.15910559059E+03  0.15917499476E+03  0.47000000000E+01 0. -1.
          5   -1    0    0  501    0  0.00000000000E+00 -0.00000000000E+00 -0.14627618310E+03  0.14635167147E+03  0.47000000000E+01 0. -1.
         25    2    1    2    0    0  0.78235640000E+02  0.38248965817E+02  0.15741818352E+02  0.15315654637E+03  0.12500129638E+03 0.  0.
         25    2    1    2    0    0 -0.78235640000E+02 -0.38248965817E+02 -0.29124108660E+01  0.15237011986E+03  0.12499749012E+03 0.  0.
          5    1    3    3  502    0 -0.19758533644E+02  0.30293577330E+02  0.37543419346E+02  0.52342132316E+02  0.47000000000E+01 0.  1.
         -5    1    3    3    0  502  0.97994173645E+02  0.79553884875E+01 -0.21801600994E+02  0.10081441405E+03  0.47000000000E+01 0.  1.
          5    1    4    4  503    0 -0.32369032885E+02  0.28810820563E+02 -0.43368847247E+02  0.61487922252E+02  0.47000000000E+01 0. -1.
         -5    1    4    4    0  503 -0.45866607116E+02 -0.67059786380E+02  0.40456436381E+02  0.90882197609E+02  0.47000000000E+01 0. -1.
<mgrwt>
<rscale>  0 0.15234463E+03</rscale>
<asrwt>0</asrwt>
<pdfrwt beam="2">  1        5 0.22515174E-01 0.15234541E+03</pdfrwt>
<pdfrwt beam="1">  1       -5 0.24488929E-01 0.15234541E+03</pdfrwt>
<totfact> 0.22052313E+02</totfact>
</mgrwt>
</event>
<event>
 8    1  0.3488953E-007  0.1387747E+03  0.7546771E-02  0.1214989E+00
         -5   -1    0    0    0  501 -0.00000000000E+00  0.00000000000E+00  0.65439027397E+03  0.65440715206E+03  0.47000000000E+01 0. -1.
          5   -1    0    0  501    0  0.00000000000E+00 -0.00000000000E+00 -0.29623234617E+02  0.29993766506E+02  0.47000000000E+01 0. -1.
         25    2    1    2    0    0 -0.51233324336E+02  0.31731753056E+02  0.35186162297E+03  0.37823791756E+03  0.12500225153E+03 0.  0.
         25    2    1    2    0    0  0.51233324336E+02 -0.31731753056E+02  0.27290541639E+03  0.30616300101E+03  0.12500663670E+03 0.  0.
          5    1    3    3  502    0  0.74763632212E+01  0.24466111886E+02  0.51901995064E+01  0.26523853581E+02  0.47000000000E+01 0.  1.
         -5    1    3    3    0  502 -0.58709687557E+02  0.72656411693E+01  0.34667142346E+03  0.35171406398E+03  0.47000000000E+01 0.  1.
          5    1    4    4  503    0 -0.25466033008E+02  0.19570742701E+02  0.23161329495E+02  0.39875681700E+02  0.47000000000E+01 0.  1.
         -5    1    4    4    0  503  0.76699357343E+02 -0.51302495757E+02  0.24974408689E+03  0.26628731931E+03  0.47000000000E+01 0.  1.
<mgrwt>
<rscale>  0 0.13877371E+03</rscale>
<asrwt>0</asrwt>
<pdfrwt beam="2">  1        5 0.45872212E-02 0.13877470E+03</pdfrwt>
<pdfrwt beam="1">  1       -5 0.10070523E+00 0.13877470E+03</pdfrwt>
<totfact> 0.17049927E+02</totfact>
</mgrwt>
</event>
<event>
 8    1  0.3488953E-007  0.1531632E+03  0.7546771E-02  0.1196641E+00
          5   -1    0    0  501    0  0.00000000000E+00  0.00000000000E+00  0.14886880669E+03  0.14894298106E+03  0.47000000000E+01 0. -1.
         -5   -1    0    0    0  501 -0.00000000000E+00 -0.00000000000E+00 -0.15915187655E+03  0.15922126055E+03  0.47000000000E+01 0. -1.
         25    2    1    2    0    0  0.84340440677E+02  0.26845137147E+02 -0.21171938483E+02  0.15461441760E+03  0.12499358314E+03 0.  0.
         25    2    1    2    0    0 -0.84340440677E+02 -0.26845137147E+02  0.10888868623E+02  0.15354982401E+03  0.12500003868E+03 0.  0.
          5    1    4    4  502    0 -0.63118106561E+02  0.45275752751E+02  0.67237190212E+01  0.78109458841E+02  0.47000000000E+01 0. -1.
         -5    1    4    4    0  502 -0.21222334116E+02 -0.72120889899E+02  0.41651496016E+01  0.75440365166E+02  0.47000000000E+01 0. -1.
          5    1    3    3  503    0  0.11628201008E+03  0.13059719796E+02 -0.23461205950E+02  0.11943441855E+03  0.47000000000E+01 0. -1.
         -5    1    3    3    0  503 -0.31941569403E+02  0.13785417351E+02  0.22892674669E+01  0.35179999048E+02  0.47000000000E+01 0. -1.
<mgrwt>
<rscale>  0 0.15316193E+03</rscale>
<asrwt>0</asrwt>
<pdfrwt beam="1">  1        5 0.22913936E-01 0.15316325E+03</pdfrwt>
<pdfrwt beam="2">  1       -5 0.24495947E-01 0.15316325E+03</pdfrwt>
<totfact> 0.21355801E+02</totfact>
</mgrwt>
</event>
<event>
 8    1  0.3488953E-007  0.1280425E+03  0.7546771E-02  0.1230392E+00
         -5   -1    0    0    0  501 -0.00000000000E+00  0.00000000000E+00  0.55741242014E+02  0.55939038794E+02  0.47000000000E+01 0. -1.
          5   -1    0    0  501    0  0.00000000000E+00 -0.00000000000E+00 -0.43263755499E+03  0.43266308369E+03  0.47000000000E+01 0. -1.
         25    2    1    2    0    0 -0.55487977426E+01 -0.27188373225E+02 -0.49874285133E+02  0.13740659779E+03  0.12499252779E+03 0.  0.
         25    2    1    2    0    0  0.55487977426E+01  0.27188373225E+02 -0.32702202784E+03  0.35119552469E+03  0.12499957231E+03 0.  0.
          5    1    3    3  502    0  0.48090685822E+02 -0.35942281324E+02  0.44928682392E+01  0.60389051281E+02  0.47000000000E+01 0. -1.
         -5    1    3    3    0  502 -0.53639483565E+02  0.87539080990E+01 -0.54367153373E+02  0.77017546507E+02  0.47000000000E+01 0. -1.
          5    1    4    4  503    0  0.65136247152E+02  0.12659887369E+02 -0.17190470704E+03  0.18432667127E+03  0.47000000000E+01 0. -1.
         -5    1    4    4    0  503 -0.59587449409E+02  0.14528485856E+02 -0.15511732080E+03  0.16686885342E+03  0.47000000000E+01 0. -1.
<mgrwt>
<rscale>  0 0.12804081E+03</rscale>
<asrwt>0</asrwt>
<pdfrwt beam="2">  1        5 0.66576801E-01 0.12804253E+03</pdfrwt>
<pdfrwt beam="1">  1       -5 0.85927549E-02 0.12804253E+03</pdfrwt>
<totfact> 0.15084091E+02</totfact>
</mgrwt>
</event>
<event>
 8    1  0.3488953E-007  0.1279656E+03  0.7546771E-02  0.1230510E+00
          5   -1    0    0  501    0  0.00000000000E+00  0.00000000000E+00  0.25092860115E+02  0.25529230869E+02  0.47000000000E+01 0.  1.
         -5   -1    0    0    0  501 -0.00000000000E+00 -0.00000000000E+00 -0.69319929826E+03  0.69321523144E+03  0.47000000000E+01 0.  1.
         25    2    1    2    0    0  0.12023209558E+01  0.27328756742E+02 -0.42732573547E+03  0.44607149138E+03  0.12499673880E+03 0.  0.
         25    2    1    2    0    0 -0.12023209558E+01 -0.27328756742E+02 -0.24078070267E+03  0.27267297093E+03  0.12500758287E+03 0.  0.
          5    1    4    4  502    0 -0.61751595217E+01  0.15048919058E+02  0.90379129362E+01  0.19193134975E+02  0.47000000000E+01 0.  1.
         -5    1    4    4    0  502  0.49728385659E+01 -0.42377675800E+02 -0.24981861561E+03  0.25347983595E+03  0.47000000000E+01 0.  1.
          5    1    3    3  503    0 -0.91521669831E+01  0.26999542522E+02 -0.43257775534E+03  0.43354162645E+03  0.47000000000E+01 0.  1.
         -5    1    3    3    0  503  0.10354487939E+02  0.32921421938E+00  0.52520198666E+01  0.12529864930E+02  0.47000000000E+01 0.  1.
<mgrwt>
<rscale>  0 0.12796298E+03</rscale>
<asrwt>0</asrwt>
<pdfrwt beam="1">  1        5 0.38952332E-02 0.12796563E+03</pdfrwt>
<pdfrwt beam="2">  1       -5 0.10668082E+00 0.12796563E+03</pdfrwt>
<totfact> 0.18840165E+02</totfact>
</mgrwt>
</event>
<event>
 8    1  0.3488953E-007  0.1345852E+03  0.7546771E-02  0.1220808E+00
         -5   -1    0    0    0  501 -0.00000000000E+00  0.00000000000E+00  0.48714424482E+02  0.48940628854E+02  0.47000000000E+01 0.  1.
          5   -1    0    0  501    0  0.00000000000E+00 -0.00000000000E+00 -0.12308127889E+04  0.12308217626E+04  0.47000000000E+01 0.  1.
         25    2    1    2    0    0  0.49193144782E+02 -0.82557419462E+01 -0.56198031836E+02  0.14584720037E+03  0.12500025722E+03 0.  0.
         25    2    1    2    0    0 -0.49193144782E+02  0.82557419462E+01 -0.11259003326E+04  0.11339151911E+04  0.12499591565E+03 0.  0.
          5    1    4    4  502    0  0.13021136713E+02 -0.16283049042E+02 -0.83951319250E+03  0.83978519758E+03  0.47000000000E+01 0.  1.
         -5    1    4    4    0  502 -0.62214281494E+02  0.24538790988E+02 -0.28638714008E+03  0.29412999352E+03  0.47000000000E+01 0.  1.
          5    1    3    3  503    0  0.52844889210E+02  0.27099676923E+02  0.19007440452E+02  0.62532772188E+02  0.47000000000E+01 0.  1.
         -5    1    3    3    0  503 -0.36517444286E+01 -0.35355418869E+02 -0.75205472289E+02  0.83314428180E+02  0.47000000000E+01 0.  1.
<mgrwt>
<rscale>  0 0.13458423E+03</rscale>
<asrwt>0</asrwt>
<pdfrwt beam="2">  1        5 0.18937388E+00 0.13458524E+03</pdfrwt>
<pdfrwt beam="1">  1       -5 0.75126184E-02 0.13458524E+03</pdfrwt>
<totfact> 0.13609919E+01</totfact>
</mgrwt>
</event>
<event>
 8    1  0.3488953E-007  0.1342771E+03  0.7546771E-02  0.1221245E+00
          5   -1    0    0  501    0  0.00000000000E+00  0.00000000000E+00  0.95543593296E+01  0.10647806450E+02  0.47000000000E+01 0. -1.
         -5   -1    0    0    0  501 -0.00000000000E+00 -0.00000000000E+00 -0.17856668004E+04  0.17856729857E+04  0.47000000000E+01 0. -1.
         25    2    1    2    0    0  0.44244795872E+02  0.21241415058E+02 -0.91681449846E+03  0.92659481185E+03  0.12498128292E+03 0.  0.
         25    2    1    2    0    0 -0.44244795872E+02 -0.21241415058E+02 -0.85929794257E+03  0.86972598032E+03  0.12498610746E+03 0.  0.
          5    1    4    4  502    0 -0.49302638158E+02  0.16063609966E+02 -0.78086888991E+03  0.78260277468E+03  0.47000000000E+01 0. -1.
         -5    1    4    4    0  502  0.50578422862E+01 -0.37305025024E+02 -0.78429052660E+02  0.87123205645E+02  0.47000000000E+01 0. -1.
          5    1    3    3  503    0  0.40666222771E+02 -0.45683919470E+02 -0.57325306764E+03  0.57652574247E+03  0.47000000000E+01 0. -1.
         -5    1    3    3    0  503  0.35785731007E+01  0.66925334529E+02 -0.34356143083E+03  0.35006906938E+03  0.47000000000E+01 0. -1.
<mgrwt>
<rscale>  0 0.13427593E+03</rscale>
<asrwt>0</asrwt>
<pdfrwt beam="1">  1        5 0.15544900E-02 0.13427705E+03</pdfrwt>
<pdfrwt beam="2">  1       -5 0.27480230E+00 0.13427705E+03</pdfrwt>
<totfact> 0.49544005E+01</totfact>
</mgrwt>
</event>
<event>
 8    1  0.3488953E-007  0.1433672E+03  0.7546771E-02  0.1208872E+00
         -5   -1    0    0    0  501 -0.00000000000E+00  0.00000000000E+00  0.14655901124E+03  0.14663435401E+03  0.47000000000E+01 0. -1.
          5   -1    0    0  501    0  0.00000000000E+00 -0.00000000000E+00 -0.14493485803E+03  0.14501104465E+03  0.47000000000E+01 0. -1.
         25    2    1    2    0    0 -0.50470186036E+02 -0.48797815215E+02  0.27471424138E+02  0.14597541468E+03  0.12500270436E+03 0.  0.
         25    2    1    2    0    0  0.50470186036E+02  0.48797815215E+02 -0.25847270929E+02  0.14566998398E+03  0.12499278528E+03 0.  0.
          5    1    4    4  502    0  0.85410548646E+02  0.55735407111E+02 -0.36124305124E+02  0.10829798173E+03  0.47000000000E+01 0. -1.
         -5    1    4    4    0  502 -0.34940362611E+02 -0.69375918959E+01  0.10277034195E+02  0.37372002255E+02  0.47000000000E+01 0. -1.
          5    1    3    3  503    0 -0.61961311718E+02 -0.82795985720E+02  0.34474897296E+02  0.10910998096E+03  0.47000000000E+01 0. -1.
         -5    1    3    3    0  503  0.11491125683E+02  0.33998170504E+02 -0.70034731577E+01  0.36865433720E+02  0.47000000000E+01 0. -1.
<mgrwt>
<rscale>  0 0.14336500E+03</rscale>
<asrwt>0</asrwt>
<pdfrwt beam="2">  1        5 0.22309327E-01 0.14336716E+03</pdfrwt>
<pdfrwt beam="1">  1       -5 0.22559196E-01 0.14336716E+03</pdfrwt>
<totfact> 0.25708528E+02</totfact>
</mgrwt>
</event>
<event>
 8    1  0.3488953E-007  0.1395089E+03  0.7546771E-02  0.1213993E+00
         -5   -1    0    0    0  501 -0.00000000000E+00  0.00000000000E+00  0.62155756225E+02  0.62333201682E+02  0.47000000000E+01 0.  1.
          5   -1    0    0  501    0  0.00000000000E+00 -0.00000000000E+00 -0.32977609826E+03  0.32980958898E+03  0.47000000000E+01 0.  1.
         25    2    1    2    0    0  0.56820742794E+02 -0.24681164539E+02 -0.88917283681E+02  0.16543581093E+03  0.12499987003E+03 0.  0.
         25    2    1    2    0    0 -0.56820742794E+02  0.24681164539E+02 -0.17870305835E+03  0.22670697973E+03  0.12499405945E+03 0.  0.
          5    1    4    4  502    0 -0.11523508799E+02  0.68709393549E+02 -0.12704420820E+03  0.14496928245E+03  0.47000000000E+01 0.  1.
         -5    1    4    4    0  502 -0.45297233994E+02 -0.44028229010E+02 -0.51658850154E+02  0.81737697279E+02  0.47000000000E+01 0.  1.
          5    1    3    3  503    0  0.46772117614E+02  0.73120865630E+01 -0.11384689958E+03  0.12338680699E+03  0.47000000000E+01 0.  1.
         -5    1    3    3    0  503  0.10048625180E+02 -0.31993251102E+02  0.24929615895E+02  0.42049003945E+02  0.47000000000E+01 0.  1.
<mgrwt>
<rscale>  0 0.13950757E+03</rscale>
<asrwt>0</asrwt>
<pdfrwt beam="2">  1        5 0.50751009E-01 0.13950887E+03</pdfrwt>
<pdfrwt beam="1">  1       -5 0.95786501E-02 0.13950887E+03</pdfrwt>
<totfact> 0.23228145E+02</totfact>
</mgrwt>
</event>
<event>
 8    1  0.3488953E-007  0.1411163E+03  0.7546771E-02  0.1211835E+00
         -5   -1    0    0    0  501 -0.00000000000E+00  0.00000000000E+00  0.51531915614E+03  0.51534058901E+03  0.47000000000E+01 0.  1.
          5   -1    0    0  501    0  0.00000000000E+00 -0.00000000000E+00 -0.38490405997E+02  0.38776298867E+02  0.47000000000E+01 0.  1.
         25    2    1    2    0    0  0.72746664994E+01 -0.65080334972E+02  0.24338998024E+03  0.28133955796E+03  0.12499957448E+03 0.  0.
         25    2    1    2    0    0 -0.72746664994E+01  0.65080334972E+02  0.23343876990E+03  0.27277732992E+03  0.12500176659E+03 0.  0.
          5    1    4    4  502    0  0.40312820635E+02 -0.12701380900E+02  0.37869858637E+02  0.56944400756E+02  0.47000000000E+01 0.  1.
         -5    1    4    4    0  502 -0.47587487134E+02  0.77781715873E+02  0.19556891127E+03  0.21583292916E+03  0.47000000000E+01 0.  1.
          5    1    3    3  503    0  0.39908428221E+02 -0.78977767091E+02  0.10026832985E+03  0.13381329645E+03  0.47000000000E+01 0. -1.
         -5    1    3    3    0  503 -0.32633761722E+02  0.13897432119E+02  0.14312165039E+03  0.14752626151E+03  0.47000000000E+01 0. -1.
<mgrwt>
<rscale>  0 0.14111582E+03</rscale>
<asrwt>0</asrwt>
<pdfrwt beam="2">  1        5 0.59452412E-02 0.14111631E+03</pdfrwt>
<pdfrwt beam="1">  1       -5 0.79303513E-01 0.14111631E+03</pdfrwt>
<totfact> 0.19607885E+02</totfact>
</mgrwt>
</event>
<event>
 8    1  0.3488953E-007  0.1332064E+03  0.7546771E-02  0.1222775E+00
          5   -1    0    0  501    0  0.00000000000E+00  0.00000000000E+00  0.18102846807E+03  0.18108947030E+03  0.47000000000E+01 0. -1.
         -5   -1    0    0    0  501 -0.00000000000E+00 -0.00000000000E+00 -0.98041211918E+02  0.98153803973E+02  0.47000000000E+01 0. -1.
         25    2    1    2    0    0 -0.45714980280E+02  0.53837951214E+01  0.35858055708E+02  0.13794537323E+03  0.12499712463E+03 0.  0.
         25    2    1    2    0    0  0.45714980280E+02 -0.53837951214E+01  0.47129200446E+02  0.14129790104E+03  0.12500036252E+03 0.  0.
          5    1    3    3  502    0 -0.42688133835E+02  0.21889818212E+02  0.78365825081E+02  0.92003986067E+02  0.47000000000E+01 0.  1.
         -5    1    3    3    0  502 -0.30268464454E+01 -0.16506023091E+02 -0.42507769373E+02  0.45941387166E+02  0.47000000000E+01 0.  1.
          5    1    4    4  503    0  0.30872352880E+02  0.55758633741E+02  0.45012907563E+02  0.78168914898E+02  0.47000000000E+01 0.  1.
         -5    1    4    4    0  503  0.14842627401E+02 -0.61142428863E+02  0.21162928834E+01  0.63128986139E+02  0.47000000000E+01 0.  1.
<mgrwt>
<rscale>  0 0.13320560E+03</rscale>
<asrwt>0</asrwt>
<pdfrwt beam="1">  1        5 0.27863887E-01 0.13320636E+03</pdfrwt>
<pdfrwt beam="2">  1       -5 0.15096617E-01 0.13320636E+03</pdfrwt>
<totfact> 0.34433040E+02</totfact>
</mgrwt>
</event>
<event>
 8    1  0.3488953E-007  0.1336560E+03  0.7546771E-02  0.1222144E+00
         -5   -1    0    0    0  501 -0.00000000000E+00  0.00000000000E+00  0.71143668692E+02  0.71298748902E+02  0.47000000000E+01 0.  1.
          5   -1    0    0  501    0  0.00000000000E+00 -0.00000000000E+00 -0.28471951325E+03  0.28475830318E+03  0.47000000000E+01 0.  1.
         25    2    1    2    0    0  0.67961180449E+01  0.46706992365E+02 -0.45140045376E+02  0.14103486724E+03  0.12500191888E+03 0.  0.
         25    2    1    2    0    0 -0.67961180449E+01 -0.46706992365E+02 -0.16843579919E+03  0.21502218484E+03  0.12504475667E+03 0.  0.
          5    1    3    3  502    0  0.59801461373E+02  0.40977128986E+02 -0.48597797802E+02  0.87402378877E+02  0.47000000000E+01 0. -1.
         -5    1    3    3    0  502 -0.53005343328E+02  0.57298633792E+01  0.34577524258E+01  0.53632488358E+02  0.47000000000E+01 0. -1.
          5    1    4    4  503    0 -0.40738536364E+02 -0.57057467239E+02 -0.16466311486E+03  0.17902852931E+03  0.47000000000E+01 0.  1.
         -5    1    4    4    0  503  0.33942418319E+02  0.10350474874E+02 -0.37726843294E+01  0.35993655532E+02  0.47000000000E+01 0.  1.
<mgrwt>
<rscale>  0 0.13364596E+03</rscale>
<asrwt>0</asrwt>
<pdfrwt beam="2">  1        5 0.43817914E-01 0.13365598E+03</pdfrwt>
<pdfrwt beam="1">  1       -5 0.10960093E-01 0.13365598E+03</pdfrwt>
<totfact> 0.24621843E+02</totfact>
</mgrwt>
</event>
<event>
 8    1  0.3488953E-007  0.1619211E+03  0.7546771E-02  0.1186548E+00
         -5   -1    0    0    0  501 -0.00000000000E+00  0.00000000000E+00  0.14718992179E+02  0.15451172472E+02  0.47000000000E+01 0. -1.
          5   -1    0    0  501    0  0.00000000000E+00 -0.00000000000E+00 -0.18072805125E+04  0.18072866239E+04  0.47000000000E+01 0. -1.
         25    2    1    2    0    0 -0.83710014701E+01 -0.10257733625E+03 -0.71680936871E+03  0.73486779981E+03  0.12499131388E+03 0.  0.
         25    2    1    2    0    0  0.83710014701E+01  0.10257733625E+03 -0.10757521516E+04  0.10878699966E+04  0.12500501634E+03 0.  0.
          5    1    3    3  502    0 -0.56322300076E+01 -0.44216455495E+01 -0.45702452383E+03  0.45710477830E+03  0.47000000000E+01 0.  1.
         -5    1    3    3    0  502 -0.27387714625E+01 -0.98155690704E+02 -0.25978484488E+03  0.27776302151E+03  0.47000000000E+01 0.  1.
          5    1    4    4  503    0 -0.39683126366E+02  0.60579049256E+02 -0.85374380852E+03  0.85682270763E+03  0.47000000000E+01 0.  1.
         -5    1    4    4    0  503  0.48054127836E+02  0.41998286998E+02 -0.22200834310E+03  0.23104728892E+03  0.47000000000E+01 0.  1.
<mgrwt>
<rscale>  0 0.16191844E+03</rscale>
<asrwt>0</asrwt>
<pdfrwt beam="2">  1        5 0.27809978E+00 0.16192108E+03</pdfrwt>
<pdfrwt beam="1">  1       -5 0.23212534E-02 0.16192108E+03</pdfrwt>
<totfact> 0.26215007E+01</totfact>
</mgrwt>
</event>
<event>
 8    1  0.3488953E-007  0.1306242E+03  0.7546771E-02  0.1226534E+00
          5   -1    0    0  501    0  0.00000000000E+00  0.00000000000E+00  0.10736123314E+03  0.10746406089E+03  0.47000000000E+01 0.  1.
         -5   -1    0    0    0  501 -0.00000000000E+00 -0.00000000000E+00 -0.16015238606E+03  0.16022133679E+03  0.47000000000E+01 0.  1.
         25    2    1    2    0    0 -0.37759055296E+02 -0.35626158901E+01 -0.13701408908E+02  0.13133774846E+03  0.12499374815E+03 0.  0.
         25    2    1    2    0    0  0.37759055296E+02  0.35626158901E+01 -0.39089744012E+02  0.13634764921E+03  0.12499693944E+03 0.  0.
          5    1    3    3  502    0 -0.36968687491E+02  0.27518864842E+02 -0.59732724120E+02  0.75591402341E+02  0.47000000000E+01 0. -1.
         -5    1    3    3    0  502 -0.79036780492E+00 -0.31081480732E+02  0.46031315212E+02  0.55746346122E+02  0.47000000000E+01 0. -1.
          5    1    4    4  503    0  0.63912413167E+02 -0.19141590014E+02  0.18131395859E+02  0.69296713782E+02  0.47000000000E+01 0. -1.
         -5    1    4    4    0  503 -0.26153357871E+02  0.22704205904E+02 -0.57221139872E+02  0.67050935429E+02  0.47000000000E+01 0. -1.
<mgrwt>
<rscale>  0 0.13062340E+03</rscale>
<asrwt>0</asrwt>
<pdfrwt beam="1">  1        5 0.16530327E-01 0.13062417E+03</pdfrwt>
<pdfrwt beam="2">  1       -5 0.24652042E-01 0.13062417E+03</pdfrwt>
<totfact> 0.36702851E+02</totfact>
</mgrwt>
</event>
<event>
 8    1  0.3488953E-007  0.1326885E+03  0.7546771E-02  0.1223521E+00
         -5   -1    0    0    0  501 -0.00000000000E+00  0.00000000000E+00  0.71768755557E+02  0.71922487959E+02  0.47000000000E+01 0. -1.
          5   -1    0    0  501    0  0.00000000000E+00 -0.00000000000E+00 -0.30583185503E+03  0.30586796752E+03  0.47000000000E+01 0. -1.
         25    2    1    2    0    0  0.38785727739E+02 -0.21814633321E+02 -0.32726213487E+02  0.13666230968E+03  0.12500148373E+03 0.  0.
         25    2    1    2    0    0 -0.38785727739E+02  0.21814633321E+02 -0.20133688599E+03  0.24112814579E+03  0.12500412045E+03 0.  0.
          5    1    3    3  502    0  0.42612650318E+02 -0.69435298801E+02 -0.62562650360E+01  0.81843323117E+02  0.47000000000E+01 0.  1.
         -5    1    3    3    0  502 -0.38269225790E+01  0.47620665479E+02 -0.26469948451E+02  0.54818986566E+02  0.47000000000E+01 0.  1.
          5    1    4    4  503    0 -0.18338399729E+02  0.37830864502E+02 -0.45140963164E+01  0.42543369392E+02  0.47000000000E+01 0. -1.
         -5    1    4    4    0  503 -0.20447328009E+02 -0.16016231181E+02 -0.19682278967E+03  0.19858477640E+03  0.47000000000E+01 0. -1.
<mgrwt>
<rscale>  0 0.13268789E+03</rscale>
<asrwt>0</asrwt>
<pdfrwt beam="2">  1        5 0.47065657E-01 0.13268851E+03</pdfrwt>
<pdfrwt beam="1">  1       -5 0.11055951E-01 0.13268851E+03</pdfrwt>
<totfact> 0.20838056E+02</totfact>
</mgrwt>
</event>
<event>
 8    1  0.3488953E-007  0.1518308E+03  0.7546771E-02  0.1198244E+00
          5   -1    0    0  501    0  0.00000000000E+00  0.00000000000E+00  0.75779811855E+02  0.75925423178E+02  0.47000000000E+01 0.  1.
         -5   -1    0    0    0  501 -0.00000000000E+00 -0.00000000000E+00 -0.40650585628E+03  0.40653302595E+03  0.47000000000E+01 0.  1.
         25    2    1    2    0    0 -0.65090347992E+02  0.56497838356E+02 -0.28662757511E+03  0.32435318672E+03  0.12498345403E+03 0.  0.
         25    2    1    2    0    0  0.65090347992E+02 -0.56497838356E+02 -0.44098469318E+02  0.15810526241E+03  0.12499535937E+03 0.  0.
          5    1    4    4  502    0  0.11251342548E+02  0.33762922300E+02  0.13276302893E+02  0.38273722707E+02  0.47000000000E+01 0. -1.
         -5    1    4    4    0  502  0.53839005444E+02 -0.90260760656E+02 -0.57374772211E+02  0.11983153970E+03  0.47000000000E+01 0. -1.
          5    1    3    3  503    0  0.33516716526E+02  0.36479450730E+01 -0.34441767571E+02  0.48425232507E+02  0.47000000000E+01 0.  1.
         -5    1    3    3    0  503 -0.98607064518E+02  0.52849893283E+02 -0.25218580754E+03  0.27592795421E+03  0.47000000000E+01 0.  1.
<mgrwt>
<rscale>  0 0.15182837E+03</rscale>
<asrwt>0</asrwt>
<pdfrwt beam="1">  1        5 0.11671724E-01 0.15183082E+03</pdfrwt>
<pdfrwt beam="2">  1       -5 0.62552652E-01 0.15183082E+03</pdfrwt>
<totfact> 0.10731003E+02</totfact>
</mgrwt>
</event>
<event>
 8    1  0.3488953E-007  0.1468940E+03  0.7546771E-02  0.1204342E+00
         -5   -1    0    0    0  501 -0.00000000000E+00  0.00000000000E+00  0.46925156583E+03  0.46927510273E+03  0.47000000000E+01 0. -1.
          5   -1    0    0  501    0  0.00000000000E+00 -0.00000000000E+00 -0.46076747726E+02  0.46315836180E+02  0.47000000000E+01 0. -1.
         25    2    1    2    0    0  0.77041881929E+02  0.41805161524E+01  0.23006702330E+03  0.27296278817E+03  0.12499968092E+03 0.  0.
         25    2    1    2    0    0 -0.77041881929E+02 -0.41805161524E+01  0.19310779481E+03  0.24262815073E+03  0.12499948331E+03 0.  0.
          5    1    4    4  502    0 -0.36253005167E+02 -0.34596069477E+02  0.18395671136E+03  0.19071793324E+03  0.47000000000E+01 0. -1.
         -5    1    4    4    0  502 -0.40788876762E+02  0.30415553324E+02  0.91510834469E+01  0.51910217489E+02  0.47000000000E+01 0. -1.
          5    1    3    3  503    0  0.76254571708E+02 -0.50176294470E+02  0.12889042710E+03  0.15801029217E+03  0.47000000000E+01 0.  1.
         -5    1    3    3    0  503  0.78731022076E+00  0.54356810622E+02  0.10117659620E+03  0.11495249600E+03  0.47000000000E+01 0.  1.
<mgrwt>
<rscale>  0 0.14689396E+03</rscale>
<asrwt>0</asrwt>
<pdfrwt beam="2">  1        5 0.71089324E-02 0.14689400E+03</pdfrwt>
<pdfrwt beam="1">  1       -5 0.72212750E-01 0.14689400E+03</pdfrwt>
<totfact> 0.18197627E+02</totfact>
</mgrwt>
</event>
<event>
 8    1  0.3488953E-007  0.1384374E+03  0.7546771E-02  0.1215448E+00
         -5   -1    0    0    0  501 -0.00000000000E+00  0.00000000000E+00  0.12412319999E+03  0.12421215228E+03  0.47000000000E+01 0.  1.
          5   -1    0    0  501    0  0.00000000000E+00 -0.00000000000E+00 -0.15448372077E+03  0.15455520044E+03  0.47000000000E+01 0.  1.
         25    2    1    2    0    0  0.55916989485E+02 -0.20338219630E+02 -0.94078106791E+01  0.13875666757E+03  0.12499821199E+03 0.  0.
         25    2    1    2    0    0 -0.55916989485E+02  0.20338219630E+02 -0.20952710103E+02  0.14001068515E+03  0.12499449190E+03 0.  0.
          5    1    3    3  502    0  0.73487766170E+02  0.16481485425E+02 -0.41970436118E+02  0.86346387570E+02  0.47000000000E+01 0. -1.
         -5    1    3    3    0  502 -0.17570776685E+02 -0.36819705055E+02  0.32562625439E+02  0.52410279995E+02  0.47000000000E+01 0. -1.
          5    1    4    4  503    0 -0.80924655102E+02  0.52998349539E+02 -0.11372437056E+02  0.97514343467E+02  0.47000000000E+01 0.  1.
         -5    1    4    4    0  503  0.25007665617E+02 -0.32660129908E+02 -0.95802730465E+01  0.42496341688E+02  0.47000000000E+01 0.  1.
<mgrwt>
<rscale>  0 0.13843653E+03</rscale>
<asrwt>0</asrwt>
<pdfrwt beam="2">  1        5 0.23779067E-01 0.13843737E+03</pdfrwt>
<pdfrwt beam="1">  1       -5 0.19108218E-01 0.13843737E+03</pdfrwt>
<totfact> 0.30728140E+02</totfact>
</mgrwt>
</event>
<event>
 8    1  0.3488953E-007  0.1472515E+03  0.7546771E-02  0.1203893E+00
          5   -1    0    0  501    0  0.00000000000E+00  0.00000000000E+00  0.92045077567E+03  0.92046277515E+03  0.47000000000E+01 0.  1.
         -5   -1    0    0    0  501 -0.00000000000E+00 -0.00000000000E+00 -0.24678323900E+02  0.25121896236E+02  0.47000000000E+01 0.  1.
         25    2    1    2    0    0 -0.44913280651E+01  0.77692877870E+02  0.33758136324E+03  0.36829905026E+03  0.12500663310E+03 0.  0.
         25    2    1    2    0    0  0.44913280651E+01 -0.77692877870E+02  0.55819108853E+03  0.57728562112E+03  0.12500016694E+03 0.  0.
          5    1    4    4  502    0 -0.13381825021E+02 -0.88241974931E+02  0.54493342405E+03  0.55221394951E+03  0.47000000000E+01 0.  1.
         -5    1    4    4    0  502  0.17873153086E+02  0.10549097062E+02  0.13257664481E+02  0.25071671615E+02  0.47000000000E+01 0.  1.
          5    1    3    3  503    0 -0.13173900692E+02 -0.18645151939E+02  0.77789744811E+01  0.24572256597E+02  0.47000000000E+01 0.  1.
         -5    1    3    3    0  503  0.86825726269E+01  0.96338029809E+02  0.32980238876E+03  0.34372679367E+03  0.47000000000E+01 0.  1.
<mgrwt>
<rscale>  0 0.14725016E+03</rscale>
<asrwt>0</asrwt>
<pdfrwt beam="1">  1        5 0.14164283E+00 0.14725153E+03</pdfrwt>
<pdfrwt beam="2">  1       -5 0.38317098E-02 0.14725153E+03</pdfrwt>
<totfact> 0.97878707E+01</totfact>
</mgrwt>
</event>
<event>
 8    1  0.3488953E-007  0.1581864E+03  0.7546771E-02  0.1190761E+00
          5   -1    0    0  501    0  0.00000000000E+00  0.00000000000E+00  0.52467831640E+02  0.52677920964E+02  0.47000000000E+01 0. -1.
         -5   -1    0    0    0  501 -0.00000000000E+00 -0.00000000000E+00 -0.47622499440E+03  0.47624818665E+03  0.47000000000E+01 0. -1.
         25    2    1    2    0    0  0.92936863913E+02 -0.27558589335E+02 -0.22043684090E+03  0.27132147073E+03  0.12500481243E+03 0.  0.
         25    2    1    2    0    0 -0.92936863913E+02  0.27558589335E+02 -0.20332032185E+03  0.25760463689E+03  0.12499703655E+03 0.  0.
          5    1    4    4  502    0 -0.31637304942E+02  0.74287946761E+02 -0.10801819627E+03  0.13494309476E+03  0.47000000000E+01 0. -1.
         -5    1    4    4    0  502 -0.61299558972E+02 -0.46729357426E+02 -0.95302125589E+02  0.12266154213E+03  0.47000000000E+01 0. -1.
          5    1    3    3  503    0  0.12337190606E+03 -0.16778541965E+02 -0.18606342650E+03  0.22392819241E+03  0.47000000000E+01 0.  1.
         -5    1    3    3    0  503 -0.30435042150E+02 -0.10780047370E+02 -0.34373414400E+02  0.47393278316E+02  0.47000000000E+01 0.  1.
<mgrwt>
<rscale>  0 0.15818487E+03</rscale>
<asrwt>0</asrwt>
<pdfrwt beam="1">  1        5 0.80899191E-02 0.15818641E+03</pdfrwt>
<pdfrwt beam="2">  1       -5 0.73283326E-01 0.15818641E+03</pdfrwt>
<totfact> 0.14447323E+02</totfact>
</mgrwt>
</event>
<event>
 8    1  0.3488953E-007  0.2379291E+03  0.7546771E-02  0.1121181E+00
         -5   -1    0    0    0  501 -0.00000000000E+00  0.00000000000E+00  0.15630083224E+03  0.15637148128E+03  0.47000000000E+01 0. -1.
          5   -1    0    0  501    0  0.00000000000E+00 -0.00000000000E+00 -0.36798420828E+03  0.36801422193E+03  0.47000000000E+01 0. -1.
         25    2    1    2    0    0 -0.19751275386E+03  0.44423407369E+02 -0.72456737590E+02  0.24871503372E+03  0.12499784845E+03 0.  0.
         25    2    1    2    0    0  0.19751275386E+03 -0.44423407369E+02 -0.13922663845E+03  0.27567066949E+03  0.12500213640E+03 0.  0.
          5    1    3    3  502    0 -0.18490737489E+03  0.77263162200E+02 -0.72682975727E+02  0.21322579225E+03  0.47000000000E+01 0. -1.
         -5    1    3    3    0  502 -0.12605378970E+02 -0.32839754830E+02  0.22623813741E+00  0.35489241468E+02  0.47000000000E+01 0. -1.
          5    1    4    4  503    0  0.51577963287E+02 -0.67993816915E+02 -0.77601691333E+02  0.11544504291E+03  0.47000000000E+01 0. -1.
         -5    1    4    4    0  503  0.14593479057E+03  0.23570409546E+02 -0.61624947120E+02  0.16022562658E+03  0.47000000000E+01 0. -1.
<mgrwt>
<rscale>  0 0.23792855E+03</rscale>
<asrwt>0</asrwt>
<pdfrwt beam="2">  1        5 0.56620698E-01 0.23792911E+03</pdfrwt>
<pdfrwt beam="1">  1       -5 0.24054025E-01 0.23792911E+03</pdfrwt>
<totfact> 0.39847251E+01</totfact>
</mgrwt>
</event>
<event>
 8    1  0.3488953E-007  0.1380864E+03  0.7546771E-02  0.1215938E+00
          5   -1    0    0  501    0  0.00000000000E+00  0.00000000000E+00  0.39864485809E+03  0.39867256350E+03  0.47000000000E+01 0.  1.
         -5   -1    0    0    0  501 -0.00000000000E+00 -0.00000000000E+00 -0.47752773396E+02  0.47983511407E+02  0.47000000000E+01 0.  1.
         25    2    1    2    0    0 -0.47112498044E+02 -0.34856570685E+02  0.16650709700E+03  0.21629618838E+03  0.12499943906E+03 0.  0.
         25    2    1    2    0    0  0.47112498044E+02  0.34856570685E+02  0.18438498769E+03  0.23035988652E+03  0.12503313816E+03 0.  0.
          5    1    4    4  502    0  0.18543565383E+02  0.65851831541E+02  0.17351606411E+03  0.18657503059E+03  0.47000000000E+01 0.  1.
         -5    1    4    4    0  502  0.28568932661E+02 -0.30995260856E+02  0.10868923582E+02  0.43784855929E+02  0.47000000000E+01 0.  1.
          5    1    3    3  503    0 -0.18165659518E+02  0.43295022629E+02  0.28846591018E+02  0.55305207562E+02  0.47000000000E+01 0.  1.
         -5    1    3    3    0  503 -0.28946838526E+02 -0.78151593313E+02  0.13766050599E+03  0.16099098082E+03  0.47000000000E+01 0.  1.
<mgrwt>
<rscale>  0 0.13807877E+03</rscale>
<asrwt>0</asrwt>
<pdfrwt beam="1">  1        5 0.61349858E-01 0.13808640E+03</pdfrwt>
<pdfrwt beam="2">  1       -5 0.73664609E-02 0.13808640E+03</pdfrwt>
<totfact> 0.24147531E+02</totfact>
</mgrwt>
</event>
<event>
 8    1  0.3488953E-007  0.1256439E+03  0.7546771E-02  0.1234067E+00
         -5   -1    0    0    0  501 -0.00000000000E+00  0.00000000000E+00  0.11600393739E+03  0.11609911063E+03  0.47000000000E+01 0.  1.
          5   -1    0    0  501    0  0.00000000000E+00 -0.00000000000E+00 -0.22086951912E+03  0.22091952036E+03  0.47000000000E+01 0.  1.
         25    2    1    2    0    0  0.12177779517E+02 -0.34766064972E+01  0.52051038541E+02  0.13599822285E+03  0.12500328355E+03 0.  0.
         25    2    1    2    0    0 -0.12177779517E+02  0.34766064972E+01 -0.15691662028E+03  0.20102040815E+03  0.12500397460E+03 0.  0.
          5    1    4    4  502    0 -0.35868341656E+02  0.55054922282E+02 -0.62803858132E+02  0.91016465526E+02  0.47000000000E+01 0. -1.
         -5    1    4    4    0  502  0.23690562139E+02 -0.51578315784E+02 -0.94112762146E+02  0.11000394262E+03  0.47000000000E+01 0. -1.
          5    1    3    3  503    0 -0.26033319642E+02 -0.17510270022E+02  0.80225127263E+02  0.86269950343E+02  0.47000000000E+01 0.  1.
         -5    1    3    3    0  503  0.38211099159E+02  0.14033663524E+02 -0.28174088722E+02  0.49728272504E+02  0.47000000000E+01 0.  1.
<mgrwt>
<rscale>  0 0.12564368E+03</rscale>
<asrwt>0</asrwt>
<pdfrwt beam="2">  1        5 0.33991093E-01 0.12564386E+03</pdfrwt>
<pdfrwt beam="1">  1       -5 0.17857927E-01 0.12564386E+03</pdfrwt>
<totfact> 0.16785751E+02</totfact>
</mgrwt>
</event>
<event>
 8    1  0.3488953E-007  0.1579419E+03  0.7546771E-02  0.1191042E+00
         -5   -1    0    0    0  501 -0.00000000000E+00  0.00000000000E+00  0.20090410602E+03  0.20095907498E+03  0.47000000000E+01 0.  1.
          5   -1    0    0  501    0  0.00000000000E+00 -0.00000000000E+00 -0.19755466837E+03  0.19761056904E+03  0.47000000000E+01 0.  1.
         25    2    1    2    0    0 -0.83208370690E+02 -0.48941669383E+02  0.12319833016E+03  0.20030841536E+03  0.12500685083E+03 0.  0.
         25    2    1    2    0    0  0.83208370690E+02  0.48941669383E+02 -0.11984889251E+03  0.19826122865E+03  0.12499935118E+03 0.  0.
          5    1    3    3  502    0  0.22961382688E+02 -0.45975243402E+02  0.38692561409E+02  0.64499243477E+02  0.47000000000E+01 0.  1.
         -5    1    3    3    0  502 -0.10616975338E+03 -0.29664259813E+01  0.84505768752E+02  0.13580917188E+03  0.47000000000E+01 0.  1.
          5    1    4    4  503    0  0.27858085754E+02  0.85386954041E+02 -0.82490976247E+02  0.12204038686E+03  0.47000000000E+01 0.  1.
         -5    1    4    4    0  503  0.55350284936E+02 -0.36445284658E+02 -0.37357916268E+02  0.76220841796E+02  0.47000000000E+01 0.  1.
<mgrwt>
<rscale>  0 0.15794038E+03</rscale>
<asrwt>0</asrwt>
<pdfrwt beam="2">  1        5 0.30401555E-01 0.15794186E+03</pdfrwt>
<pdfrwt beam="1">  1       -5 0.30916852E-01 0.15794186E+03</pdfrwt>
<totfact> 0.79375763E+01</totfact>
</mgrwt>
</event>
<event>
 8    1  0.3488953E-007  0.1467111E+03  0.7546771E-02  0.1204574E+00
          5   -1    0    0  501    0  0.00000000000E+00  0.00000000000E+00  0.27026195605E+03  0.27030282072E+03  0.47000000000E+01 0.  1.
         -5   -1    0    0    0  501 -0.00000000000E+00 -0.00000000000E+00 -0.96461400696E+02  0.96575834577E+02  0.47000000000E+01 0.  1.
         25    2    1    2    0    0 -0.22678507384E+02  0.73373869324E+02  0.10102837354E+02  0.14705807513E+03  0.12500388291E+03 0.  0.
         25    2    1    2    0    0  0.22678507384E+02 -0.73373869324E+02  0.16369771800E+03  0.21982058017E+03  0.12500442067E+03 0.  0.
          5    1    3    3  502    0  0.47972775225E+02  0.22474112638E+02  0.24701879844E+02  0.58640819994E+02  0.47000000000E+01 0.  1.
         -5    1    3    3    0  502 -0.70651282609E+02  0.50899756685E+02 -0.14599042490E+02  0.88417255141E+02  0.47000000000E+01 0.  1.
          5    1    4    4  503    0  0.46110579626E+02 -0.32462707310E+02  0.16288401383E+03  0.17243347959E+03  0.47000000000E+01 0.  1.
         -5    1    4    4    0  503 -0.23432072242E+02 -0.40911162014E+02  0.81370417108E+00  0.47387100580E+02  0.47000000000E+01 0.  1.
<mgrwt>
<rscale>  0 0.14671098E+03</rscale>
<asrwt>0</asrwt>
<pdfrwt beam="1">  1        5 0.41590708E-01 0.14671109E+03</pdfrwt>
<pdfrwt beam="2">  1       -5 0.14852162E-01 0.14671109E+03</pdfrwt>
<totfact> 0.16454518E+02</totfact>
</mgrwt>
</event>
<event>
 8    1  0.3488953E-007  0.1765764E+03  0.7546771E-02  0.1171159E+00
         -5   -1    0    0    0  501 -0.00000000000E+00  0.00000000000E+00  0.20589731605E+03  0.20595095231E+03  0.47000000000E+01 0.  1.
          5   -1    0    0  501    0  0.00000000000E+00 -0.00000000000E+00 -0.15133937317E+03  0.15141233725E+03  0.47000000000E+01 0.  1.
         25    2    1    2    0    0 -0.82444832361E+02  0.93575066723E+02  0.25246542201E+02  0.17837211992E+03  0.12500312707E+03 0.  0.
         25    2    1    2    0    0  0.82444832361E+02 -0.93575066723E+02  0.29311400684E+02  0.17899116964E+03  0.12500094841E+03 0.  0.
          5    1    3    3  502    0  0.13146737788E+01 -0.26812783213E+02  0.15410160927E+02  0.31308413734E+02  0.47000000000E+01 0. -1.
         -5    1    3    3    0  502 -0.83759506139E+02  0.12038784994E+03  0.98363812745E+01  0.14706370619E+03  0.47000000000E+01 0. -1.
          5    1    4    4  503    0  0.48389848271E+02  0.17199478968E+02 -0.16707415077E+02  0.54209106348E+02  0.47000000000E+01 0. -1.
         -5    1    4    4    0  503  0.34054984090E+02 -0.11077454569E+03  0.46018815761E+02  0.12478206329E+03  0.47000000000E+01 0. -1.
<mgrwt>
<rscale>  0 0.17657602E+03</rscale>
<asrwt>0</asrwt>
<pdfrwt beam="2">  1        5 0.23292719E-01 0.17657640E+03</pdfrwt>
<pdfrwt beam="1">  1       -5 0.31686249E-01 0.17657640E+03</pdfrwt>
<totfact> 0.13097014E+02</totfact>
</mgrwt>
</event>
<event>
 8    1  0.3488953E-007  0.1381581E+03  0.7546771E-02  0.1215832E+00
          5   -1    0    0  501    0  0.00000000000E+00  0.00000000000E+00  0.58637874229E+02  0.58825932157E+02  0.47000000000E+01 0.  1.
         -5   -1    0    0    0  501 -0.00000000000E+00 -0.00000000000E+00 -0.36420412291E+03  0.36423444805E+03  0.47000000000E+01 0.  1.
         25    2    1    2    0    0 -0.50515833218E+02 -0.30185481266E+02 -0.22236154608E+03  0.26178212812E+03  0.12498885047E+03 0.  0.
         25    2    1    2    0    0  0.50515833218E+02  0.30185481266E+02 -0.83204702605E+02  0.16127825209E+03  0.12499855750E+03 0.  0.
          5    1    3    3  502    0  0.59255066119E+01 -0.38895872049E+01  0.14509703845E+02  0.16818502398E+02  0.47000000000E+01 0.  1.
         -5    1    3    3    0  502 -0.56441339830E+02 -0.26295894061E+02 -0.23687124992E+03  0.24496362572E+03  0.47000000000E+01 0.  1.
          5    1    4    4  503    0 -0.28379335252E+02  0.46735884236E+02 -0.18866217652E+02  0.58031488979E+02  0.47000000000E+01 0.  1.
         -5    1    4    4    0  503  0.78895168471E+02 -0.16550402969E+02 -0.64338484953E+02  0.10324676311E+03  0.47000000000E+01 0.  1.
<mgrwt>
<rscale>  0 0.13815587E+03</rscale>
<asrwt>0</asrwt>
<pdfrwt beam="1">  1        5 0.90380103E-02 0.13815807E+03</pdfrwt>
<pdfrwt beam="2">  1       -5 0.56048201E-01 0.13815807E+03</pdfrwt>
<totfact> 0.20700097E+02</totfact>
</mgrwt>
</event>
<event>
 8    1  0.3488953E-007  0.1294663E+03  0.7546771E-02  0.1228252E+00
          5   -1    0    0  501    0  0.00000000000E+00  0.00000000000E+00  0.92283591208E+02  0.92403199112E+02  0.47000000000E+01 0. -1.
         -5   -1    0    0    0  501 -0.00000000000E+00 -0.00000000000E+00 -0.19558669088E+03  0.19564315385E+03  0.47000000000E+01 0. -1.
         25    2    1    2    0    0 -0.11825345517E+02 -0.31559150650E+02 -0.90484564099E+02  0.15795243264E+03  0.12500278337E+03 0.  0.
         25    2    1    2    0    0  0.11825345517E+02  0.31559150650E+02 -0.12818535570E+02  0.13009392032E+03  0.12499717782E+03 0.  0.
          5    1    4    4  502    0  0.17380233906E+01 -0.44457317440E+02 -0.26587841409E+02  0.52043031331E+02  0.47000000000E+01 0. -1.
         -5    1    4    4    0  502  0.10087322127E+02  0.76016468090E+02  0.13769305839E+02  0.78050888988E+02  0.47000000000E+01 0. -1.
          5    1    3    3  503    0 -0.66581815789E+02 -0.15309532068E+02 -0.67650851410E+02  0.96261350824E+02  0.47000000000E+01 0. -1.
         -5    1    3    3    0  503  0.54756470272E+02 -0.16249618582E+02 -0.22833712688E+02  0.61691081818E+02  0.47000000000E+01 0. -1.
<mgrwt>
<rscale>  0 0.12946492E+03</rscale>
<asrwt>0</asrwt>
<pdfrwt beam="1">  1        5 0.14211020E-01 0.12946627E+03</pdfrwt>
<pdfrwt beam="2">  1       -5 0.30103804E-01 0.12946627E+03</pdfrwt>
<totfact> 0.32684341E+02</totfact>
</mgrwt>
</event>
<event>
 8    1  0.3488953E-007  0.1338713E+03  0.7546771E-02  0.1221824E+00
          5   -1    0    0  501    0  0.00000000000E+00  0.00000000000E+00  0.14065740487E+03  0.14073590709E+03  0.47000000000E+01 0.  1.
         -5   -1    0    0    0  501 -0.00000000000E+00 -0.00000000000E+00 -0.12746562832E+03  0.12755224969E+03  0.47000000000E+01 0.  1.
         25    2    1    2    0    0  0.27503316957E+02 -0.39234106766E+02  0.10813182124E+01  0.13387017069E+03  0.12499722307E+03 0.  0.
         25    2    1    2    0    0 -0.27503316957E+02  0.39234106766E+02  0.12110458340E+02  0.13441798609E+03  0.12500313678E+03 0.  0.
          5    1    4    4  502    0  0.36706419122E+02 -0.61219675269E+01 -0.27262887286E+02  0.46370192089E+02  0.47000000000E+01 0. -1.
         -5    1    4    4    0  502 -0.64209736080E+02  0.45356074293E+02  0.39373345625E+02  0.88047794001E+02  0.47000000000E+01 0. -1.
          5    1    3    3  503    0  0.10817120916E+02 -0.18699046138E+02 -0.61720262757E+02  0.65560241505E+02  0.47000000000E+01 0. -1.
         -5    1    3    3    0  503  0.16686196041E+02 -0.20535060628E+02  0.62801580969E+02  0.68309929187E+02  0.47000000000E+01 0. -1.
<mgrwt>
<rscale>  0 0.13386994E+03</rscale>
<asrwt>0</asrwt>
<pdfrwt beam="1">  1        5 0.21652303E-01 0.13387133E+03</pdfrwt>
<pdfrwt beam="2">  1       -5 0.19622799E-01 0.13387133E+03</pdfrwt>
<totfact> 0.34522157E+02</totfact>
</mgrwt>
</event>
<event>
 8    1  0.3488953E-007  0.1285070E+03  0.7546771E-02  0.1229691E+00
         -5   -1    0    0    0  501 -0.00000000000E+00  0.00000000000E+00  0.68651151485E+02  0.68811849272E+02  0.47000000000E+01 0. -1.
          5   -1    0    0  501    0  0.00000000000E+00 -0.00000000000E+00 -0.30137252364E+03  0.30140917041E+03  0.47000000000E+01 0. -1.
         25    2    1    2    0    0  0.54063467511E+01 -0.29329063396E+02 -0.32898283600E+02  0.13264300341E+03  0.12498978657E+03 0.  0.
         25    2    1    2    0    0 -0.54063467511E+01  0.29329063396E+02 -0.19982308856E+03  0.23757801627E+03  0.12499849818E+03 0.  0.
          5    1    4    4  502    0  0.33436880590E+02  0.65703527689E+02 -0.99589722551E+02  0.12399669904E+03  0.47000000000E+01 0. -1.
         -5    1    4    4    0  502 -0.38843227342E+02 -0.36374464293E+02 -0.10023336600E+03  0.11358131723E+03  0.47000000000E+01 0. -1.
          5    1    3    3  503    0 -0.29953274659E+02  0.39999765335E+02 -0.82024110958E+01  0.50858130495E+02  0.47000000000E+01 0.  1.
         -5    1    3    3    0  503  0.35359621410E+02 -0.69328828731E+02 -0.24695872505E+02  0.81784872918E+02  0.47000000000E+01 0.  1.
<mgrwt>
<rscale>  0 0.12850487E+03</rscale>
<asrwt>0</asrwt>
<pdfrwt beam="2">  1        5 0.46380183E-01 0.12850699E+03</pdfrwt>
<pdfrwt beam="1">  1       -5 0.10576896E-01 0.12850699E+03</pdfrwt>
<totfact> 0.22961226E+02</totfact>
</mgrwt>
</event>
<event>
 8    1  0.3488953E-007  0.1282083E+03  0.7546771E-02  0.1230139E+00
         -5   -1    0    0    0  501 -0.00000000000E+00  0.00000000000E+00  0.37703656860E+02  0.37995470002E+02  0.47000000000E+01 0.  1.
          5   -1    0    0  501    0  0.00000000000E+00 -0.00000000000E+00 -0.43401809513E+03  0.43404354263E+03  0.47000000000E+01 0.  1.
         25    2    1    2    0    0 -0.28367823088E+02  0.26748905557E+01 -0.20053157097E+03  0.23801320110E+03  0.12500193804E+03 0.  0.
         25    2    1    2    0    0  0.28367823088E+02 -0.26748905557E+01 -0.19578286729E+03  0.23402581153E+03  0.12500104364E+03 0.  0.
          5    1    3    3  502    0  0.43683760215E+02  0.74546478092E+01 -0.32785669696E+02  0.55324793881E+02  0.47000000000E+01 0.  1.
         -5    1    3    3    0  502 -0.72051583303E+02 -0.47797572535E+01 -0.16774590128E+03  0.18268840722E+03  0.47000000000E+01 0.  1.
          5    1    4    4  503    0  0.32256356709E+02  0.14519493571E+02  0.16780331393E+01  0.35723858092E+02  0.47000000000E+01 0.  1.
         -5    1    4    4    0  503 -0.38885336217E+01 -0.17194384127E+02 -0.19746090043E+03  0.19830195344E+03  0.47000000000E+01 0.  1.
<mgrwt>
<rscale>  0 0.12820810E+03</rscale>
<asrwt>0</asrwt>
<pdfrwt beam="2">  1        5 0.66796416E-01 0.12820832E+03</pdfrwt>
<pdfrwt beam="1">  1       -5 0.58249676E-02 0.12820832E+03</pdfrwt>
<totfact> 0.28984156E+02</totfact>
</mgrwt>
</event>
<event>
 8    1  0.3488953E-007  0.1398286E+03  0.7546771E-02  0.1213566E+00
         -5   -1    0    0    0  501 -0.00000000000E+00  0.00000000000E+00  0.39890857646E+02  0.40166783836E+02  0.47000000000E+01 0. -1.
          5   -1    0    0  501    0  0.00000000000E+00 -0.00000000000E+00 -0.54433130450E+03  0.54435159508E+03  0.47000000000E+01 0. -1.
         25    2    1    2    0    0  0.41631007884E+02 -0.46834618452E+02 -0.15832488203E+03  0.21123165126E+03  0.12500167967E+03 0.  0.
         25    2    1    2    0    0 -0.41631007884E+02  0.46834618452E+02 -0.34611556482E+03  0.37328672765E+03  0.12498149672E+03 0.  0.
          5    1    3    3  502    0 -0.36318744542E+02 -0.43362380964E+02 -0.94860217166E+02  0.11054364789E+03  0.47000000000E+01 0.  1.
         -5    1    3    3    0  502  0.77949752426E+02 -0.34722374883E+01 -0.63464664867E+02  0.10068800337E+03  0.47000000000E+01 0.  1.
          5    1    4    4  503    0 -0.20459346622E+01 -0.22423653181E+02 -0.23660244404E+03  0.23771792653E+03  0.47000000000E+01 0.  1.
         -5    1    4    4    0  503 -0.39585073221E+02  0.69258271634E+02 -0.10951312078E+03  0.13556880111E+03  0.47000000000E+01 0.  1.
<mgrwt>
<rscale>  0 0.13982411E+03</rscale>
<asrwt>0</asrwt>
<pdfrwt beam="2">  1        5 0.83766058E-01 0.13982862E+03</pdfrwt>
<pdfrwt beam="1">  1       -5 0.61598413E-02 0.13982862E+03</pdfrwt>
<totfact> 0.16217486E+02</totfact>
</mgrwt>
</event>
<event>
 8    1  0.3488953E-007  0.1347492E+03  0.7546771E-02  0.1220576E+00
         -5   -1    0    0    0  501 -0.00000000000E+00  0.00000000000E+00  0.37208011084E+03  0.37210979412E+03  0.47000000000E+01 0.  1.
          5   -1    0    0  501    0  0.00000000000E+00 -0.00000000000E+00 -0.51562092318E+02  0.51775856963E+02  0.47000000000E+01 0.  1.
         25    2    1    2    0    0  0.49833671471E+02  0.68684079832E+01  0.21048481818E+03  0.24992240333E+03  0.12500711644E+03 0.  0.
         25    2    1    2    0    0 -0.49833671471E+02 -0.68684079832E+01  0.11003320034E+03  0.17396324776E+03  0.12500134620E+03 0.  0.
          5    1    4    4  502    0  0.11870549166E+02  0.47244663651E+02  0.22445342606E+02  0.53840984256E+02  0.47000000000E+01 0.  1.
         -5    1    4    4    0  502 -0.61704220637E+02 -0.54113071634E+02  0.87587857733E+02  0.12012226350E+03  0.47000000000E+01 0.  1.
          5    1    3    3  503    0 -0.29260800336E+02 -0.16149614831E+02  0.13128025438E+03  0.13554925189E+03  0.47000000000E+01 0. -1.
         -5    1    3    3    0  503  0.79094471807E+02  0.23018022814E+02  0.79204563798E+02  0.11437315144E+03  0.47000000000E+01 0. -1.
<mgrwt>
<rscale>  0 0.13474787E+03</rscale>
<asrwt>0</asrwt>
<pdfrwt beam="2">  1        5 0.79513562E-02 0.13474921E+03</pdfrwt>
<pdfrwt beam="1">  1       -5 0.57261822E-01 0.13474921E+03</pdfrwt>
<totfact> 0.24432562E+02</totfact>
</mgrwt>
</event>
<event>
 8    1  0.3488953E-007  0.1275103E+03  0.7546771E-02  0.1231199E+00
          5   -1    0    0  501    0  0.00000000000E+00  0.00000000000E+00  0.15520850760E+03  0.15527965363E+03  0.47000000000E+01 0. -1.
         -5   -1    0    0    0  501 -0.00000000000E+00 -0.00000000000E+00 -0.17268746850E+03  0.17275141614E+03  0.47000000000E+01 0. -1.
         25    2    1    2    0    0 -0.22980934855E+02  0.10228546681E+02 -0.11167866809E+03  0.16949887983E+03  0.12499999529E+03 0.  0.
         25    2    1    2    0    0  0.22980934855E+02 -0.10228546681E+02  0.94199707191E+02  0.15853218994E+03  0.12500449543E+03 0.  0.
          5    1    4    4  502    0  0.54007560497E+02 -0.20607302877E+02  0.10810058740E+03  0.12267560687E+03  0.47000000000E+01 0. -1.
         -5    1    4    4    0  502 -0.31026625642E+02  0.10378756196E+02 -0.13900880213E+02  0.35856583072E+02  0.47000000000E+01 0. -1.
          5    1    3    3  503    0 -0.63543186513E+01  0.48571355087E+02  0.10075329436E+01  0.49220514251E+02  0.47000000000E+01 0. -1.
         -5    1    3    3    0  503 -0.16626616203E+02 -0.38342808406E+02 -0.11268620103E+03  0.12027836558E+03  0.47000000000E+01 0. -1.
<mgrwt>
<rscale>  0 0.12750917E+03</rscale>
<asrwt>0</asrwt>
<pdfrwt beam="1">  1        5 0.23888624E-01 0.12751028E+03</pdfrwt>
<pdfrwt beam="2">  1       -5 0.26577695E-01 0.12751028E+03</pdfrwt>
<totfact> 0.15858955E+02</totfact>
</mgrwt>
</event>
<event>
 8    1  0.3488953E-007  0.1498421E+03  0.7546771E-02  0.1200677E+00
          5   -1    0    0  501    0  0.00000000000E+00  0.00000000000E+00  0.64199320544E+03  0.64201040944E+03  0.47000000000E+01 0.  1.
         -5   -1    0    0    0  501 -0.00000000000E+00 -0.00000000000E+00 -0.34905985983E+02  0.35220986037E+02  0.47000000000E+01 0.  1.
         25    2    1    2    0    0  0.80211602580E+02  0.19752107059E+02  0.28412464373E+03  0.32120122484E+03  0.12497746493E+03 0.  0.
         25    2    1    2    0    0 -0.80211602580E+02 -0.19752107059E+02  0.32296257572E+03  0.35603017064E+03  0.12501443983E+03 0.  0.
          5    1    4    4  502    0 -0.58215378349E+02 -0.45108453004E+02  0.73077218123E+02  0.10385650012E+03  0.47000000000E+01 0.  1.
         -5    1    4    4    0  502 -0.21996224231E+02  0.25356345946E+02  0.24988535760E+03  0.25217367052E+03  0.47000000000E+01 0.  1.
          5    1    3    3  503    0  0.93676053810E+02  0.17410777519E+02  0.29023483510E+03  0.30551053621E+03  0.47000000000E+01 0. -1.
         -5    1    3    3    0  503 -0.13464451230E+02  0.23413295402E+01 -0.61101913690E+01  0.15690688624E+02  0.47000000000E+01 0. -1.
<mgrwt>
<rscale>  0 0.14983439E+03</rscale>
<asrwt>0</asrwt>
<pdfrwt beam="1">  1        5 0.98793736E-01 0.14984211E+03</pdfrwt>
<pdfrwt beam="2">  1       -5 0.53957061E-02 0.14984211E+03</pdfrwt>
<totfact> 0.13980890E+02</totfact>
</mgrwt>
</event>
<event>
 8    1  0.3488953E-007  0.1443899E+03  0.7546771E-02  0.1207545E+00
         -5   -1    0    0    0  501 -0.00000000000E+00  0.00000000000E+00  0.46607522717E+02  0.46843902205E+02  0.47000000000E+01 0. -1.
          5   -1    0    0  501    0  0.00000000000E+00 -0.00000000000E+00 -0.46512086169E+03  0.46514460760E+03  0.47000000000E+01 0. -1.
         25    2    1    2    0    0  0.70319438445E+02  0.16628532856E+02 -0.15722469248E+03  0.21345844271E+03  0.12499428512E+03 0.  0.
         25    2    1    2    0    0 -0.70319438445E+02 -0.16628532856E+02 -0.26128864650E+03  0.29853006710E+03  0.12500845028E+03 0.  0.
          5    1    3    3  502    0 -0.18282021175E+02 -0.28614495614E+02 -0.99968258025E+01  0.35707816842E+02  0.47000000000E+01 0.  1.
         -5    1    3    3    0  502  0.88601459620E+02  0.45243028470E+02 -0.14722786667E+03  0.17775062587E+03  0.47000000000E+01 0.  1.
          5    1    4    4  503    0 -0.18311404077E+02  0.32068840414E+02 -0.11840968330E+02  0.39064262130E+02  0.47000000000E+01 0.  1.
         -5    1    4    4    0  503 -0.52008034368E+02 -0.48697373270E+02 -0.24944767817E+03  0.25946580497E+03  0.47000000000E+01 0.  1.
<mgrwt>
<rscale>  0 0.14438684E+03</rscale>
<asrwt>0</asrwt>
<pdfrwt beam="2">  1        5 0.71577062E-01 0.14438990E+03</pdfrwt>
<pdfrwt beam="1">  1       -5 0.71903981E-02 0.14438990E+03</pdfrwt>
<totfact> 0.18107250E+02</totfact>
</mgrwt>
</event>
<event>
 8    1  0.3488953E-007  0.1466338E+03  0.7546771E-02  0.1204675E+00
          5   -1    0    0  501    0  0.00000000000E+00  0.00000000000E+00  0.69248096575E+03  0.69249691546E+03  0.47000000000E+01 0. -1.
         -5   -1    0    0    0  501 -0.00000000000E+00 -0.00000000000E+00 -0.30997902815E+02  0.31352192569E+02  0.47000000000E+01 0. -1.
         25    2    1    2    0    0 -0.30975597987E+02  0.70116589563E+02  0.30619269706E+03  0.33949292250E+03  0.12500261154E+03 0.  0.
         25    2    1    2    0    0  0.30975597987E+02 -0.70116589563E+02  0.35529036587E+03  0.38435618553E+03  0.12499043752E+03 0.  0.
          5    1    3    3  502    0  0.32194883323E+02  0.10138566270E+01  0.19689847645E+02  0.38043639649E+02  0.47000000000E+01 0. -1.
         -5    1    3    3    0  502 -0.63170481309E+02  0.69102732936E+02  0.28650284942E+03  0.30144928285E+03  0.47000000000E+01 0. -1.
          5    1    4    4  503    0 -0.44776926984E+02 -0.37052201125E+01  0.12648966713E+03  0.13431465943E+03  0.47000000000E+01 0.  1.
         -5    1    4    4    0  503  0.75752524970E+02 -0.66411369451E+02  0.22880069874E+03  0.25004152610E+03  0.47000000000E+01 0.  1.
<mgrwt>
<rscale>  0 0.14663122E+03</rscale>
<asrwt>0</asrwt>
<pdfrwt beam="1">  1        5 0.10656401E+00 0.14663382E+03</pdfrwt>
<pdfrwt beam="2">  1       -5 0.47973880E-02 0.14663382E+03</pdfrwt>
<totfact> 0.14019952E+02</totfact>
</mgrwt>
</event>
<event>
 8    1  0.3488953E-007  0.1394753E+03  0.7546771E-02  0.1214037E+00
          5   -1    0    0  501    0  0.00000000000E+00  0.00000000000E+00  0.26790314722E+02  0.27199466224E+02  0.47000000000E+01 0. -1.
         -5   -1    0    0    0  501 -0.00000000000E+00 -0.00000000000E+00 -0.79059439880E+03  0.79060836917E+03  0.47000000000E+01 0. -1.
         25    2    1    2    0    0  0.56297414015E+02 -0.25670385260E+02 -0.50387341878E+03  0.52282087633E+03  0.12499951627E+03 0.  0.
         25    2    1    2    0    0 -0.56297414015E+02  0.25670385260E+02 -0.25993066530E+03  0.29498695907E+03  0.12499995103E+03 0.  0.
          5    1    3    3  502    0  0.72071701298E+02 -0.53293288318E+01 -0.13654640273E+03  0.15456306794E+03  0.47000000000E+01 0.  1.
         -5    1    3    3    0  502 -0.15774287284E+02 -0.20341056428E+02 -0.36732701605E+03  0.36825780839E+03  0.47000000000E+01 0.  1.
          5    1    4    4  503    0 -0.81754842586E+02 -0.14049733835E+02 -0.11073903620E+03  0.13844303322E+03  0.47000000000E+01 0.  1.
         -5    1    4    4    0  503  0.25457428571E+02  0.39720119094E+02 -0.14919162909E+03  0.15654392585E+03  0.47000000000E+01 0.  1.
<mgrwt>
<rscale>  0 0.13947519E+03</rscale>
<asrwt>0</asrwt>
<pdfrwt beam="1">  1        5 0.41541353E-02 0.13947529E+03</pdfrwt>
<pdfrwt beam="2">  1       -5 0.12166244E+00 0.13947529E+03</pdfrwt>
<totfact> 0.12548598E+02</totfact>
</mgrwt>
</event>
<event>
 8    1  0.3488953E-007  0.1750042E+03  0.7546771E-02  0.1172732E+00
         -5   -1    0    0    0  501 -0.00000000000E+00  0.00000000000E+00  0.34976335088E+03  0.34979492795E+03  0.47000000000E+01 0.  1.
          5   -1    0    0  501    0  0.00000000000E+00 -0.00000000000E+00 -0.88970431256E+02  0.89094487135E+02  0.47000000000E+01 0.  1.
         25    2    1    2    0    0 -0.11013387637E+03  0.53594118138E+02  0.15900131797E+03  0.23644852423E+03  0.12499874108E+03 0.  0.
         25    2    1    2    0    0  0.11013387637E+03 -0.53594118138E+02  0.10179160165E+03  0.20244089085E+03  0.12497593327E+03 0.  0.
          5    1    4    4  502    0 -0.18664570069E+02 -0.12921718062E+02 -0.11692485977E+02  0.25964229275E+02  0.47000000000E+01 0. -1.
         -5    1    4    4    0  502  0.12879844644E+03 -0.40672400076E+02  0.11348408763E+03  0.17647666157E+03  0.47000000000E+01 0. -1.
          5    1    3    3  503    0 -0.53143412791E+02  0.48423661597E+02  0.16368504516E+03  0.17884059196E+03  0.47000000000E+01 0.  1.
         -5    1    3    3    0  503 -0.56990463583E+02  0.51704565408E+01 -0.46837271884E+01  0.57607932272E+02  0.47000000000E+01 0.  1.
<mgrwt>
<rscale>  0 0.17500017E+03</rscale>
<asrwt>0</asrwt>
<pdfrwt beam="2">  1        5 0.13699731E-01 0.17500424E+03</pdfrwt>
<pdfrwt beam="1">  1       -5 0.53821717E-01 0.17500424E+03</pdfrwt>
<totfact> 0.11682273E+02</totfact>
</mgrwt>
</event>
<event>
 8    1  0.3488953E-007  0.1848811E+03  0.7546771E-02  0.1163162E+00
         -5   -1    0    0    0  501 -0.00000000000E+00  0.00000000000E+00  0.51672429264E+03  0.51674566724E+03  0.47000000000E+01 0.  1.
          5   -1    0    0  501    0  0.00000000000E+00 -0.00000000000E+00 -0.93195764445E+02  0.93314203155E+02  0.47000000000E+01 0.  1.
         25    2    1    2    0    0 -0.82356081848E+02 -0.10850134204E+03  0.37626793114E+03  0.41923380351E+03  0.12499744218E+03 0.  0.
         25    2    1    2    0    0  0.82356081848E+02  0.10850134204E+03  0.47260597053E+02  0.19082606689E+03  0.12500383325E+03 0.  0.
          5    1    3    3  502    0 -0.61338569312E+02 -0.13264163124E+03  0.25725977472E+03  0.29590691799E+03  0.47000000000E+01 0. -1.
         -5    1    3    3    0  502 -0.21017512537E+02  0.24140289203E+02  0.11900815643E+03  0.12332688552E+03  0.47000000000E+01 0. -1.
          5    1    4    4  503    0  0.59251575075E+02 -0.12688444521E+02  0.81713749626E+01  0.61323789364E+02  0.47000000000E+01 0.  1.
         -5    1    4    4    0  503  0.23104506773E+02  0.12118978656E+03  0.39089222090E+02  0.12950227752E+03  0.47000000000E+01 0.  1.
<mgrwt>
<rscale>  0 0.18488003E+03</rscale>
<asrwt>0</asrwt>
<pdfrwt beam="2">  1        5 0.14348565E-01 0.18488111E+03</pdfrwt>
<pdfrwt beam="1">  1       -5 0.79506798E-01 0.18488111E+03</pdfrwt>
<totfact> 0.45593260E+01</totfact>
</mgrwt>
</event>
<event>
 8    1  0.3488953E-007  0.1318108E+03  0.7546771E-02  0.1224798E+00
         -5   -1    0    0    0  501 -0.00000000000E+00  0.00000000000E+00  0.22387331936E+03  0.22392264986E+03  0.47000000000E+01 0.  1.
          5   -1    0    0  501    0  0.00000000000E+00 -0.00000000000E+00 -0.99149105619E+02  0.99260440987E+02  0.47000000000E+01 0.  1.
         25    2    1    2    0    0 -0.38548048711E+02 -0.16145316716E+02  0.13785243046E+03  0.19072015395E+03  0.12499704488E+03 0.  0.
         25    2    1    2    0    0  0.38548048711E+02  0.16145316716E+02 -0.13128216716E+02  0.13246293690E+03  0.12500982468E+03 0.  0.
          5    1    3    3  502    0  0.18940152049E+02 -0.45053551343E+01  0.12979169022E+03  0.13132783571E+03  0.47000000000E+01 0.  1.
         -5    1    3    3    0  502 -0.57488200759E+02 -0.11639961582E+02  0.80607402421E+01  0.59392318236E+02  0.47000000000E+01 0.  1.
          5    1    4    4  503    0  0.64575961007E+02 -0.35442744254E+02 -0.86316669299E+01  0.74315802721E+02  0.47000000000E+01 0.  1.
         -5    1    4    4    0  503 -0.26027912296E+02  0.51588060970E+02 -0.44965497862E+01  0.58147134178E+02  0.47000000000E+01 0.  1.
<mgrwt>
<rscale>  0 0.13180774E+03</rscale>
<asrwt>0</asrwt>
<pdfrwt beam="2">  1        5 0.15266068E-01 0.13181077E+03</pdfrwt>
<pdfrwt beam="1">  1       -5 0.34454408E-01 0.13181077E+03</pdfrwt>
<totfact> 0.22128914E+02</totfact>
</mgrwt>
</event>
<event>
 8    1  0.3488953E-007  0.1312604E+03  0.7546771E-02  0.1225601E+00
          5   -1    0    0  501    0  0.00000000000E+00  0.00000000000E+00  0.24220671809E+02  0.24672473384E+02  0.47000000000E+01 0. -1.
         -5   -1    0    0    0  501 -0.00000000000E+00 -0.00000000000E+00 -0.73701375006E+03  0.73702873606E+03  0.47000000000E+01 0. -1.
         25    2    1    2    0    0 -0.39255170154E+02 -0.79150842074E+01 -0.43667971051E+03  0.45598077274E+03  0.12500271438E+03 0.  0.
         25    2    1    2    0    0  0.39255170154E+02  0.79150842074E+01 -0.27611336775E+03  0.30572043670E+03  0.12499110619E+03 0.  0.
          5    1    3    3  502    0 -0.93655115629E+01  0.55222659978E+02 -0.13403955962E+03  0.14534768153E+03  0.47000000000E+01 0.  1.
         -5    1    3    3    0  502 -0.29889658591E+02 -0.63137744185E+02 -0.30264015088E+03  0.31063309121E+03  0.47000000000E+01 0.  1.
          5    1    4    4  503    0 -0.35367194904E+02 -0.20528947536E+02 -0.44206863095E+02  0.60403749114E+02  0.47000000000E+01 0. -1.
         -5    1    4    4    0  503  0.74622365058E+02  0.28444031743E+02 -0.23190650465E+03  0.24531668759E+03  0.47000000000E+01 0. -1.
<mgrwt>
<rscale>  0 0.13125765E+03</rscale>
<asrwt>0</asrwt>
<pdfrwt beam="1">  1        5 0.37621645E-02 0.13126041E+03</pdfrwt>
<pdfrwt beam="2">  1       -5 0.11342262E+00 0.13126041E+03</pdfrwt>
<totfact> 0.17277615E+02</totfact>
</mgrwt>
</event>
<event>
 8    1  0.3488953E-007  0.1359263E+03  0.7546771E-02  0.1218924E+00
          5   -1    0    0  501    0  0.00000000000E+00  0.00000000000E+00  0.48298951895E+02  0.48527092991E+02  0.47000000000E+01 0. -1.
         -5   -1    0    0    0  501 -0.00000000000E+00 -0.00000000000E+00 -0.38533079953E+03  0.38535946215E+03  0.47000000000E+01 0. -1.
         25    2    1    2    0    0  0.59358183460E+00  0.53355768736E+02 -0.14646005275E+03  0.19981617766E+03  0.12501506872E+03 0.  0.
         25    2    1    2    0    0 -0.59358183460E+00 -0.53355768736E+02 -0.19057179489E+03  0.23407037748E+03  0.12499656879E+03 0.  0.
          5    1    3    3  502    0  0.59991455302E+02  0.39779019053E+02 -0.59373122341E+02  0.93426991403E+02  0.47000000000E+01 0.  1.
         -5    1    3    3    0  502 -0.59397873468E+02  0.13576749683E+02 -0.87086930406E+02  0.10638918625E+03  0.47000000000E+01 0.  1.
          5    1    4    4  503    0  0.48248963082E+02  0.13602888509E+02 -0.50925626384E+02  0.71613619074E+02  0.47000000000E+01 0. -1.
         -5    1    4    4    0  503 -0.48842544917E+02 -0.66958657245E+02 -0.13964616851E+03  0.16245675841E+03  0.47000000000E+01 0. -1.
<mgrwt>
<rscale>  0 0.13592204E+03</rscale>
<asrwt>0</asrwt>
<pdfrwt beam="1">  1        5 0.74503624E-02 0.13592630E+03</pdfrwt>
<pdfrwt beam="2">  1       -5 0.59301414E-01 0.13592630E+03</pdfrwt>
<totfact> 0.25379303E+02</totfact>
</mgrwt>
</event>
<event>
 8    1  0.3488953E-007  0.1766480E+03  0.7546771E-02  0.1171091E+00
          5   -1    0    0  501    0  0.00000000000E+00  0.00000000000E+00  0.34815040935E+03  0.34818213270E+03  0.47000000000E+01 0.  1.
         -5   -1    0    0    0  501 -0.00000000000E+00 -0.00000000000E+00 -0.95139866023E+02  0.95255887518E+02  0.47000000000E+01 0.  1.
         25    2    1    2    0    0 -0.99466679253E+02  0.75402183756E+02  0.72685991066E+02  0.19101773889E+03  0.12500165469E+03 0.  0.
         25    2    1    2    0    0  0.99466679253E+02 -0.75402183756E+02  0.18032455226E+03  0.25242028133E+03  0.12497977709E+03 0.  0.
          5    1    3    3  502    0 -0.46281388205E+02  0.10225868632E+03  0.26345633186E+02  0.11539058978E+03  0.47000000000E+01 0. -1.
         -5    1    3    3    0  502 -0.53185291048E+02 -0.26856502563E+02  0.46340357880E+02  0.75627149108E+02  0.47000000000E+01 0. -1.
          5    1    4    4  503    0  0.59542567971E+02 -0.15763800398E+02  0.16858558000E+03  0.17954665853E+03  0.47000000000E+01 0. -1.
         -5    1    4    4    0  503  0.39924111282E+02 -0.59638383357E+02  0.11738972262E+02  0.72873622806E+02  0.47000000000E+01 0. -1.
<mgrwt>
<rscale>  0 0.17664415E+03</rscale>
<asrwt>0</asrwt>
<pdfrwt beam="1">  1        5 0.53572967E-01 0.17664802E+03</pdfrwt>
<pdfrwt beam="2">  1       -5 0.14648267E-01 0.17664802E+03</pdfrwt>
<totfact> 0.10482920E+02</totfact>
</mgrwt>
</event>
<event>
 8    1  0.3488953E-007  0.1368117E+03  0.7546771E-02  0.1217688E+00
         -5   -1    0    0    0  501 -0.00000000000E+00  0.00000000000E+00  0.20551474126E+03  0.20556847734E+03  0.47000000000E+01 0.  1.
          5   -1    0    0  501    0  0.00000000000E+00 -0.00000000000E+00 -0.91201170334E+02  0.91322195935E+02  0.47000000000E+01 0.  1.
         25    2    1    2    0    0  0.51305350371E+02 -0.21450160931E+02  0.65039694106E+02  0.15147619884E+03  0.12499011411E+03 0.  0.
         25    2    1    2    0    0 -0.51305350371E+02  0.21450160931E+02  0.49273876820E+02  0.14541447444E+03  0.12500042423E+03 0.  0.
          5    1    3    3  502    0  0.64920840692E+02  0.32405078328E+02  0.10462354631E+02  0.73459890566E+02  0.47000000000E+01 0. -1.
         -5    1    3    3    0  502 -0.13615490321E+02 -0.53855239258E+02  0.54577339475E+02  0.78016308272E+02  0.47000000000E+01 0. -1.
          5    1    4    4  503    0  0.10930981842E+02  0.56685514590E+02  0.45477606956E+02  0.73641270106E+02  0.47000000000E+01 0. -1.
         -5    1    4    4    0  503 -0.62236332213E+02 -0.35235353660E+02  0.37962698640E+01  0.71773204329E+02  0.47000000000E+01 0. -1.
<mgrwt>
<rscale>  0 0.13680939E+03</rscale>
<asrwt>0</asrwt>
<pdfrwt beam="2">  1        5 0.14044392E-01 0.13681175E+03</pdfrwt>
<pdfrwt beam="1">  1       -5 0.31631096E-01 0.13681175E+03</pdfrwt>
<totfact> 0.30882444E+02</totfact>
</mgrwt>
</event>
<event>
 8    1  0.3488953E-007  0.1878119E+03  0.7546771E-02  0.1160450E+00
         -5   -1    0    0    0  501 -0.00000000000E+00  0.00000000000E+00  0.28650276885E+02  0.29033228645E+02  0.47000000000E+01 0.  1.
          5   -1    0    0  501    0  0.00000000000E+00 -0.00000000000E+00 -0.12286820525E+04  0.12286910418E+04  0.47000000000E+01 0.  1.
         25    2    1    2    0    0 -0.13067511757E+03  0.50711258497E+02 -0.55573242031E+03  0.58660954186E+03  0.12499845409E+03 0.  0.
         25    2    1    2    0    0  0.13067511757E+03 -0.50711258497E+02 -0.64429935535E+03  0.67111472861E+03  0.12500280620E+03 0.  0.
          5    1    4    4  502    0  0.16620597291E+02 -0.47392159556E+01 -0.30556454247E+01  0.18169518187E+02  0.47000000000E+01 0. -1.
         -5    1    4    4    0  502  0.11405452028E+03 -0.45972042542E+02 -0.64124370993E+03  0.65294521042E+03  0.47000000000E+01 0. -1.
          5    1    3    3  503    0  0.24334955465E+02  0.58548964771E+01 -0.97489748978E+02  0.10076115832E+03  0.47000000000E+01 0.  1.
         -5    1    3    3    0  503 -0.15501007303E+03  0.44856362020E+02 -0.45824267133E+03  0.48584838354E+03  0.47000000000E+01 0.  1.
<mgrwt>
<rscale>  0 0.18781120E+03</rscale>
<asrwt>0</asrwt>
<pdfrwt beam="2">  1        5 0.18905812E+00 0.18781193E+03</pdfrwt>
<pdfrwt beam="1">  1       -5 0.44378852E-02 0.18781193E+03</pdfrwt>
<totfact> 0.36085738E+01</totfact>
</mgrwt>
</event>
<event>
 8    1  0.3488953E-007  0.1371669E+03  0.7546771E-02  0.1217196E+00
          5   -1    0    0  501    0  0.00000000000E+00  0.00000000000E+00  0.17188510246E+03  0.17194934849E+03  0.47000000000E+01 0.  1.
         -5   -1    0    0    0  501 -0.00000000000E+00 -0.00000000000E+00 -0.12975488308E+03  0.12983997722E+03  0.47000000000E+01 0.  1.
         25    2    1    2    0    0  0.73919694852E+01  0.55969020815E+02 -0.38784807583E+02  0.14253480014E+03  0.12499894179E+03 0.  0.
         25    2    1    2    0    0 -0.73919694852E+01 -0.55969020815E+02  0.80915026955E+02  0.15925452556E+03  0.12501035885E+03 0.  0.
          5    1    3    3  502    0 -0.46483426571E+02  0.54771357885E+02 -0.49531135383E+02  0.87384403429E+02  0.47000000000E+01 0.  1.
         -5    1    3    3    0  502  0.53875396057E+02  0.11976629308E+01  0.10746327800E+02  0.55150396716E+02  0.47000000000E+01 0.  1.
          5    1    4    4  503    0  0.13546040730E+02  0.20931905789E+02  0.75024664452E+02  0.79198675339E+02  0.47000000000E+01 0. -1.
         -5    1    4    4    0  503 -0.20938010215E+02 -0.76900926605E+02  0.58903625037E+01  0.80055850223E+02  0.47000000000E+01 0. -1.
<mgrwt>
<rscale>  0 0.13716431E+03</rscale>
<asrwt>0</asrwt>
<pdfrwt beam="1">  1        5 0.26455349E-01 0.13716691E+03</pdfrwt>
<pdfrwt beam="2">  1       -5 0.19973778E-01 0.13716691E+03</pdfrwt>
<totfact> 0.22991684E+02</totfact>
</mgrwt>
</event>
<event>
 8    1  0.3488953E-007  0.1360190E+03  0.7546771E-02  0.1218790E+00
         -5   -1    0    0    0  501 -0.00000000000E+00  0.00000000000E+00  0.17242534349E+02  0.17871625297E+02  0.47000000000E+01 0.  1.
          5   -1    0    0  501    0  0.00000000000E+00 -0.00000000000E+00 -0.10871050041E+04  0.10871151641E+04  0.47000000000E+01 0.  1.
         25    2    1    2    0    0  0.33928908246E+02 -0.41526608367E+02 -0.43724451513E+03  0.45791257416E+03  0.12500211816E+03 0.  0.
         25    2    1    2    0    0 -0.33928908246E+02  0.41526608367E+02 -0.63261795466E+03  0.64707421524E+03  0.12499573375E+03 0.  0.
          5    1    3    3  502    0 -0.31084536691E+02 -0.89384696009E+01 -0.30643399588E+03  0.30817207611E+03  0.47000000000E+01 0.  1.
         -5    1    3    3    0  502  0.65013444937E+02 -0.32588138766E+02 -0.13081051925E+03  0.14974049805E+03  0.47000000000E+01 0.  1.
          5    1    4    4  503    0 -0.79607680561E+02  0.38380658876E+02 -0.36873149031E+03  0.37920371798E+03  0.47000000000E+01 0.  1.
         -5    1    4    4    0  503  0.45678772315E+02  0.31459494907E+01 -0.26388646435E+03  0.26787049726E+03  0.47000000000E+01 0.  1.
<mgrwt>
<rscale>  0 0.13601750E+03</rscale>
<asrwt>0</asrwt>
<pdfrwt beam="2">  1        5 0.16729604E+00 0.13601897E+03</pdfrwt>
<pdfrwt beam="1">  1       -5 0.27018716E-02 0.13601897E+03</pdfrwt>
<totfact> 0.10632585E+02</totfact>
</mgrwt>
</event>
<event>
 8    1  0.3488953E-007  0.1804410E+03  0.7546771E-02  0.1167381E+00
         -5   -1    0    0    0  501 -0.00000000000E+00  0.00000000000E+00  0.70537739114E+03  0.70539304926E+03  0.47000000000E+01 0.  1.
          5   -1    0    0  501    0  0.00000000000E+00 -0.00000000000E+00 -0.46657772810E+02  0.46893899002E+02  0.47000000000E+01 0.  1.
         25    2    1    2    0    0 -0.47106021875E+02 -0.12129996515E+03  0.37325876029E+03  0.41457871115E+03  0.12498298588E+03 0.  0.
         25    2    1    2    0    0  0.47106021875E+02  0.12129996515E+03  0.28546085804E+03  0.33770823711E+03  0.12500517227E+03 0.  0.
          5    1    3    3  502    0 -0.69651078731E+02 -0.92414462671E+02  0.15650182000E+03  0.19469621296E+03  0.47000000000E+01 0.  1.
         -5    1    3    3    0  502  0.22545056856E+02 -0.28885502480E+02  0.21675694029E+03  0.21988249818E+03  0.47000000000E+01 0.  1.
          5    1    4    4  503    0  0.66604572320E+02  0.50507723461E+02  0.23232271795E+03  0.24694763506E+03  0.47000000000E+01 0. -1.
         -5    1    4    4    0  503 -0.19498550445E+02  0.70792241690E+02  0.53138140091E+02  0.90760602054E+02  0.47000000000E+01 0. -1.
<mgrwt>
<rscale>  0 0.18043715E+03</rscale>
<asrwt>0</asrwt>
<pdfrwt beam="2">  1        5 0.71974869E-02 0.18044099E+03</pdfrwt>
<pdfrwt beam="1">  1       -5 0.10853897E+00 0.18044099E+03</pdfrwt>
<totfact> 0.71955144E+01</totfact>
</mgrwt>
</event>
<event>
 8    1  0.3488953E-007  0.1476461E+03  0.7546771E-02  0.1203398E+00
          5   -1    0    0  501    0  0.00000000000E+00  0.00000000000E+00  0.20084985252E+04  0.20085040244E+04  0.47000000000E+01 0.  1.
         -5   -1    0    0    0  501 -0.00000000000E+00 -0.00000000000E+00 -0.10753604940E+02  0.11735843353E+02  0.47000000000E+01 0.  1.
         25    2    1    2    0    0  0.25115177519E+02 -0.74458072616E+02  0.80903398537E+03  0.82239469674E+03  0.12498908365E+03 0.  0.
         25    2    1    2    0    0 -0.25115177519E+02  0.74458072616E+02  0.11887109349E+04  0.11978451710E+04  0.12499836030E+03 0.  0.
          5    1    4    4  502    0 -0.44609565380E+02  0.10019757697E+03  0.10287142459E+04  0.10345552946E+04  0.47000000000E+01 0.  1.
         -5    1    4    4    0  502  0.19494387861E+02 -0.25739504357E+02  0.15999668902E+03  0.16328987641E+03  0.47000000000E+01 0.  1.
          5    1    3    3  503    0  0.74987768056E+02 -0.30861211461E+02  0.44811673672E+03  0.45541879568E+03  0.47000000000E+01 0.  1.
         -5    1    3    3    0  503 -0.49872590537E+02 -0.43596861155E+02  0.36091724865E+03  0.36697590106E+03  0.47000000000E+01 0.  1.
<mgrwt>
<rscale>  0 0.14764412E+03</rscale>
<asrwt>0</asrwt>
<pdfrwt beam="1">  1        5 0.30907591E+00 0.14764609E+03</pdfrwt>
<pdfrwt beam="2">  1       -5 0.17303797E-02 0.14764609E+03</pdfrwt>
<totfact> 0.26032138E+01</totfact>
</mgrwt>
</event>
<event>
 8    1  0.3488953E-007  0.1338697E+03  0.7546771E-02  0.1221827E+00
          5   -1    0    0  501    0  0.00000000000E+00  0.00000000000E+00  0.18876770525E+03  0.18882620725E+03  0.47000000000E+01 0.  1.
         -5   -1    0    0    0  501 -0.00000000000E+00 -0.00000000000E+00 -0.10561409516E+03  0.10571862228E+03  0.47000000000E+01 0.  1.
         25    2    1    2    0    0 -0.42969882952E+02  0.21173098646E+02 -0.55101814409E+01  0.13397592025E+03  0.12499789663E+03 0.  0.
         25    2    1    2    0    0  0.42969882952E+02 -0.21173098646E+02  0.88663791533E+02  0.16056890928E+03  0.12500558288E+03 0.  0.
          5    1    4    4  502    0  0.54371822661E+02  0.28169950518E+02  0.90849434679E+02  0.10966107328E+03  0.47000000000E+01 0. -1.
         -5    1    4    4    0  502 -0.11401939709E+02 -0.49343049165E+02 -0.21856431466E+01  0.50907835998E+02  0.47000000000E+01 0. -1.
          5    1    3    3  503    0 -0.77973318059E+02 -0.74544458347E-01  0.25746002784E+02  0.82248346764E+02  0.47000000000E+01 0. -1.
         -5    1    3    3    0  503  0.35003435107E+02  0.21247643105E+02 -0.31256184225E+02  0.51727573489E+02  0.47000000000E+01 0. -1.
<mgrwt>
<rscale>  0 0.13386794E+03</rscale>
<asrwt>0</asrwt>
<pdfrwt beam="1">  1        5 0.29053726E-01 0.13386974E+03</pdfrwt>
<pdfrwt beam="2">  1       -5 0.16260863E-01 0.13386974E+03</pdfrwt>
<totfact> 0.27779584E+02</totfact>
</mgrwt>
</event>
<event>
 8    1  0.3488953E-007  0.1275997E+03  0.7546771E-02  0.1231064E+00
          5   -1    0    0  501    0  0.00000000000E+00  0.00000000000E+00  0.32089027174E+02  0.32431399368E+02  0.47000000000E+01 0. -1.
         -5   -1    0    0    0  501 -0.00000000000E+00 -0.00000000000E+00 -0.56317645230E+03  0.56319606393E+03  0.47000000000E+01 0. -1.
         25    2    1    2    0    0 -0.25619526246E+02  0.14249673929E-01 -0.36179326376E+03  0.38363529947E+03  0.12500126788E+03 0.  0.
         25    2    1    2    0    0  0.25619526246E+02 -0.14249673929E-01 -0.16929416137E+03  0.21199216383E+03  0.12499521640E+03 0.  0.
          5    1    4    4  502    0 -0.20185106333E+02  0.33839780789E+02 -0.74785204460E+01  0.40380534290E+02  0.47000000000E+01 0. -1.
         -5    1    4    4    0  502  0.45804632579E+02 -0.33854030463E+02 -0.16181564093E+03  0.17161162954E+03  0.47000000000E+01 0. -1.
          5    1    3    3  503    0  0.97212959746E+01 -0.57011087865E+02 -0.20438476515E+03  0.21246173764E+03  0.47000000000E+01 0. -1.
         -5    1    3    3    0  503 -0.35340822221E+02  0.57025337539E+02 -0.15740849861E+03  0.17117356183E+03  0.47000000000E+01 0. -1.
<mgrwt>
<rscale>  0 0.12759819E+03</rscale>
<asrwt>0</asrwt>
<pdfrwt beam="1">  1        5 0.49646187E-02 0.12759968E+03</pdfrwt>
<pdfrwt beam="2">  1       -5 0.86670369E-01 0.12759968E+03</pdfrwt>
<totfact> 0.20814066E+02</totfact>
</mgrwt>
</event>
<event>
 8    1  0.3488953E-007  0.1743824E+03  0.7546771E-02  0.1173354E+00
         -5   -1    0    0    0  501 -0.00000000000E+00  0.00000000000E+00  0.33599061481E+02  0.33926198319E+02  0.47000000000E+01 0. -1.
          5   -1    0    0  501    0  0.00000000000E+00 -0.00000000000E+00 -0.92870848779E+03  0.92872038057E+03  0.47000000000E+01 0. -1.
         25    2    1    2    0    0  0.97641799679E+02 -0.72450584850E+02 -0.53168773452E+03  0.55955285016E+03  0.12499814715E+03 0.  0.
         25    2    1    2    0    0 -0.97641799679E+02  0.72450584850E+02 -0.36342169179E+03  0.40309372873E+03  0.12500487908E+03 0.  0.
          5    1    4    4  502    0 -0.76740074514E+02 -0.17732028247E+02 -0.13178833847E+03  0.15360247400E+03  0.47000000000E+01 0.  1.
         -5    1    4    4    0  502 -0.20901725165E+02  0.90182613097E+02 -0.23163335331E+03  0.24949125473E+03  0.47000000000E+01 0.  1.
          5    1    3    3  503    0  0.10380336635E+03 -0.10051766596E+03 -0.45977555204E+03  0.48196948896E+03  0.47000000000E+01 0. -1.
         -5    1    3    3    0  503 -0.61615666706E+01  0.28067081107E+02 -0.71912182483E+02  0.77583361201E+02  0.47000000000E+01 0. -1.
<mgrwt>
<rscale>  0 0.17438121E+03</rscale>
<asrwt>0</asrwt>
<pdfrwt beam="2">  1        5 0.14290429E+00 0.17438242E+03</pdfrwt>
<pdfrwt beam="1">  1       -5 0.51951663E-02 0.17438242E+03</pdfrwt>
<totfact> 0.60632809E+01</totfact>
</mgrwt>
</event>
<event>
 8    1  0.3488953E-007  0.1605342E+03  0.7546771E-02  0.1188096E+00
         -5   -1    0    0    0  501 -0.00000000000E+00  0.00000000000E+00  0.49009906847E+03  0.49012160421E+03  0.47000000000E+01 0.  1.
          5   -1    0    0  501    0  0.00000000000E+00 -0.00000000000E+00 -0.52453792908E+02  0.52663938235E+02  0.47000000000E+01 0.  1.
         25    2    1    2    0    0  0.40747684769E+02  0.92112322231E+02  0.21843951548E+03  0.27108492693E+03  0.12500464777E+03 0.  0.
         25    2    1    2    0    0 -0.40747684769E+02 -0.92112322231E+02  0.21920576008E+03  0.27170061551E+03  0.12500002200E+03 0.  0.
          5    1    3    3  502    0 -0.13684154744E+02  0.76970018309E+02  0.19425402908E+03  0.20944774438E+03  0.47000000000E+01 0. -1.
         -5    1    3    3    0  502  0.54431839513E+02  0.15142303922E+02  0.24185486400E+02  0.61637182554E+02  0.47000000000E+01 0. -1.
          5    1    4    4  503    0 -0.32423812446E+02  0.26120326299E+02  0.58652556655E+02  0.72081810894E+02  0.47000000000E+01 0.  1.
         -5    1    4    4    0  503 -0.83238723224E+01 -0.11823264853E+03  0.16055320342E+03  0.19961880462E+03  0.47000000000E+01 0.  1.
<mgrwt>
<rscale>  0 0.16053326E+03</rscale>
<asrwt>0</asrwt>
<pdfrwt beam="2">  1        5 0.80877132E-02 0.16053416E+03</pdfrwt>
<pdfrwt beam="1">  1       -5 0.75417752E-01 0.16053416E+03</pdfrwt>
<totfact> 0.13598401E+02</totfact>
</mgrwt>
</event>
<event>
 8    1  0.3488953E-007  0.1442248E+03  0.7546771E-02  0.1207758E+00
         -5   -1    0    0    0  501 -0.00000000000E+00  0.00000000000E+00  0.57864164831E+03  0.57866073580E+03  0.47000000000E+01 0.  1.
          5   -1    0    0  501    0  0.00000000000E+00 -0.00000000000E+00 -0.36193085185E+02  0.36496978165E+02  0.47000000000E+01 0.  1.
         25    2    1    2    0    0  0.71369017269E+02  0.88918862248E+01  0.30426609581E+03  0.33671745047E+03  0.12501272787E+03 0.  0.
         25    2    1    2    0    0 -0.71369017269E+02 -0.88918862248E+01  0.23818246732E+03  0.27844026350E+03  0.12500196131E+03 0.  0.
          5    1    4    4  502    0 -0.57213246941E+01 -0.54670524350E+02  0.14707214603E+03  0.15707929821E+03  0.47000000000E+01 0.  1.
         -5    1    4    4    0  502 -0.65647692575E+02  0.45778638125E+02  0.91110321290E+02  0.12136096528E+03  0.47000000000E+01 0.  1.
          5    1    3    3  503    0  0.11270477488E+02 -0.51891000201E+02  0.75205731338E+02  0.92182924616E+02  0.47000000000E+01 0.  1.
         -5    1    3    3    0  503  0.60098539781E+02  0.60782886425E+02  0.22906036447E+03  0.24453452586E+03  0.47000000000E+01 0.  1.
<mgrwt>
<rscale>  0 0.14422244E+03</rscale>
<asrwt>0</asrwt>
<pdfrwt beam="2">  1        5 0.55930115E-02 0.14422477E+03</pdfrwt>
<pdfrwt beam="1">  1       -5 0.89046638E-01 0.14422477E+03</pdfrwt>
<totfact> 0.16683489E+02</totfact>
</mgrwt>
</event>
<event>
 8    1  0.3488953E-007  0.1313849E+03  0.7546771E-02  0.1225415E+00
          5   -1    0    0  501    0  0.00000000000E+00  0.00000000000E+00  0.87403107316E+03  0.87404370991E+03  0.47000000000E+01 0.  1.
         -5   -1    0    0    0  501 -0.00000000000E+00 -0.00000000000E+00 -0.19689849243E+02  0.20243027521E+02  0.47000000000E+01 0.  1.
         25    2    1    2    0    0  0.20069809817E+02 -0.35137411700E+02  0.37926121061E+03  0.40137395278E+03  0.12499819652E+03 0.  0.
         25    2    1    2    0    0 -0.20069809817E+02  0.35137411700E+02  0.47508001331E+03  0.49291278466E+03  0.12499823706E+03 0.  0.
          5    1    4    4  502    0 -0.66193289381E+02  0.21488140939E+02  0.37896561854E+03  0.38533144408E+03  0.47000000000E+01 0. -1.
         -5    1    4    4    0  502  0.46123479565E+02  0.13649270760E+02  0.96114394769E+02  0.10758134058E+03  0.47000000000E+01 0. -1.
          5    1    3    3  503    0 -0.20260375953E+02  0.40504692028E+02  0.13242151976E+03  0.14003093160E+03  0.47000000000E+01 0. -1.
         -5    1    3    3    0  503  0.40330185770E+02 -0.75642103728E+02  0.24683969085E+03  0.26134302118E+03  0.47000000000E+01 0. -1.
<mgrwt>
<rscale>  0 0.13138490E+03</rscale>
<asrwt>0</asrwt>
<pdfrwt beam="1">  1        5 0.13450984E+00 0.13138491E+03</pdfrwt>
<pdfrwt beam="2">  1       -5 0.30727319E-02 0.13138491E+03</pdfrwt>
<totfact> 0.15510723E+02</totfact>
</mgrwt>
</event>
<event>
 8    1  0.3488953E-007  0.1302026E+03  0.7546771E-02  0.1227157E+00
         -5   -1    0    0    0  501 -0.00000000000E+00  0.00000000000E+00  0.47617368125E+03  0.47619687600E+03  0.47000000000E+01 0.  1.
          5   -1    0    0  501    0  0.00000000000E+00 -0.00000000000E+00 -0.43731232914E+02  0.43983073246E+02  0.47000000000E+01 0.  1.
         25    2    1    2    0    0  0.36287281304E+02  0.33228112696E+01  0.32920013921E+03  0.35401232601E+03  0.12499674975E+03 0.  0.
         25    2    1    2    0    0 -0.36287281304E+02 -0.33228112696E+01  0.10324230912E+03  0.16616762324E+03  0.12499958704E+03 0.  0.
          5    1    3    3  502    0 -0.22429815259E+02 -0.29392453234E+02  0.23645825159E+03  0.23937754210E+03  0.47000000000E+01 0. -1.
         -5    1    3    3    0  502  0.58717096563E+02  0.32715264504E+02  0.92741887624E+02  0.11463478390E+03  0.47000000000E+01 0. -1.
          5    1    4    4  503    0 -0.31301742891E+01 -0.56494675472E+02  0.16631158241E+02  0.59161911499E+02  0.47000000000E+01 0. -1.
         -5    1    4    4    0  503 -0.33157107015E+02  0.53171864202E+02  0.86611150878E+02  0.10700571174E+03  0.47000000000E+01 0. -1.
<mgrwt>
<rscale>  0 0.13020187E+03</rscale>
<asrwt>0</asrwt>
<pdfrwt beam="2">  1        5 0.67490387E-02 0.13020255E+03</pdfrwt>
<pdfrwt beam="1">  1       -5 0.73278644E-01 0.13020255E+03</pdfrwt>
<totfact> 0.18467542E+02</totfact>
</mgrwt>
</event>
<event>
 8    1  0.3488953E-007  0.1391170E+03  0.7546771E-02  0.1214527E+00
         -5   -1    0    0    0  501 -0.00000000000E+00  0.00000000000E+00  0.93671777189E+02  0.93789614786E+02  0.47000000000E+01 0.  1.
          5   -1    0    0  501    0  0.00000000000E+00 -0.00000000000E+00 -0.32662953990E+03  0.32666335322E+03  0.47000000000E+01 0.  1.
         25    2    1    2    0    0 -0.25206684789E+02  0.55592311451E+02  0.11076112795E+02  0.13955723675E+03  0.12501063956E+03 0.  0.
         25    2    1    2    0    0  0.25206684789E+02 -0.55592311451E+02 -0.24403387551E+03  0.28089573125E+03  0.12499598950E+03 0.  0.
          5    1    4    4  502    0  0.70379559641E+02 -0.68326749504E+01 -0.14693468054E+03  0.16313141392E+03  0.47000000000E+01 0.  1.
         -5    1    4    4    0  502 -0.45172874852E+02 -0.48759636501E+02 -0.97099194969E+02  0.11776431734E+03  0.47000000000E+01 0.  1.
          5    1    3    3  503    0 -0.74594349341E+02  0.19880466816E+02  0.12864216313E+02  0.78403622211E+02  0.47000000000E+01 0. -1.
         -5    1    3    3    0  503  0.49387664551E+02  0.35711844635E+02 -0.17881035178E+01  0.61153614540E+02  0.47000000000E+01 0. -1.
<mgrwt>
<rscale>  0 0.13911372E+03</rscale>
<asrwt>0</asrwt>
<pdfrwt beam="2">  1        5 0.50262363E-01 0.13911701E+03</pdfrwt>
<pdfrwt beam="1">  1       -5 0.14422708E-01 0.13911701E+03</pdfrwt>
<totfact> 0.11478305E+02</totfact>
</mgrwt>
</event>
<event>
 8    1  0.3488953E-007  0.1580527E+03  0.7546771E-02  0.1190913E+00
          5   -1    0    0  501    0  0.00000000000E+00  0.00000000000E+00  0.81240460942E+03  0.81241820475E+03  0.47000000000E+01 0. -1.
         -5   -1    0    0    0  501 -0.00000000000E+00 -0.00000000000E+00 -0.30732953350E+02  0.31090262489E+02  0.47000000000E+01 0. -1.
         25    2    1    2    0    0 -0.78789634932E+02 -0.56090531434E+02  0.42272293127E+03  0.45130334838E+03  0.12500432532E+03 0.  0.
         25    2    1    2    0    0  0.78789634932E+02  0.56090531434E+02  0.35894872480E+03  0.39220511886E+03  0.12500685554E+03 0.  0.
          5    1    4    4  502    0  0.63022322268E+02  0.94415448726E+02  0.22739119517E+03  0.25419468071E+03  0.47000000000E+01 0.  1.
         -5    1    4    4    0  502  0.15767312663E+02 -0.38324917292E+02  0.13155752963E+03  0.13801043814E+03  0.47000000000E+01 0.  1.
          5    1    3    3  503    0  0.64324227975E+01 -0.11864279559E+02 -0.32187713274E+01  0.14648811602E+02  0.47000000000E+01 0. -1.
         -5    1    3    3    0  503 -0.85222057729E+02 -0.44226251875E+02  0.42594170259E+03  0.43665453678E+03  0.47000000000E+01 0. -1.
<mgrwt>
<rscale>  0 0.15805224E+03</rscale>
<asrwt>0</asrwt>
<pdfrwt beam="1">  1        5 0.12501386E+00 0.15805274E+03</pdfrwt>
<pdfrwt beam="2">  1       -5 0.47566777E-02 0.15805274E+03</pdfrwt>
<totfact> 0.97245412E+01</totfact>
</mgrwt>
</event>
<event>
 8    1  0.3488953E-007  0.1258766E+03  0.7546771E-02  0.1233714E+00
          5   -1    0    0  501    0  0.00000000000E+00  0.00000000000E+00  0.85853693091E+01  0.97876741964E+01  0.47000000000E+01 0. -1.
         -5   -1    0    0    0  501 -0.00000000000E+00 -0.00000000000E+00 -0.17278113421E+04  0.17278177346E+04  0.47000000000E+01 0. -1.
         25    2    1    2    0    0  0.13490770463E+02 -0.56256029049E+01 -0.90387581100E+03  0.91259583417E+03  0.12500410611E+03 0.  0.
         25    2    1    2    0    0 -0.13490770463E+02  0.56256029049E+01 -0.81535016181E+03  0.82500957461E+03  0.12502505164E+03 0.  0.
          5    1    3    3  502    0 -0.40463628736E+02 -0.41802117146E+02 -0.51589623423E+03  0.51918757375E+03  0.47000000000E+01 0. -1.
         -5    1    3    3    0  502  0.53954399199E+02  0.36176514241E+02 -0.38797957677E+03  0.39340826042E+03  0.47000000000E+01 0. -1.
          5    1    4    4  503    0  0.76271512917E+01  0.45742740716E+02 -0.12926611342E+03  0.13741320841E+03  0.47000000000E+01 0.  1.
         -5    1    4    4    0  503 -0.21117921755E+02 -0.40117137811E+02 -0.68608404838E+03  0.68759636620E+03  0.47000000000E+01 0.  1.
<mgrwt>
<rscale>  0 0.12587137E+03</rscale>
<asrwt>0</asrwt>
<pdfrwt beam="1">  1        5 0.14138041E-02 0.12587657E+03</pdfrwt>
<pdfrwt beam="2">  1       -5 0.26590985E+00 0.12587657E+03</pdfrwt>
<totfact> 0.64187628E+01</totfact>
</mgrwt>
</event>
<event>
 8    1  0.3488953E-007  0.1544776E+03  0.7546771E-02  0.1195077E+00
         -5   -1    0    0    0  501 -0.00000000000E+00  0.00000000000E+00  0.19746001471E+02  0.20297649472E+02  0.47000000000E+01 0.  1.
          5   -1    0    0  501    0  0.00000000000E+00 -0.00000000000E+00 -0.11913266933E+04  0.11913359645E+04  0.47000000000E+01 0.  1.
         25    2    1    2    0    0  0.32643536925E+02 -0.84694117497E+02 -0.58226815480E+03  0.60241143738E+03  0.12499856702E+03 0.  0.
         25    2    1    2    0    0 -0.32643536925E+02  0.84694117497E+02 -0.58931253707E+03  0.60922217657E+03  0.12499480003E+03 0.  0.
          5    1    3    3  502    0 -0.50957826632E+01  0.22785192486E+02 -0.29036716176E+02  0.37554665274E+02  0.47000000000E+01 0. -1.
         -5    1    3    3    0  502  0.37739319588E+02 -0.10747930998E+03 -0.55323143862E+03  0.56485677211E+03  0.47000000000E+01 0. -1.
          5    1    4    4  503    0 -0.65421166156E+02  0.10367862449E+02 -0.17901834796E+03  0.19093737313E+03  0.47000000000E+01 0. -1.
         -5    1    4    4    0  503  0.32777629231E+02  0.74326255048E+02 -0.41029418912E+03  0.41828480344E+03  0.47000000000E+01 0. -1.
<mgrwt>
<rscale>  0 0.15447686E+03</rscale>
<asrwt>0</asrwt>
<pdfrwt beam="2">  1        5 0.18332412E+00 0.15447762E+03</pdfrwt>
<pdfrwt beam="1">  1       -5 0.30809949E-02 0.15447762E+03</pdfrwt>
<totfact> 0.68420267E+01</totfact>
</mgrwt>
</event>
<event>
 8    1  0.3488953E-007  0.1431313E+03  0.7546771E-02  0.1209184E+00
         -5   -1    0    0    0  501 -0.00000000000E+00  0.00000000000E+00  0.77339605467E+02  0.77482285548E+02  0.47000000000E+01 0.  1.
          5   -1    0    0  501    0  0.00000000000E+00 -0.00000000000E+00 -0.27932734609E+03  0.27936688471E+03  0.47000000000E+01 0.  1.
         25    2    1    2    0    0  0.74217039975E+01  0.69296361884E+02 -0.59828757205E+02  0.15513235449E+03  0.12501799774E+03 0.  0.
         25    2    1    2    0    0 -0.74217039975E+01 -0.69296361884E+02 -0.14215898342E+03  0.20171681577E+03  0.12499371879E+03 0.  0.
          5    1    4    4  502    0 -0.53730346344E+02 -0.67481458872E+01 -0.22347825487E+02  0.58770765651E+02  0.47000000000E+01 0. -1.
         -5    1    4    4    0  502  0.46308642347E+02 -0.62548215996E+02 -0.11981115793E+03  0.14294605012E+03  0.47000000000E+01 0. -1.
          5    1    3    3  503    0  0.62420675368E+02  0.37891244380E+02 -0.88713465297E+01  0.73708058605E+02  0.47000000000E+01 0. -1.
         -5    1    3    3    0  503 -0.54998971371E+02  0.31405117504E+02 -0.50957410675E+02  0.81424295883E+02  0.47000000000E+01 0. -1.
<mgrwt>
<rscale>  0 0.14312599E+03</rscale>
<asrwt>0</asrwt>
<pdfrwt beam="2">  1        5 0.42987454E-01 0.14313129E+03</pdfrwt>
<pdfrwt beam="1">  1       -5 0.11912418E-01 0.14313129E+03</pdfrwt>
<totfact> 0.22630771E+02</totfact>
</mgrwt>
</event>
<event>
 8    1  0.3488953E-007  0.1413897E+03  0.7546771E-02  0.1211474E+00
          5   -1    0    0  501    0  0.00000000000E+00  0.00000000000E+00  0.88114798264E+03  0.88116051734E+03  0.47000000000E+01 0.  1.
         -5   -1    0    0    0  501 -0.00000000000E+00 -0.00000000000E+00 -0.22430984958E+02  0.22918095169E+02  0.47000000000E+01 0.  1.
         25    2    1    2    0    0  0.46785573071E+02  0.46669435204E+02  0.43267060893E+03  0.45518665948E+03  0.12499645236E+03 0.  0.
         25    2    1    2    0    0 -0.46785573071E+02 -0.46669435204E+02  0.42604638875E+03  0.44889195303E+03  0.12498613561E+03 0.  0.
          5    1    4    4  502    0  0.32347068411E+02  0.19262969528E+02  0.10141130668E+03  0.10827621139E+03  0.47000000000E+01 0.  1.
         -5    1    4    4    0  502 -0.79132641481E+02 -0.65932404732E+02  0.32463508207E+03  0.34061574164E+03  0.47000000000E+01 0.  1.
          5    1    3    3  503    0 -0.10908549023E+02  0.57411079135E+02  0.89431585878E+02  0.10693515326E+03  0.47000000000E+01 0. -1.
         -5    1    3    3    0  503  0.57694122094E+02 -0.10741643931E+02  0.34323902306E+03  0.34825150622E+03  0.47000000000E+01 0. -1.
<mgrwt>
<rscale>  0 0.14138739E+03</rscale>
<asrwt>0</asrwt>
<pdfrwt beam="1">  1        5 0.13559964E+00 0.14138967E+03</pdfrwt>
<pdfrwt beam="2">  1       -5 0.34893556E-02 0.14138967E+03</pdfrwt>
<totfact> 0.12648728E+02</totfact>
</mgrwt>
</event>
<event>
 8    1  0.3488953E-007  0.1305806E+03  0.7546771E-02  0.1226598E+00
         -5   -1    0    0    0  501 -0.00000000000E+00  0.00000000000E+00  0.36557090018E+03  0.36560111195E+03  0.47000000000E+01 0. -1.
          5   -1    0    0  501    0  0.00000000000E+00 -0.00000000000E+00 -0.49634781584E+02  0.49856810396E+02  0.47000000000E+01 0. -1.
         25    2    1    2    0    0 -0.37714262752E+02  0.19896041466E+01  0.21010639375E+03  0.24737695198E+03  0.12499734213E+03 0.  0.
         25    2    1    2    0    0  0.37714262752E+02 -0.19896041466E+01  0.10582972485E+03  0.16808097036E+03  0.12499983119E+03 0.  0.
          5    1    4    4  502    0  0.50640961605E+02  0.10110366317E+02  0.12871455808E+03  0.13876690513E+03  0.47000000000E+01 0.  1.
         -5    1    4    4    0  502 -0.12926698853E+02 -0.12099970464E+02 -0.22884833227E+02  0.29314065230E+02  0.47000000000E+01 0.  1.
          5    1    3    3  503    0  0.19961455822E+02  0.25849338451E+02  0.55515454993E+01  0.33459791905E+02  0.47000000000E+01 0. -1.
         -5    1    3    3    0  503 -0.57675718574E+02 -0.23859734305E+02  0.20455484825E+03  0.21391716008E+03  0.47000000000E+01 0. -1.
<mgrwt>
<rscale>  0 0.13057996E+03</rscale>
<asrwt>0</asrwt>
<pdfrwt beam="2">  1        5 0.76555233E-02 0.13058056E+03</pdfrwt>
<pdfrwt beam="1">  1       -5 0.56261080E-01 0.13058056E+03</pdfrwt>
<totfact> 0.26788078E+02</totfact>
</mgrwt>
</event>
<event>
 8    1  0.3488953E-007  0.1412753E+03  0.7546771E-02  0.1211625E+00
         -5   -1    0    0    0  501 -0.00000000000E+00  0.00000000000E+00  0.27728052896E+03  0.27732035941E+03  0.47000000000E+01 0.  1.
          5   -1    0    0  501    0  0.00000000000E+00 -0.00000000000E+00 -0.72007579734E+02  0.72160803343E+02  0.47000000000E+01 0.  1.
         25    2    1    2    0    0  0.13474072767E+02  0.64421939008E+02  0.11066029430E+03  0.17945588013E+03  0.12500790102E+03 0.  0.
         25    2    1    2    0    0 -0.13474072767E+02 -0.64421939008E+02  0.94612654928E+02  0.17002528262E+03  0.12500122157E+03 0.  0.
          5    1    4    4  502    0 -0.63530281632E+02 -0.64901030211E+02  0.63070567160E+02  0.11067170753E+03  0.47000000000E+01 0.  1.
         -5    1    4    4    0  502  0.50056208865E+02  0.47909120372E+00  0.31542087768E+02  0.59353575082E+02  0.47000000000E+01 0.  1.
          5    1    3    3  503    0 -0.30179011366E+02  0.51394835806E+01 -0.14480075761E+02  0.34189905126E+02  0.47000000000E+01 0. -1.
         -5    1    3    3    0  503  0.43653084133E+02  0.59282455427E+02  0.12514037006E+03  0.14526597501E+03  0.47000000000E+01 0. -1.
<mgrwt>
<rscale>  0 0.14127383E+03</rscale>
<asrwt>0</asrwt>
<pdfrwt beam="2">  1        5 0.11092940E-01 0.14127531E+03</pdfrwt>
<pdfrwt beam="1">  1       -5 0.42673393E-01 0.14127531E+03</pdfrwt>
<totfact> 0.25945917E+02</totfact>
</mgrwt>
</event>
<event>
 8    1  0.3488953E-007  0.1794848E+03  0.7546771E-02  0.1168304E+00
         -5   -1    0    0    0  501 -0.00000000000E+00  0.00000000000E+00  0.30908006979E+03  0.30911580280E+03  0.47000000000E+01 0.  1.
          5   -1    0    0  501    0  0.00000000000E+00 -0.00000000000E+00 -0.10617276984E+03  0.10627674749E+03  0.47000000000E+01 0.  1.
         25    2    1    2    0    0 -0.62413144844E+02  0.11266940018E+03  0.72660229274E+02  0.19363442366E+03  0.12499994688E+03 0.  0.
         25    2    1    2    0    0  0.62413144844E+02 -0.11266940018E+03  0.13024707067E+03  0.22175812662E+03  0.12499029130E+03 0.  0.
          5    1    4    4  502    0  0.16578202565E+02 -0.12749790524E+03  0.11007728248E+03  0.16932114682E+03  0.47000000000E+01 0. -1.
         -5    1    4    4    0  502  0.45834942279E+02  0.14828505055E+02  0.20169788190E+02  0.52436979810E+02  0.47000000000E+01 0. -1.
          5    1    3    3  503    0 -0.23100198491E+02  0.41143926582E+02 -0.34650967201E+02  0.58730072304E+02  0.47000000000E+01 0.  1.
         -5    1    3    3    0  503 -0.39312946353E+02  0.71525473602E+02  0.10731119648E+03  0.13490435135E+03  0.47000000000E+01 0.  1.
<mgrwt>
<rscale>  0 0.17948308E+03</rscale>
<asrwt>0</asrwt>
<pdfrwt beam="2">  1        5 0.16345019E-01 0.17948477E+03</pdfrwt>
<pdfrwt beam="1">  1       -5 0.47561527E-01 0.17948477E+03</pdfrwt>
<totfact> 0.11116012E+02</totfact>
</mgrwt>
</event>
<event>
 8    1  0.3488953E-007  0.1259156E+03  0.7546771E-02  0.1233649E+00
          5   -1    0    0  501    0  0.00000000000E+00  0.00000000000E+00  0.41211935567E+02  0.41479074642E+02  0.47000000000E+01 0. -1.
         -5   -1    0    0    0  501 -0.00000000000E+00 -0.00000000000E+00 -0.64791893158E+03  0.64793597824E+03  0.47000000000E+01 0. -1.
         25    2    1    2    0    0  0.11762333721E+02  0.95001695833E+01 -0.52366311660E+03  0.53858870874E+03  0.12500452703E+03 0.  0.
         25    2    1    2    0    0 -0.11762333721E+02 -0.95001695833E+01 -0.83043879415E+02  0.15082634415E+03  0.12499477775E+03 0.  0.
          5    1    3    3  502    0  0.29805451122E+02 -0.52692791257E+02 -0.27063048737E+03  0.27735869531E+03  0.47000000000E+01 0.  1.
         -5    1    3    3    0  502 -0.18043117402E+02  0.62192960840E+02 -0.25303262922E+03  0.26123001343E+03  0.47000000000E+01 0.  1.
          5    1    4    4  503    0 -0.56299286869E+02  0.29277079220E+02 -0.26484243062E+02  0.68922145934E+02  0.47000000000E+01 0. -1.
         -5    1    4    4    0  503  0.44536953148E+02 -0.38777248803E+02 -0.56559636354E+02  0.81904198213E+02  0.47000000000E+01 0. -1.
<mgrwt>
<rscale>  0 0.12591318E+03</rscale>
<asrwt>0</asrwt>
<pdfrwt beam="1">  1        5 0.63621587E-02 0.12591560E+03</pdfrwt>
<pdfrwt beam="2">  1       -5 0.99701689E-01 0.12591560E+03</pdfrwt>
<totfact> 0.98013936E+01</totfact>
</mgrwt>
</event>
<event>
 8    1  0.3488953E-007  0.1309773E+03  0.7546771E-02  0.1226014E+00
         -5   -1    0    0    0  501 -0.00000000000E+00  0.00000000000E+00  0.93385163294E+03  0.93386346023E+03  0.47000000000E+01 0. -1.
          5   -1    0    0  501    0  0.00000000000E+00 -0.00000000000E+00 -0.23989355073E+02  0.24445432228E+02  0.47000000000E+01 0. -1.
         25    2    1    2    0    0 -0.33335404890E+02 -0.20462569407E+02  0.69056576391E+03  0.70287703801E+03  0.12500036123E+03 0.  0.
         25    2    1    2    0    0  0.33335404890E+02  0.20462569407E+02  0.21929651396E+03  0.25543185445E+03  0.12499802105E+03 0.  0.
          5    1    3    3  502    0 -0.53324205051E+02  0.40182068120E+02  0.35854850931E+03  0.36474263936E+03  0.47000000000E+01 0. -1.
         -5    1    3    3    0  502  0.19988800161E+02 -0.60644637527E+02  0.33201725460E+03  0.33813439865E+03  0.47000000000E+01 0. -1.
          5    1    4    4  503    0  0.34093239048E+01 -0.13415336699E+02 -0.12492962400E+02  0.19229114846E+02  0.47000000000E+01 0. -1.
         -5    1    4    4    0  503  0.29926080985E+02  0.33877906106E+02  0.23178947636E+03  0.23620273960E+03  0.47000000000E+01 0. -1.
<mgrwt>
<rscale>  0 0.13097675E+03</rscale>
<asrwt>0</asrwt>
<pdfrwt beam="2">  1        5 0.37266631E-02 0.13097731E+03</pdfrwt>
<pdfrwt beam="1">  1       -5 0.14370546E+00 0.13097731E+03</pdfrwt>
<totfact> 0.95017893E+01</totfact>
</mgrwt>
</event>
<event>
 8    1  0.3488953E-007  0.1428798E+03  0.7546771E-02  0.1209510E+00
          5   -1    0    0  501    0  0.00000000000E+00  0.00000000000E+00  0.53511813484E+02  0.53717819970E+02  0.47000000000E+01 0.  1.
         -5   -1    0    0    0  501 -0.00000000000E+00 -0.00000000000E+00 -0.38384877529E+03  0.38387754856E+03  0.47000000000E+01 0.  1.
         25    2    1    2    0    0 -0.58831089638E+02 -0.36451878867E+02 -0.18557077726E+03  0.23420323944E+03  0.12499922964E+03 0.  0.
         25    2    1    2    0    0  0.58831089638E+02  0.36451878867E+02 -0.14476618454E+03  0.20339212909E+03  0.12498509274E+03 0.  0.
          5    1    4    4  502    0  0.53856553042E+02  0.20125670774E+02 -0.13949149838E+00  0.57686050199E+02  0.47000000000E+01 0. -1.
         -5    1    4    4    0  502  0.49745365963E+01  0.16326208093E+02 -0.14462669305E+03  0.14570607889E+03  0.47000000000E+01 0. -1.
          5    1    3    3  503    0 -0.80038697098E+02 -0.27604791119E+02 -0.19199333312E+03  0.20988508163E+03  0.47000000000E+01 0. -1.
         -5    1    3    3    0  503  0.21207607459E+02 -0.88470877480E+01  0.64225558609E+01  0.24318157816E+02  0.47000000000E+01 0. -1.
<mgrwt>
<rscale>  0 0.14287673E+03</rscale>
<asrwt>0</asrwt>
<pdfrwt beam="1">  1        5 0.82506469E-02 0.14287982E+03</pdfrwt>
<pdfrwt beam="2">  1       -5 0.59071716E-01 0.14287982E+03</pdfrwt>
<totfact> 0.21855133E+02</totfact>
</mgrwt>
</event>
<event>
 8    1  0.3488953E-007  0.1300657E+03  0.7546771E-02  0.1227364E+00
          5   -1    0    0  501    0  0.00000000000E+00  0.00000000000E+00  0.11148292569E+03  0.11158195518E+03  0.47000000000E+01 0. -1.
         -5   -1    0    0    0  501 -0.00000000000E+00 -0.00000000000E+00 -0.15234370129E+03  0.15241618458E+03  0.47000000000E+01 0. -1.
         25    2    1    2    0    0 -0.20793626241E+02  0.29367026302E+02 -0.30102582713E+02  0.13348824935E+03  0.12497259741E+03 0.  0.
         25    2    1    2    0    0  0.20793626241E+02 -0.29367026302E+02 -0.10758192884E+02  0.13050989041E+03  0.12498918215E+03 0.  0.
          5    1    4    4  502    0 -0.18778174758E+02 -0.64380587789E+02 -0.30612263225E+02  0.73869348115E+02  0.47000000000E+01 0. -1.
         -5    1    4    4    0  502  0.39571800999E+02  0.35013561486E+02  0.19854070341E+02  0.56640542294E+02  0.47000000000E+01 0. -1.
          5    1    3    3  503    0 -0.54274512204E+02 -0.29388064048E+02 -0.19348880952E+02  0.64852526377E+02  0.47000000000E+01 0. -1.
         -5    1    3    3    0  503  0.33480885963E+02  0.58755090350E+02 -0.10753701761E+02  0.68635722977E+02  0.47000000000E+01 0. -1.
<mgrwt>
<rscale>  0 0.13006174E+03</rscale>
<asrwt>0</asrwt>
<pdfrwt beam="1">  1        5 0.17164413E-01 0.13006572E+03</pdfrwt>
<pdfrwt beam="2">  1       -5 0.23450686E-01 0.13006572E+03</pdfrwt>
<totfact> 0.37621556E+02</totfact>
</mgrwt>
</event>
<event>
 8    1  0.3488953E-007  0.1567657E+03  0.7546771E-02  0.1192400E+00
         -5   -1    0    0    0  501 -0.00000000000E+00  0.00000000000E+00  0.27816687588E+02  0.28210957240E+02  0.47000000000E+01 0. -1.
          5   -1    0    0  501    0  0.00000000000E+00 -0.00000000000E+00 -0.87763370130E+03  0.87764628618E+03  0.47000000000E+01 0. -1.
         25    2    1    2    0    0 -0.79655772111E+02  0.51044221805E+02 -0.43872221245E+03  0.46588632529E+03  0.12498933469E+03 0.  0.
         25    2    1    2    0    0  0.79655772111E+02 -0.51044221805E+02 -0.41109480126E+03  0.43997091813E+03  0.12499967428E+03 0.  0.
          5    1    4    4  502    0 -0.20434462713E+01 -0.35798094729E+02 -0.29448963225E+03  0.29670172356E+03  0.47000000000E+01 0.  1.
         -5    1    4    4    0  502  0.81699218382E+02 -0.15246127076E+02 -0.11660516901E+03  0.14326919458E+03  0.47000000000E+01 0.  1.
          5    1    3    3  503    0 -0.10236305676E+03  0.62105589032E+02 -0.41090901123E+03  0.42802290253E+03  0.47000000000E+01 0.  1.
         -5    1    3    3    0  503  0.22707284651E+02 -0.11061367227E+02 -0.27813201222E+02  0.37863422763E+02  0.47000000000E+01 0.  1.
<mgrwt>
<rscale>  0 0.15676360E+03</rscale>
<asrwt>0</asrwt>
<pdfrwt beam="2">  1        5 0.13505185E+00 0.15676566E+03</pdfrwt>
<pdfrwt beam="1">  1       -5 0.43107876E-02 0.15676566E+03</pdfrwt>
<totfact> 0.93318657E+01</totfact>
</mgrwt>
</event>
<event>
 8    1  0.3488953E-007  0.1306652E+03  0.7546771E-02  0.1226481E+00
          5   -1    0    0  501    0  0.00000000000E+00  0.00000000000E+00  0.23170929033E+03  0.23175695291E+03  0.47000000000E+01 0. -1.
         -5   -1    0    0    0  501 -0.00000000000E+00 -0.00000000000E+00 -0.75429661020E+02  0.75575946978E+02  0.47000000000E+01 0. -1.
         25    2    1    2    0    0 -0.13039988629E+02  0.35666768722E+02  0.53848953567E+02  0.14130449155E+03  0.12500035935E+03 0.  0.
         25    2    1    2    0    0  0.13039988629E+02 -0.35666768722E+02  0.10243067574E+03  0.16602840834E+03  0.12502491491E+03 0.  0.
          5    1    4    4  502    0 -0.44471448189E+02 -0.39681627035E+02  0.88042186541E+02  0.10642301367E+03  0.47000000000E+01 0. -1.
         -5    1    4    4    0  502  0.57511436818E+02  0.40148583135E+01  0.14388489198E+02  0.59605394668E+02  0.47000000000E+01 0. -1.
          5    1    3    3  503    0  0.49265279073E+02 -0.45252255163E+01  0.25164644822E+00  0.49696063366E+02  0.47000000000E+01 0. -1.
         -5    1    3    3    0  503 -0.62305267702E+02  0.40191994238E+02  0.53597307119E+02  0.91608428186E+02  0.47000000000E+01 0. -1.
<mgrwt>
<rscale>  0 0.13065930E+03</rscale>
<asrwt>0</asrwt>
<pdfrwt beam="1">  1        5 0.35662502E-01 0.13066518E+03</pdfrwt>
<pdfrwt beam="2">  1       -5 0.11619483E-01 0.13066518E+03</pdfrwt>
<totfact> 0.33542413E+02</totfact>
</mgrwt>
</event>
<event>
 8    1  0.3488953E-007  0.1377826E+03  0.7546771E-02  0.1216364E+00
          5   -1    0    0  501    0  0.00000000000E+00  0.00000000000E+00  0.61289156871E+02  0.61469104028E+02  0.47000000000E+01 0.  1.
         -5   -1    0    0    0  501 -0.00000000000E+00 -0.00000000000E+00 -0.30963602175E+03  0.30967169061E+03  0.47000000000E+01 0.  1.
         25    2    1    2    0    0 -0.28520856520E+02  0.50459027253E+02 -0.13279278031E+03  0.19131644120E+03  0.12493400452E+03 0.  0.
         25    2    1    2    0    0  0.28520856520E+02 -0.50459027253E+02 -0.11555408457E+03  0.17982435344E+03  0.12499799574E+03 0.  0.
          5    1    4    4  502    0  0.11045256742E+02 -0.36601255743E+02  0.19281589654E+02  0.43075739321E+02  0.47000000000E+01 0.  1.
         -5    1    4    4    0  502  0.17475599778E+02 -0.13857771510E+02 -0.13483567423E+03  0.13674861412E+03  0.47000000000E+01 0.  1.
          5    1    3    3  503    0  0.13323246484E+02 -0.37309062488E+02 -0.46079336920E+02  0.60949736108E+02  0.47000000000E+01 0. -1.
         -5    1    3    3    0  503 -0.41844103004E+02  0.87768089741E+02 -0.86713443388E+02  0.13036670509E+03  0.47000000000E+01 0. -1.
<mgrwt>
<rscale>  0 0.13776811E+03</rscale>
<asrwt>0</asrwt>
<pdfrwt beam="1">  1        5 0.94456870E-02 0.13778262E+03</pdfrwt>
<pdfrwt beam="2">  1       -5 0.47652896E-01 0.13778262E+03</pdfrwt>
<totfact> 0.27075086E+02</totfact>
</mgrwt>
</event>
<event>
 8    1  0.3488953E-007  0.1377348E+03  0.7546771E-02  0.1216411E+00
          5   -1    0    0  501    0  0.00000000000E+00  0.00000000000E+00  0.13895821712E+03  0.13903767873E+03  0.47000000000E+01 0.  1.
         -5   -1    0    0    0  501 -0.00000000000E+00 -0.00000000000E+00 -0.30833094752E+03  0.30836676734E+03  0.47000000000E+01 0.  1.
         25    2    1    2    0    0 -0.33183477877E+02 -0.47381521893E+02 -0.25171595772E+03  0.28693520308E+03  0.12499894231E+03 0.  0.
         25    2    1    2    0    0  0.33183477877E+02  0.47381521893E+02  0.82343227315E+02  0.16046924298E+03  0.12499527606E+03 0.  0.
          5    1    4    4  502    0 -0.47440422136E+02  0.10626253305E+02  0.25589275186E+02  0.55139930326E+02  0.47000000000E+01 0.  1.
         -5    1    4    4    0  502  0.80623900013E+02  0.36755268588E+02  0.56753952129E+02  0.10532931266E+03  0.47000000000E+01 0.  1.
          5    1    3    3  503    0 -0.32944435605E+02 -0.47367451972E+02 -0.26582852676E+03  0.27205864622E+03  0.47000000000E+01 0.  1.
         -5    1    3    3    0  503 -0.23904227189E+00 -0.14069921491E-01  0.14112569043E+02  0.14876556865E+02  0.47000000000E+01 0.  1.
<mgrwt>
<rscale>  0 0.13773401E+03</rscale>
<asrwt>0</asrwt>
<pdfrwt beam="1">  1        5 0.21387055E-01 0.13773484E+03</pdfrwt>
<pdfrwt beam="2">  1       -5 0.47444398E-01 0.13773484E+03</pdfrwt>
<totfact> 0.62583622E+01</totfact>
</mgrwt>
</event>
<event>
 8    1  0.3488953E-007  0.1255223E+03  0.7546771E-02  0.1234260E+00
          5   -1    0    0  501    0  0.00000000000E+00  0.00000000000E+00  0.50480125075E+02  0.50698451925E+02  0.47000000000E+01 0.  1.
         -5   -1    0    0    0  501 -0.00000000000E+00 -0.00000000000E+00 -0.31766591326E+03  0.31770068059E+03  0.47000000000E+01 0.  1.
         25    2    1    2    0    0  0.62781403992E+01 -0.96939869178E+01 -0.15989414322E+03  0.20327086516E+03  0.12497807471E+03 0.  0.
         25    2    1    2    0    0 -0.62781403992E+01  0.96939869178E+01 -0.10729164497E+03  0.16512826736E+03  0.12498983627E+03 0.  0.
          5    1    3    3  502    0 -0.48338887096E+02 -0.20660380477E+02 -0.12904093827E+03  0.13941719075E+03  0.47000000000E+01 0. -1.
         -5    1    3    3    0  502  0.54617027496E+02  0.10966393559E+02 -0.30853204945E+02  0.63853674409E+02  0.47000000000E+01 0. -1.
          5    1    4    4  503    0 -0.21265499489E+02  0.32265688049E+02  0.13533481297E+02  0.41213362030E+02  0.47000000000E+01 0. -1.
         -5    1    4    4    0  503  0.14987359090E+02 -0.22571701131E+02 -0.12082512627E+03  0.12391490533E+03  0.47000000000E+01 0. -1.
<mgrwt>
<rscale>  0 0.12551937E+03</rscale>
<asrwt>0</asrwt>
<pdfrwt beam="1">  1        5 0.77856421E-02 0.12552230E+03</pdfrwt>
<pdfrwt beam="2">  1       -5 0.48891146E-01 0.12552230E+03</pdfrwt>
<totfact> 0.34618320E+02</totfact>
</mgrwt>
</event>
<event>
 8    1  0.3488953E-007  0.2304861E+03  0.7546771E-02  0.1126298E+00
          5   -1    0    0  501    0  0.00000000000E+00  0.00000000000E+00  0.55907421814E+02  0.56104632731E+02  0.47000000000E+01 0.  1.
         -5   -1    0    0    0  501 -0.00000000000E+00 -0.00000000000E+00 -0.10437040068E+04  0.10437145892E+04  0.47000000000E+01 0.  1.
         25    2    1    2    0    0 -0.13799701126E+03  0.13584872368E+03 -0.66011720168E+03  0.69919851503E+03  0.12500317048E+03 0.  0.
         25    2    1    2    0    0  0.13799701126E+03 -0.13584872368E+03 -0.32767938327E+03  0.40062070691E+03  0.12500048698E+03 0.  0.
          5    1    3    3  502    0 -0.75667390216E+02  0.13864342015E+01 -0.30671588554E+03  0.31594968046E+03  0.47000000000E+01 0.  1.
         -5    1    3    3    0  502 -0.62329621045E+02  0.13446228947E+03 -0.35340131614E+03  0.38324883457E+03  0.47000000000E+01 0.  1.
          5    1    4    4  503    0 -0.50678040224E+01  0.15909638439E+02 -0.52579661782E+02  0.55367048558E+02  0.47000000000E+01 0.  1.
         -5    1    4    4    0  503  0.14306481528E+03 -0.15175836211E+03 -0.27509972149E+03  0.34525365836E+03  0.47000000000E+01 0.  1.
<mgrwt>
<rscale>  0 0.23048574E+03</rscale>
<asrwt>0</asrwt>
<pdfrwt beam="1">  1        5 0.86171267E-02 0.23048610E+03</pdfrwt>
<pdfrwt beam="2">  1       -5 0.16058582E+00 0.23048610E+03</pdfrwt>
<totfact> 0.19831322E+01</totfact>
</mgrwt>
</event>
<event>
 8    1  0.3488953E-007  0.1343705E+03  0.7546771E-02  0.1221111E+00
          5   -1    0    0  501    0  0.00000000000E+00  0.00000000000E+00  0.51013340336E+03  0.51015505410E+03  0.47000000000E+01 0. -1.
         -5   -1    0    0    0  501 -0.00000000000E+00 -0.00000000000E+00 -0.35834622616E+02  0.36141529824E+02  0.47000000000E+01 0. -1.
         25    2    1    2    0    0  0.46437924342E+02 -0.16517444375E+02  0.27290908800E+03  0.30419535326E+03  0.12500454330E+03 0.  0.
         25    2    1    2    0    0 -0.46437924342E+02  0.16517444375E+02  0.20138969274E+03  0.24210123066E+03  0.12500356299E+03 0.  0.
          5    1    4    4  502    0 -0.70935350682E+01  0.64793018417E+02  0.14012531258E+03  0.15461451000E+03  0.47000000000E+01 0.  1.
         -5    1    4    4    0  502 -0.39344389274E+02 -0.48275574042E+02  0.61264380165E+02  0.87486720669E+02  0.47000000000E+01 0.  1.
          5    1    3    3  503    0  0.59416958812E+01  0.34988706546E+02  0.21071782652E+03  0.21373723529E+03  0.47000000000E+01 0. -1.
         -5    1    3    3    0  503  0.40496228461E+02 -0.51506150921E+02  0.62191261480E+02  0.90458117970E+02  0.47000000000E+01 0. -1.
<mgrwt>
<rscale>  0 0.13437031E+03</rscale>
<asrwt>0</asrwt>
<pdfrwt beam="1">  1        5 0.78507326E-01 0.13437054E+03</pdfrwt>
<pdfrwt beam="2">  1       -5 0.55382932E-02 0.13437054E+03</pdfrwt>
<totfact> 0.22236037E+02</totfact>
</mgrwt>
</event>
<event>
 8    1  0.3488953E-007  0.1410362E+03  0.7546771E-02  0.1211944E+00
          5   -1    0    0  501    0  0.00000000000E+00  0.00000000000E+00  0.46489092973E+02  0.46726071582E+02  0.47000000000E+01 0.  1.
         -5   -1    0    0    0  501 -0.00000000000E+00 -0.00000000000E+00 -0.45610112889E+03  0.45612534437E+03  0.47000000000E+01 0.  1.
         25    2    1    2    0    0  0.60366613659E+02  0.24933561936E+02 -0.26882517474E+03  0.30357237230E+03  0.12499360022E+03 0.  0.
         25    2    1    2    0    0 -0.60366613659E+02 -0.24933561936E+02 -0.14078686118E+03  0.19927904365E+03  0.12500154560E+03 0.  0.
          5    1    3    3  502    0  0.68919254806E+02  0.32305028130E+02 -0.27800857183E+03  0.28827822418E+03  0.47000000000E+01 0.  1.
         -5    1    3    3    0  502 -0.85526411471E+01 -0.73714661939E+01  0.91833970953E+01  0.15294148118E+02  0.47000000000E+01 0.  1.
          5    1    4    4  503    0 -0.53659182897E+02 -0.63891031894E+02 -0.13539323995E+03  0.15910622644E+03  0.47000000000E+01 0. -1.
         -5    1    4    4    0  503 -0.67074307624E+01  0.38957469958E+02 -0.53936212264E+01  0.40172817213E+02  0.47000000000E+01 0. -1.
<mgrwt>
<rscale>  0 0.14103439E+03</rscale>
<asrwt>0</asrwt>
<pdfrwt beam="1">  1        5 0.71722603E-02 0.14103615E+03</pdfrwt>
<pdfrwt beam="2">  1       -5 0.70189493E-01 0.14103615E+03</pdfrwt>
<totfact> 0.18861489E+02</totfact>
</mgrwt>
</event>
<event>
 8    1  0.3488953E-007  0.1287306E+03  0.7546771E-02  0.1229362E+00
          5   -1    0    0  501    0  0.00000000000E+00  0.00000000000E+00  0.58173422073E+02  0.58362976583E+02  0.47000000000E+01 0.  1.
         -5   -1    0    0    0  501 -0.00000000000E+00 -0.00000000000E+00 -0.37359369480E+03  0.37362325784E+03  0.47000000000E+01 0.  1.
         25    2    1    2    0    0  0.98502645179E+01  0.29011015313E+02 -0.26338647421E+03  0.29316207126E+03  0.12503159004E+03 0.  0.
         25    2    1    2    0    0 -0.98502645179E+01 -0.29011015313E+02 -0.52033798514E+02  0.13882416316E+03  0.12500386141E+03 0.  0.
          5    1    3    3  502    0 -0.15710117845E+02  0.56347730720E+02 -0.24359835507E+03  0.25056760196E+03  0.47000000000E+01 0.  1.
         -5    1    3    3    0  502  0.25560382363E+02 -0.27336715408E+02 -0.19788119146E+02  0.42594469302E+02  0.47000000000E+01 0.  1.
          5    1    4    4  503    0  0.42741866858E+02  0.24676522425E+02 -0.37428191347E+02  0.62118897680E+02  0.47000000000E+01 0.  1.
         -5    1    4    4    0  503 -0.52592131375E+02 -0.53687537737E+02 -0.14605607167E+02  0.76705265475E+02  0.47000000000E+01 0.  1.
<mgrwt>
<rscale>  0 0.12872386E+03</rscale>
<asrwt>0</asrwt>
<pdfrwt beam="1">  1        5 0.89666127E-02 0.12873059E+03</pdfrwt>
<pdfrwt beam="2">  1       -5 0.57492807E-01 0.12873059E+03</pdfrwt>
<totfact> 0.19385064E+02</totfact>
</mgrwt>
</event>
<event>
 8    1  0.3488953E-007  0.1846734E+03  0.7546771E-02  0.1163356E+00
          5   -1    0    0  501    0  0.00000000000E+00  0.00000000000E+00  0.34486013370E+03  0.34489215969E+03  0.47000000000E+01 0. -1.
         -5   -1    0    0    0  501 -0.00000000000E+00 -0.00000000000E+00 -0.11656142015E+03  0.11665613858E+03  0.47000000000E+01 0. -1.
         25    2    1    2    0    0 -0.23541801656E+02  0.13388335198E+03  0.24116716990E+02  0.18624149447E+03  0.12500123943E+03 0.  0.
         25    2    1    2    0    0  0.23541801656E+02 -0.13388335198E+03  0.20418199656E+03  0.27530680381E+03  0.12499832055E+03 0.  0.
          5    1    3    3  502    0  0.14956773233E+02  0.14318931084E+03  0.25723765674E+02  0.14632390756E+03  0.47000000000E+01 0.  1.
         -5    1    3    3    0  502 -0.38498574889E+02 -0.93059588570E+01 -0.16070486839E+01  0.39917586903E+02  0.47000000000E+01 0.  1.
          5    1    4    4  503    0  0.20224734433E+02  0.18479690697E+02  0.56854775817E+02  0.63285815033E+02  0.47000000000E+01 0. -1.
         -5    1    4    4    0  503  0.33170672222E+01 -0.15236304268E+03  0.14732722074E+03  0.21202098877E+03  0.47000000000E+01 0. -1.
<mgrwt>
<rscale>  0 0.18467294E+03</rscale>
<asrwt>0</asrwt>
<pdfrwt beam="1">  1        5 0.53065154E-01 0.18467344E+03</pdfrwt>
<pdfrwt beam="2">  1       -5 0.17942276E-01 0.18467344E+03</pdfrwt>
<totfact> 0.74721323E+01</totfact>
</mgrwt>
</event>
<event>
 8    1  0.3488953E-007  0.1643725E+03  0.7546771E-02  0.1183849E+00
          5   -1    0    0  501    0  0.00000000000E+00  0.00000000000E+00  0.61032535373E+02  0.61213236918E+02  0.47000000000E+01 0. -1.
         -5   -1    0    0    0  501 -0.00000000000E+00 -0.00000000000E+00 -0.48668944535E+03  0.48671213896E+03  0.47000000000E+01 0. -1.
         25    2    1    2    0    0 -0.49707228288E+02 -0.94458566225E+02 -0.29599297593E+03  0.33856672158E+03  0.12498941511E+03 0.  0.
         25    2    1    2    0    0  0.49707228288E+02  0.94458566225E+02 -0.12966393405E+03  0.20935865430E+03  0.12500032423E+03 0.  0.
          5    1    3    3  502    0 -0.46377509081E+02  0.12044691014E+02 -0.15153686279E+03  0.15900144250E+03  0.47000000000E+01 0. -1.
         -5    1    3    3    0  502 -0.33297192078E+01 -0.10650325724E+03 -0.14445611313E+03  0.17956527909E+03  0.47000000000E+01 0. -1.
          5    1    4    4  503    0 -0.16889237490E+02  0.13705740846E+02  0.17775957355E+02  0.28481017100E+02  0.47000000000E+01 0. -1.
         -5    1    4    4    0  503  0.66596465779E+02  0.80752825378E+02 -0.14743989140E+03  0.18087763720E+03  0.47000000000E+01 0. -1.
<mgrwt>
<rscale>  0 0.16437040E+03</rscale>
<asrwt>0</asrwt>
<pdfrwt beam="1">  1        5 0.94052669E-02 0.16437247E+03</pdfrwt>
<pdfrwt beam="2">  1       -5 0.74890942E-01 0.16437247E+03</pdfrwt>
<totfact> 0.10716438E+02</totfact>
</mgrwt>
</event>
<event>
 8    1  0.3488953E-007  0.1272856E+03  0.7546771E-02  0.1231544E+00
          5   -1    0    0  501    0  0.00000000000E+00  0.00000000000E+00  0.35115750630E+02  0.35428885705E+02  0.47000000000E+01 0.  1.
         -5   -1    0    0    0  501 -0.00000000000E+00 -0.00000000000E+00 -0.48202492065E+03  0.48204783386E+03  0.47000000000E+01 0.  1.
         25    2    1    2    0    0  0.16709432556E+02 -0.17226775685E+02 -0.28003730493E+03  0.30760771910E+03  0.12500259903E+03 0.  0.
         25    2    1    2    0    0 -0.16709432556E+02  0.17226775685E+02 -0.16687186509E+03  0.20986900046E+03  0.12499124392E+03 0.  0.
          5    1    3    3  502    0  0.36589850504E+02  0.31416687733E+02 -0.22946449798E+03  0.23452477750E+03  0.47000000000E+01 0. -1.
         -5    1    3    3    0  502 -0.19880417948E+02 -0.48643463417E+02 -0.50572806944E+02  0.73082941602E+02  0.47000000000E+01 0. -1.
          5    1    4    4  503    0 -0.67627242413E+02 -0.88529208572E+01 -0.10658213434E+03  0.12662408730E+03  0.47000000000E+01 0.  1.
         -5    1    4    4    0  503  0.50917809857E+02  0.26079696542E+02 -0.60289730751E+02  0.83244913156E+02  0.47000000000E+01 0.  1.
<mgrwt>
<rscale>  0 0.12728278E+03</rscale>
<asrwt>0</asrwt>
<pdfrwt beam="1">  1        5 0.54282734E-02 0.12728557E+03</pdfrwt>
<pdfrwt beam="2">  1       -5 0.74183525E-01 0.12728557E+03</pdfrwt>
<totfact> 0.25682613E+02</totfact>
</mgrwt>
</event>
<event>
 8    1  0.3488953E-007  0.1476597E+03  0.7546771E-02  0.1203381E+00
         -5   -1    0    0    0  501 -0.00000000000E+00  0.00000000000E+00  0.25069242622E+02  0.25506017439E+02  0.47000000000E+01 0.  1.
          5   -1    0    0  501    0  0.00000000000E+00 -0.00000000000E+00 -0.89757924391E+03  0.89759154915E+03  0.47000000000E+01 0.  1.
         25    2    1    2    0    0  0.75900906247E+02 -0.20370015364E+02 -0.34403869582E+03  0.37438753360E+03  0.12501006361E+03 0.  0.
         25    2    1    2    0    0 -0.75900906247E+02  0.20370015364E+02 -0.52847130547E+03  0.54871003298E+03  0.12499957797E+03 0.  0.
          5    1    4    4  502    0 -0.34043868302E+02  0.54982460175E+02 -0.11805771191E+03  0.13469138517E+03  0.47000000000E+01 0.  1.
         -5    1    4    4    0  502 -0.41857037945E+02 -0.34612444811E+02 -0.41041359356E+03  0.41401864782E+03  0.47000000000E+01 0.  1.
          5    1    3    3  503    0 -0.31063752443E+02 -0.18347383089E+01 -0.36375798631E+02  0.48100017739E+02  0.47000000000E+01 0.  1.
         -5    1    3    3    0  503  0.10696465869E+03 -0.18535277055E+02 -0.30766289719E+03  0.32628751586E+03  0.47000000000E+01 0.  1.
<mgrwt>
<rscale>  0 0.14765753E+03</rscale>
<asrwt>0</asrwt>
<pdfrwt beam="2">  1        5 0.13812364E+00 0.14765975E+03</pdfrwt>
<pdfrwt beam="1">  1       -5 0.38913519E-02 0.14765975E+03</pdfrwt>
<totfact> 0.10216558E+02</totfact>
</mgrwt>
</event>
<event>
 8    1  0.3488953E-007  0.1282719E+03  0.7546771E-02  0.1230047E+00
          5   -1    0    0  501    0  0.00000000000E+00  0.00000000000E+00  0.83574119271E+03  0.83575440842E+03  0.47000000000E+01 0. -1.
         -5   -1    0    0    0  501 -0.00000000000E+00 -0.00000000000E+00 -0.19707089193E+02  0.20259796752E+02  0.47000000000E+01 0. -1.
         25    2    1    2    0    0 -0.12278075385E+02 -0.25973984136E+02  0.35461566432E+03  0.37709807070E+03  0.12500114623E+03 0.  0.
         25    2    1    2    0    0  0.12278075385E+02  0.25973984136E+02  0.46141843920E+03  0.47891613447E+03  0.12501315465E+03 0.  0.
          5    1    3    3  502    0 -0.51939011999E+02 -0.46293443999E+02  0.29129560364E+03  0.29952623028E+03  0.47000000000E+01 0.  1.
         -5    1    3    3    0  502  0.39660936613E+02  0.20319459863E+02  0.63320060672E+02  0.77571840417E+02  0.47000000000E+01 0.  1.
          5    1    4    4  503    0  0.59826767412E+02  0.69015373439E+01  0.36169254281E+03  0.36670213913E+03  0.47000000000E+01 0. -1.
         -5    1    4    4    0  503 -0.47548692027E+02  0.19072446792E+02  0.99725896390E+02  0.11221399534E+03  0.47000000000E+01 0. -1.
<mgrwt>
<rscale>  0 0.12826900E+03</rscale>
<asrwt>0</asrwt>
<pdfrwt beam="1">  1        5 0.12861906E+00 0.12827193E+03</pdfrwt>
<pdfrwt beam="2">  1       -5 0.30753935E-02 0.12827193E+03</pdfrwt>
<totfact> 0.17263567E+02</totfact>
</mgrwt>
</event>
<event>
 8    1  0.3488953E-007  0.1362020E+03  0.7546771E-02  0.1218535E+00
          5   -1    0    0  501    0  0.00000000000E+00  0.00000000000E+00  0.60310508049E+01  0.76461476452E+01  0.47000000000E+01 0. -1.
         -5   -1    0    0    0  501 -0.00000000000E+00 -0.00000000000E+00 -0.29673962424E+04  0.29673999645E+04  0.47000000000E+01 0. -1.
         25    2    1    2    0    0  0.36146276126E+02  0.40201191365E+02 -0.19178358770E+04  0.19226657616E+04  0.12500596179E+03 0.  0.
         25    2    1    2    0    0 -0.36146276126E+02 -0.40201191365E+02 -0.10435293146E+04  0.10523803506E+04  0.12501313074E+03 0.  0.
          5    1    3    3  502    0  0.23179147820E+02  0.83079527196E+02 -0.14801373783E+04  0.14826558027E+04  0.47000000000E+01 0.  1.
         -5    1    3    3    0  502  0.12967128306E+02 -0.42878335831E+02 -0.43769849878E+03  0.44000995891E+03  0.47000000000E+01 0.  1.
          5    1    4    4  503    0 -0.48060495051E+02 -0.26518591580E+02 -0.10233815143E+04  0.10248633376E+04  0.47000000000E+01 0.  1.
         -5    1    4    4    0  503  0.11914218925E+02 -0.13682599785E+02 -0.20147800279E+02  0.27517013020E+02  0.47000000000E+01 0.  1.
<mgrwt>
<rscale>  0 0.13620031E+03</rscale>
<asrwt>0</asrwt>
<pdfrwt beam="1">  1        5 0.10523809E-02 0.13620195E+03</pdfrwt>
<pdfrwt beam="2">  1       -5 0.45664600E+00 0.13620195E+03</pdfrwt>
<totfact> 0.53532216E+00</totfact>
</mgrwt>
</event>
<event>
 8    1  0.3488953E-007  0.1337234E+03  0.7546771E-02  0.1222036E+00
         -5   -1    0    0    0  501 -0.00000000000E+00  0.00000000000E+00  0.68858200909E+03  0.68859804911E+03  0.47000000000E+01 0.  1.
          5   -1    0    0  501    0  0.00000000000E+00 -0.00000000000E+00 -0.25739072417E+02  0.26164667949E+02  0.47000000000E+01 0.  1.
         25    2    1    2    0    0 -0.47443946071E+02 -0.13837772637E+01  0.33327880751E+03  0.35910212199E+03  0.12500691030E+03 0.  0.
         25    2    1    2    0    0  0.47443946071E+02  0.13837772637E+01  0.32956412917E+03  0.35566059507E+03  0.12501640211E+03 0.  0.
          5    1    4    4  502    0  0.62186787125E+02  0.31387119180E+02  0.30751117890E+03  0.31533722091E+03  0.47000000000E+01 0. -1.
         -5    1    4    4    0  502 -0.14742841054E+02 -0.30003341916E+02  0.22052950266E+02  0.40323374163E+02  0.47000000000E+01 0. -1.
          5    1    3    3  503    0 -0.19135135639E+01  0.49617973893E+02  0.63449536610E+02  0.80706496414E+02  0.47000000000E+01 0.  1.
         -5    1    3    3    0  503 -0.45530432507E+02 -0.51001751157E+02  0.26982927089E+03  0.27839562557E+03  0.47000000000E+01 0.  1.
<mgrwt>
<rscale>  0 0.13372117E+03</rscale>
<asrwt>0</asrwt>
<pdfrwt beam="2">  1        5 0.39938296E-02 0.13372338E+03</pdfrwt>
<pdfrwt beam="1">  1       -5 0.10596966E+00 0.13372338E+03</pdfrwt>
<totfact> 0.18666761E+02</totfact>
</mgrwt>
</event>
<event>
 8    1  0.3488953E-007  0.1471720E+03  0.7546771E-02  0.1203995E+00
          5   -1    0    0  501    0  0.00000000000E+00  0.00000000000E+00  0.72286947372E+03  0.72288475294E+03  0.47000000000E+01 0.  1.
         -5   -1    0    0    0  501 -0.00000000000E+00 -0.00000000000E+00 -0.29776465008E+02  0.30145113507E+02  0.47000000000E+01 0.  1.
         25    2    1    2    0    0 -0.13280053556E+02  0.76519715946E+02  0.35510653569E+03  0.38439594313E+03  0.12501185004E+03 0.  0.
         25    2    1    2    0    0  0.13280053556E+02 -0.76519715946E+02  0.33798647302E+03  0.36863392332E+03  0.12499794689E+03 0.  0.
          5    1    4    4  502    0  0.67675061988E+02 -0.58751644617E+02  0.20536078665E+03  0.22411339195E+03  0.47000000000E+01 0. -1.
         -5    1    4    4    0  502 -0.54395008432E+02 -0.17768071330E+02  0.13262568637E+03  0.14452053137E+03  0.47000000000E+01 0. -1.
          5    1    3    3  503    0  0.54369857983E+02  0.51007070193E+02  0.17710229364E+03  0.19221112111E+03  0.47000000000E+01 0.  1.
         -5    1    3    3    0  503 -0.67649911539E+02  0.25512645753E+02  0.17800424205E+03  0.19218482202E+03  0.47000000000E+01 0.  1.
<mgrwt>
<rscale>  0 0.14716902E+03</rscale>
<asrwt>0</asrwt>
<pdfrwt beam="1">  1        5 0.11124023E+00 0.14717197E+03</pdfrwt>
<pdfrwt beam="2">  1       -5 0.46105273E-02 0.14717197E+03</pdfrwt>
<totfact> 0.13472870E+02</totfact>
</mgrwt>
</event>
<event>
 8    1  0.3488953E-007  0.1614398E+03  0.7546771E-02  0.1187093E+00
          5   -1    0    0  501    0  0.00000000000E+00  0.00000000000E+00  0.31389601700E+03  0.31393120184E+03  0.47000000000E+01 0. -1.
         -5   -1    0    0    0  501 -0.00000000000E+00 -0.00000000000E+00 -0.85610402585E+02  0.85739320214E+02  0.47000000000E+01 0. -1.
         25    2    1    2    0    0 -0.83354708972E+02  0.59004696471E+02  0.78615799335E+02  0.17952541704E+03  0.12497747695E+03 0.  0.
         25    2    1    2    0    0  0.83354708972E+02 -0.59004696471E+02  0.14966981508E+03  0.22014510501E+03  0.12503300365E+03 0.  0.
          5    1    4    4  502    0  0.47543586452E+02 -0.47774526161E+02  0.18780661333E+01  0.67590051746E+02  0.47000000000E+01 0. -1.
         -5    1    4    4    0  502  0.35811122520E+02 -0.11230170310E+02  0.14779174894E+03  0.15255505327E+03  0.47000000000E+01 0. -1.
          5    1    3    3  503    0 -0.75838005378E+02  0.95559165680E+02  0.70725439204E+02  0.14109264671E+03  0.47000000000E+01 0.  1.
         -5    1    3    3    0  503 -0.75167035934E+01 -0.36554469209E+02  0.78903601304E+01  0.38432770328E+02  0.47000000000E+01 0.  1.
<mgrwt>
<rscale>  0 0.16142906E+03</rscale>
<asrwt>0</asrwt>
<pdfrwt beam="1">  1        5 0.48304318E-01 0.16143981E+03</pdfrwt>
<pdfrwt beam="2">  1       -5 0.13183454E-01 0.16143981E+03</pdfrwt>
<totfact> 0.15392904E+02</totfact>
</mgrwt>
</event>
<event>
 8    1  0.3488953E-007  0.1311102E+03  0.7546771E-02  0.1225820E+00
         -5   -1    0    0    0  501 -0.00000000000E+00  0.00000000000E+00  0.46712697435E+03  0.46715061829E+03  0.47000000000E+01 0. -1.
          5   -1    0    0  501    0  0.00000000000E+00 -0.00000000000E+00 -0.45940837070E+02  0.46180629172E+02  0.47000000000E+01 0. -1.
         25    2    1    2    0    0 -0.29253929188E+02 -0.26634737215E+02  0.32581404040E+03  0.35120256234E+03  0.12499299689E+03 0.  0.
         25    2    1    2    0    0  0.29253929188E+02  0.26634737215E+02  0.95372096886E+02  0.16212868513E+03  0.12499868830E+03 0.  0.
          5    1    3    3  502    0  0.23559602369E+02 -0.31484631527E+02  0.27420959967E+03  0.27705474448E+03  0.47000000000E+01 0. -1.
         -5    1    3    3    0  502 -0.52813531557E+02  0.48498943123E+01  0.51604440724E+02  0.74147817855E+02  0.47000000000E+01 0. -1.
          5    1    4    4  503    0 -0.16132926018E+02 -0.14986677989E+02 -0.20740381763E+02  0.30612501608E+02  0.47000000000E+01 0.  1.
         -5    1    4    4    0  503  0.45386855206E+02  0.41621415204E+02  0.11611247865E+03  0.13151618352E+03  0.47000000000E+01 0.  1.
<mgrwt>
<rscale>  0 0.13110880E+03</rscale>
<asrwt>0</asrwt>
<pdfrwt beam="2">  1        5 0.70880857E-02 0.13111016E+03</pdfrwt>
<pdfrwt beam="1">  1       -5 0.71885950E-01 0.13111016E+03</pdfrwt>
<totfact> 0.17793755E+02</totfact>
</mgrwt>
</event>
<event>
 8    1  0.3488953E-007  0.1541067E+03  0.7546771E-02  0.1195517E+00
          5   -1    0    0  501    0  0.00000000000E+00  0.00000000000E+00  0.16048917156E+02  0.16722970486E+02  0.47000000000E+01 0. -1.
         -5   -1    0    0    0  501 -0.00000000000E+00 -0.00000000000E+00 -0.17605166423E+04  0.17605229160E+04  0.47000000000E+01 0. -1.
         25    2    1    2    0    0  0.40659488429E+02 -0.80434962134E+02 -0.12461995957E+04  0.12556919580E+04  0.12500353508E+03 0.  0.
         25    2    1    2    0    0 -0.40659488429E+02  0.80434962134E+02 -0.49826812941E+03  0.52155392852E+03  0.12499757775E+03 0.  0.
          5    1    3    3  502    0 -0.27682912049E+02 -0.29141381490E+02 -0.12851649767E+03  0.13473731446E+03  0.47000000000E+01 0. -1.
         -5    1    3    3    0  502  0.68342400478E+02 -0.51293580644E+02 -0.11176830981E+04  0.11209546435E+04  0.47000000000E+01 0. -1.
          5    1    4    4  503    0 -0.60238041413E+02  0.38693319867E+02 -0.44585139811E+03  0.45158759265E+03  0.47000000000E+01 0.  1.
         -5    1    4    4    0  503  0.19578552985E+02  0.41741642267E+02 -0.52416731294E+02  0.69966335874E+02  0.47000000000E+01 0.  1.
<mgrwt>
<rscale>  0 0.15410545E+03</rscale>
<asrwt>0</asrwt>
<pdfrwt beam="1">  1        5 0.25213984E-02 0.15410665E+03</pdfrwt>
<pdfrwt beam="2">  1       -5 0.27090090E+00 0.15410665E+03</pdfrwt>
<totfact> 0.25202071E+01</totfact>
</mgrwt>
</event>
<event>
 8    1  0.3488953E-007  0.1342029E+03  0.7546771E-02  0.1221352E+00
         -5   -1    0    0    0  501 -0.00000000000E+00  0.00000000000E+00  0.88276558408E+01  0.10000875344E+02  0.47000000000E+01 0. -1.
          5   -1    0    0  501    0  0.00000000000E+00 -0.00000000000E+00 -0.19415572215E+04  0.19415629103E+04  0.47000000000E+01 0. -1.
         25    2    1    2    0    0  0.12414258721E+02 -0.47237066665E+02 -0.10871038388E+04  0.10953551091E+04  0.12499041730E+03 0.  0.
         25    2    1    2    0    0 -0.12414258721E+02  0.47237066665E+02 -0.84562572689E+03  0.85620867650E+03  0.12499989377E+03 0.  0.
          5    1    4    4  502    0  0.14942645593E+02 -0.32348560991E+02 -0.10891859204E+03  0.11469551755E+03  0.47000000000E+01 0. -1.
         -5    1    4    4    0  502 -0.27356904314E+02  0.79585627656E+02 -0.73670713486E+03  0.74151315895E+03  0.47000000000E+01 0. -1.
          5    1    3    3  503    0  0.21433175480E+00  0.40523868897E+02 -0.48991027082E+03  0.49160593298E+03  0.47000000000E+01 0.  1.
         -5    1    3    3    0  503  0.12199926966E+02 -0.87760935562E+02 -0.59719356798E+03  0.60374917612E+03  0.47000000000E+01 0.  1.
<mgrwt>
<rscale>  0 0.13420073E+03</rscale>
<asrwt>0</asrwt>
<pdfrwt beam="2">  1        5 0.29879148E+00 0.13420293E+03</pdfrwt>
<pdfrwt beam="1">  1       -5 0.14487877E-02 0.13420293E+03</pdfrwt>
<totfact> 0.39077000E+01</totfact>
</mgrwt>
</event>
<event>
 8    1  0.3488953E-007  0.1479488E+03  0.7546771E-02  0.1203017E+00
          5   -1    0    0  501    0  0.00000000000E+00  0.00000000000E+00  0.52425992864E+03  0.52428099601E+03  0.47000000000E+01 0.  1.
         -5   -1    0    0    0  501 -0.00000000000E+00 -0.00000000000E+00 -0.44876868329E+02  0.45122315000E+02  0.47000000000E+01 0.  1.
         25    2    1    2    0    0  0.26698606776E+02 -0.74503411660E+02  0.16296349643E+03  0.22010437303E+03  0.12500103961E+03 0.  0.
         25    2    1    2    0    0 -0.26698606776E+02  0.74503411660E+02  0.31641956387E+03  0.34929893798E+03  0.12499933487E+03 0.  0.
          5    1    4    4  502    0 -0.59788093638E+02 -0.35761863492E+01  0.98029389558E+02  0.11497502540E+03  0.47000000000E+01 0. -1.
         -5    1    4    4    0  502  0.33089486862E+02  0.78079598009E+02  0.21839017432E+03  0.23432391257E+03  0.47000000000E+01 0. -1.
          5    1    3    3  503    0 -0.10662637201E+02  0.30844553470E+02  0.57897336964E+02  0.66627846568E+02  0.47000000000E+01 0. -1.
         -5    1    3    3    0  503  0.37361243977E+02 -0.10534796513E+03  0.10506615947E+03  0.15347652646E+03  0.47000000000E+01 0. -1.
<mgrwt>
<rscale>  0 0.14794839E+03</rscale>
<asrwt>0</asrwt>
<pdfrwt beam="1">  1        5 0.80675875E-01 0.14794875E+03</pdfrwt>
<pdfrwt beam="2">  1       -5 0.69246346E-02 0.14794875E+03</pdfrwt>
<totfact> 0.14789929E+02</totfact>
</mgrwt>
</event>
<event>
 8    1  0.3488953E-007  0.1394012E+03  0.7546771E-02  0.1214149E+00
          5   -1    0    0  501    0  0.00000000000E+00  0.00000000000E+00  0.26417642946E+03  0.26421823533E+03  0.47000000000E+01 0.  1.
         -5   -1    0    0    0  501 -0.00000000000E+00 -0.00000000000E+00 -0.77818110104E+02  0.77959914444E+02  0.47000000000E+01 0.  1.
         25    2    1    2    0    0 -0.21932965029E+02  0.57588984330E+02  0.52532788661E+02  0.14893744700E+03  0.12500049265E+03 0.  0.
         25    2    1    2    0    0  0.21932965029E+02 -0.57588984330E+02  0.13382553069E+03  0.19324070277E+03  0.12504059530E+03 0.  0.
          5    1    4    4  502    0 -0.21462536739E+02 -0.35161967804E+02 -0.88201329229E+01  0.42389729981E+02  0.47000000000E+01 0.  1.
         -5    1    4    4    0  502  0.43395501768E+02 -0.22427016526E+02  0.14264566362E+03  0.15085097279E+03  0.47000000000E+01 0.  1.
          5    1    3    3  503    0  0.30232166077E+02  0.77486755448E+02  0.29935826522E+02  0.88523583553E+02  0.47000000000E+01 0. -1.
         -5    1    3    3    0  503 -0.52165131106E+02 -0.19897771118E+02  0.22596962139E+02  0.60413863447E+02  0.47000000000E+01 0. -1.
<mgrwt>
<rscale>  0 0.13939221E+03</rscale>
<asrwt>0</asrwt>
<pdfrwt beam="1">  1        5 0.40656652E-01 0.13940121E+03</pdfrwt>
<pdfrwt beam="2">  1       -5 0.11986141E-01 0.13940121E+03</pdfrwt>
<totfact> 0.24887221E+02</totfact>
</mgrwt>
</event>
<event>
 8    1  0.3488953E-007  0.1455463E+03  0.7546771E-02  0.1206055E+00
          5   -1    0    0  501    0  0.00000000000E+00  0.00000000000E+00  0.78869348744E+03  0.78870749148E+03  0.47000000000E+01 0.  1.
         -5   -1    0    0    0  501 -0.00000000000E+00 -0.00000000000E+00 -0.64287402372E+02  0.64458980009E+02  0.47000000000E+01 0. -1.
         25    2    1    2    0    0 -0.22780859488E+02  0.70989194635E+02  0.36528663812E+02  0.15005973919E+03  0.12500059492E+03 0.  0.
         25    2    1    2    0    0  0.22780859488E+02 -0.70989194635E+02  0.68787742125E+03  0.70310673231E+03  0.12500118813E+03 0.  0.
          5    1    4    4  502    0 -0.48035982346E+02 -0.19650599392E+02  0.35906395106E+03  0.36282587092E+03  0.47000000000E+01 0.  1.
         -5    1    4    4    0  502  0.70816841833E+02 -0.51338595243E+02  0.32881347019E+03  0.34028086139E+03  0.47000000000E+01 0.  1.
          5    1    3    3  503    0  0.36834676268E+02  0.69805734730E+02 -0.16788791984E+01  0.79085666288E+02  0.47000000000E+01 0.  1.
         -5    1    3    3    0  503 -0.59615535755E+02  0.11834599052E+01  0.38207543011E+02  0.70974072897E+02  0.47000000000E+01 0.  1.
<mgrwt>
<rscale>  0 0.14554619E+03</rscale>
<asrwt>0</asrwt>
<pdfrwt beam="1">  1        5 0.12135173E+00 0.14554632E+03</pdfrwt>
<pdfrwt beam="2">  1       -5 0.99046452E-02 0.14554632E+03</pdfrwt>
<totfact> 0.29444196E+01</totfact>
</mgrwt>
</event>
<event>
 8    1  0.3488953E-007  0.1927204E+03  0.7546771E-02  0.1156032E+00
         -5   -1    0    0    0  501 -0.00000000000E+00  0.00000000000E+00  0.56062919847E+03  0.56064889920E+03  0.47000000000E+01 0.  1.
          5   -1    0    0  501    0  0.00000000000E+00 -0.00000000000E+00 -0.11488906838E+03  0.11498516440E+03  0.47000000000E+01 0.  1.
         25    2    1    2    0    0 -0.85742697653E+02 -0.11901196083E+03  0.44277297765E+03  0.48289651902E+03  0.12500192529E+03 0.  0.
         25    2    1    2    0    0  0.85742697653E+02  0.11901196083E+03  0.29671524426E+01  0.19273754458E+03  0.12499320012E+03 0.  0.
          5    1    3    3  502    0 -0.27957874823E+02  0.16625769339E+02  0.16647707662E+03  0.16969020600E+03  0.47000000000E+01 0. -1.
         -5    1    3    3    0  502 -0.57784822830E+02 -0.13563773017E+03  0.27629590103E+03  0.31320631303E+03  0.47000000000E+01 0. -1.
          5    1    4    4  503    0  0.10073486484E+03  0.34414991226E+02 -0.16823851685E+01  0.10656840543E+03  0.47000000000E+01 0. -1.
         -5    1    4    4    0  503 -0.14992167187E+02  0.84596969602E+02  0.46495376111E+01  0.86169139156E+02  0.47000000000E+01 0. -1.
<mgrwt>
<rscale>  0 0.19271895E+03</rscale>
<asrwt>0</asrwt>
<pdfrwt beam="2">  1        5 0.17684149E-01 0.19272036E+03</pdfrwt>
<pdfrwt beam="1">  1       -5 0.86259554E-01 0.19272036E+03</pdfrwt>
<totfact> 0.25967065E+01</totfact>
</mgrwt>
</event>
<event>
 8    1  0.3488953E-007  0.1322647E+03  0.7546771E-02  0.1224135E+00
         -5   -1    0    0    0  501 -0.00000000000E+00  0.00000000000E+00  0.50260628854E+02  0.50479905040E+02  0.47000000000E+01 0.  1.
          5   -1    0    0  501    0  0.00000000000E+00 -0.00000000000E+00 -0.35124550025E+03  0.35127694409E+03  0.47000000000E+01 0.  1.
         25    2    1    2    0    0  0.40971190894E+02 -0.13748623156E+02 -0.12857271898E+03  0.18445836681E+03  0.12500512749E+03 0.  0.
         25    2    1    2    0    0 -0.40971190894E+02  0.13748623156E+02 -0.17241215242E+03  0.21729848232E+03  0.12500006797E+03 0.  0.
          5    1    3    3  502    0  0.23505533046E+02 -0.42758533072E+02  0.24191478322E+01  0.49078961995E+02  0.47000000000E+01 0.  1.
         -5    1    3    3    0  502  0.17465657848E+02  0.29009909917E+02 -0.13099186681E+03  0.13537940482E+03  0.47000000000E+01 0.  1.
          5    1    4    4  503    0 -0.62512662310E+02  0.52462971705E+02 -0.78403194094E+02  0.11326670823E+03  0.47000000000E+01 0. -1.
         -5    1    4    4    0  503  0.21541471416E+02 -0.38714348549E+02 -0.94008958322E+02  0.10403177408E+03  0.47000000000E+01 0. -1.
<mgrwt>
<rscale>  0 0.13226348E+03</rscale>
<asrwt>0</asrwt>
<pdfrwt beam="2">  1        5 0.54057054E-01 0.13226468E+03</pdfrwt>
<pdfrwt beam="1">  1       -5 0.77516908E-02 0.13226468E+03</pdfrwt>
<totfact> 0.28711613E+02</totfact>
</mgrwt>
</event>
<event>
 8    1  0.3488953E-007  0.1278725E+03  0.7546771E-02  0.1230658E+00
         -5   -1    0    0    0  501 -0.00000000000E+00  0.00000000000E+00  0.50841854424E+03  0.50844026801E+03  0.47000000000E+01 0.  1.
          5   -1    0    0  501    0  0.00000000000E+00 -0.00000000000E+00 -0.33425549932E+02  0.33754368432E+02  0.47000000000E+01 0.  1.
         25    2    1    2    0    0  0.25815850218E+02 -0.78103981768E+01  0.18099448617E+03  0.22159128726E+03  0.12496493158E+03 0.  0.
         25    2    1    2    0    0 -0.25815850218E+02  0.78103981768E+01  0.29399850814E+03  0.32060334918E+03  0.12499569702E+03 0.  0.
          5    1    4    4  502    0 -0.50399700885E+02 -0.35144082888E+02  0.23741759516E+03  0.24528440820E+03  0.47000000000E+01 0. -1.
         -5    1    4    4    0  502  0.24583850667E+02  0.42954481065E+02  0.56580912979E+02  0.75318940983E+02  0.47000000000E+01 0. -1.
          5    1    3    3  503    0  0.59816371899E+02  0.36915858611E+02  0.11423366041E+03  0.13420953071E+03  0.47000000000E+01 0.  1.
         -5    1    3    3    0  503 -0.34000521681E+02 -0.44726256787E+02  0.66760825763E+02  0.87381756548E+02  0.47000000000E+01 0.  1.
<mgrwt>
<rscale>  0 0.12786501E+03</rscale>
<asrwt>0</asrwt>
<pdfrwt beam="2">  1        5 0.51693574E-02 0.12787253E+03</pdfrwt>
<pdfrwt beam="1">  1       -5 0.78245197E-01 0.12787253E+03</pdfrwt>
<totfact> 0.24702826E+02</totfact>
</mgrwt>
</event>
<event>
 8    1  0.3488953E-007  0.1304584E+03  0.7546771E-02  0.1226784E+00
          5   -1    0    0  501    0  0.00000000000E+00  0.00000000000E+00  0.44001564539E+03  0.44004074606E+03  0.47000000000E+01 0. -1.
         -5   -1    0    0    0  501 -0.00000000000E+00 -0.00000000000E+00 -0.41782112577E+02  0.42045629159E+02  0.47000000000E+01 0. -1.
         25    2    1    2    0    0  0.35896896421E+02 -0.10299897861E+02  0.13183648497E+03  0.18546071185E+03  0.12498056570E+03 0.  0.
         25    2    1    2    0    0 -0.35896896421E+02  0.10299897861E+02  0.26639704784E+03  0.29662566336E+03  0.12499888798E+03 0.  0.
          5    1    3    3  502    0  0.33141573022E+02 -0.65217262399E+02  0.90749444481E+02  0.11665850527E+03  0.47000000000E+01 0. -1.
         -5    1    3    3    0  502  0.27553233989E+01  0.54917364538E+02  0.41087040490E+02  0.68802206586E+02  0.47000000000E+01 0. -1.
          5    1    4    4  503    0  0.26393090766E+01  0.15685992612E+02 -0.87144962982E+01  0.18736295321E+02  0.47000000000E+01 0.  1.
         -5    1    4    4    0  503 -0.38536205498E+02 -0.53860947513E+01  0.27511154414E+03  0.27788936804E+03  0.47000000000E+01 0.  1.
<mgrwt>
<rscale>  0 0.13045402E+03</rscale>
<asrwt>0</asrwt>
<pdfrwt beam="1">  1        5 0.67716918E-01 0.13045841E+03</pdfrwt>
<pdfrwt beam="2">  1       -5 0.64502185E-02 0.13045841E+03</pdfrwt>
<totfact> 0.23832746E+02</totfact>
</mgrwt>
</event>
<event>
 8    1  0.3488953E-007  0.1310062E+03  0.7546771E-02  0.1225977E+00
          5   -1    0    0  501    0  0.00000000000E+00  0.00000000000E+00  0.45440197315E+02  0.45682617395E+02  0.47000000000E+01 0. -1.
         -5   -1    0    0    0  501 -0.00000000000E+00 -0.00000000000E+00 -0.37688316974E+03  0.37691247476E+03  0.47000000000E+01 0. -1.
         25    2    1    2    0    0 -0.19969076091E+02  0.33670491930E+02 -0.17345538846E+03  0.21736926666E+03  0.12502063940E+03 0.  0.
         25    2    1    2    0    0  0.19969076091E+02 -0.33670491930E+02 -0.15798758396E+03  0.20522582550E+03  0.12500038695E+03 0.  0.
          5    1    4    4  502    0 -0.40404817780E+02 -0.25042015109E+02 -0.12895418397E+03  0.13751699307E+03  0.47000000000E+01 0.  1.
         -5    1    4    4    0  502  0.60373893871E+02 -0.86284768212E+01 -0.29033399997E+02  0.67708832428E+02  0.47000000000E+01 0.  1.
          5    1    3    3  503    0 -0.36147776213E+02 -0.88147949640E+01  0.50415771402E+00  0.37506086311E+02  0.47000000000E+01 0.  1.
         -5    1    3    3    0  503  0.16178700122E+02  0.42485286894E+02 -0.17395954617E+03  0.17986318035E+03  0.47000000000E+01 0.  1.
<mgrwt>
<rscale>  0 0.13100138E+03</rscale>
<asrwt>0</asrwt>
<pdfrwt beam="1">  1        5 0.70117018E-02 0.13100621E+03</pdfrwt>
<pdfrwt beam="2">  1       -5 0.58002926E-01 0.13100621E+03</pdfrwt>
<totfact> 0.29154164E+02</totfact>
</mgrwt>
</event>
<event>
 8    1  0.3488953E-007  0.1549131E+03  0.7546771E-02  0.1194564E+00
         -5   -1    0    0    0  501 -0.00000000000E+00  0.00000000000E+00  0.31123434604E+03  0.31126983175E+03  0.47000000000E+01 0.  1.
          5   -1    0    0  501    0  0.00000000000E+00 -0.00000000000E+00 -0.91874263070E+02  0.91994403170E+02  0.47000000000E+01 0.  1.
         25    2    1    2    0    0  0.54225270738E+02  0.73706942660E+02  0.19075609347E+03  0.24573245185E+03  0.12499382910E+03 0.  0.
         25    2    1    2    0    0 -0.54225270738E+02 -0.73706942660E+02  0.28603989503E+02  0.15753178307E+03  0.12499992431E+03 0.  0.
          5    1    4    4  502    0 -0.22329140868E+02 -0.23979955761E+02 -0.49463503722E+02  0.59517703338E+02  0.47000000000E+01 0.  1.
         -5    1    4    4    0  502 -0.31896129871E+02 -0.49726986899E+02  0.78067493225E+02  0.98014079729E+02  0.47000000000E+01 0.  1.
          5    1    3    3  503    0 -0.18133188647E+02  0.54362254460E+02  0.14931541355E+03  0.16000390609E+03  0.47000000000E+01 0. -1.
         -5    1    3    3    0  503  0.72358459385E+02  0.19344688200E+02  0.41440679919E+02  0.85728545761E+02  0.47000000000E+01 0. -1.
<mgrwt>
<rscale>  0 0.15491189E+03</rscale>
<asrwt>0</asrwt>
<pdfrwt beam="2">  1        5 0.14146473E-01 0.15491312E+03</pdfrwt>
<pdfrwt beam="1">  1       -5 0.47894178E-01 0.15491312E+03</pdfrwt>
<totfact> 0.13626945E+02</totfact>
</mgrwt>
</event>
<event>
 8    1  0.3488953E-007  0.1469870E+03  0.7546771E-02  0.1204233E+00
          5   -1    0    0  501    0  0.00000000000E+00  0.00000000000E+00  0.74501674484E+02  0.74649778974E+02  0.47000000000E+01 0.  1.
         -5   -1    0    0    0  501 -0.00000000000E+00 -0.00000000000E+00 -0.29015054362E+03  0.29018860757E+03  0.47000000000E+01 0.  1.
         25    2    1    2    0    0  0.45921586912E+02  0.62218581629E+02 -0.11654321069E+03  0.18758331413E+03  0.12500094295E+03 0.  0.
         25    2    1    2    0    0 -0.45921586912E+02 -0.62218581629E+02 -0.99105658445E+02  0.17725507241E+03  0.12496993684E+03 0.  0.
          5    1    4    4  502    0 -0.67963459048E+02  0.74052840043E+01 -0.71511610388E+02  0.99044789955E+02  0.47000000000E+01 0.  1.
         -5    1    4    4    0  502  0.22041872136E+02 -0.69623865633E+02 -0.27594048057E+02  0.78210282451E+02  0.47000000000E+01 0.  1.
          5    1    3    3  503    0  0.50318830280E+02  0.72335084391E+02 -0.13753500455E+03  0.16340843488E+03  0.47000000000E+01 0. -1.
         -5    1    3    3    0  503 -0.43972433684E+01 -0.10116502763E+02  0.20991793859E+02  0.24174879252E+02  0.47000000000E+01 0. -1.
<mgrwt>
<rscale>  0 0.14698041E+03</rscale>
<asrwt>0</asrwt>
<pdfrwt beam="1">  1        5 0.11476117E-01 0.14698701E+03</pdfrwt>
<pdfrwt beam="2">  1       -5 0.44652865E-01 0.14698701E+03</pdfrwt>
<totfact> 0.22539884E+02</totfact>
</mgrwt>
</event>
<event>
 8    1  0.3488953E-007  0.1562902E+03  0.7546771E-02  0.1192950E+00
          5   -1    0    0  501    0  0.00000000000E+00  0.00000000000E+00  0.66161606474E+02  0.66328336111E+02  0.47000000000E+01 0.  1.
         -5   -1    0    0    0  501 -0.00000000000E+00 -0.00000000000E+00 -0.45983901446E+03  0.45986303311E+03  0.47000000000E+01 0.  1.
         25    2    1    2    0    0  0.54269952967E+02  0.76530962223E+02 -0.31404062776E+03  0.35078140642E+03  0.12499545285E+03 0.  0.
         25    2    1    2    0    0 -0.54269952967E+02 -0.76530962223E+02 -0.79636780227E+02  0.17540996280E+03  0.12499768922E+03 0.  0.
          5    1    4    4  502    0 -0.44513029765E+02 -0.35438619664E+02 -0.10948721364E+03  0.12347811763E+03  0.47000000000E+01 0. -1.
         -5    1    4    4    0  502 -0.97569232017E+01 -0.41092342559E+02  0.29850433415E+02  0.51931845167E+02  0.47000000000E+01 0. -1.
          5    1    3    3  503    0  0.16622746048E+02 -0.23029850560E+02 -0.13274812639E+02  0.31701740545E+02  0.47000000000E+01 0. -1.
         -5    1    3    3    0  503  0.37647206919E+02  0.99560812783E+02 -0.30076581512E+03  0.31907966588E+03  0.47000000000E+01 0. -1.
<mgrwt>
<rscale>  0 0.15628979E+03</rscale>
<asrwt>0</asrwt>
<pdfrwt beam="1">  1        5 0.10193382E-01 0.15629024E+03</pdfrwt>
<pdfrwt beam="2">  1       -5 0.70759135E-01 0.15629024E+03</pdfrwt>
<totfact> 0.10434850E+02</totfact>
</mgrwt>
</event>
<event>
 8    1  0.3488953E-007  0.1254229E+03  0.7546771E-02  0.1234443E+00
         -5   -1    0    0    0  501 -0.00000000000E+00  0.00000000000E+00  0.30781500921E+03  0.30785088906E+03  0.47000000000E+01 0.  1.
          5   -1    0    0  501    0  0.00000000000E+00 -0.00000000000E+00 -0.59123159194E+02  0.59309678410E+02  0.47000000000E+01 0.  1.
         25    2    1    2    0    0 -0.70361962557E+01 -0.74625644304E+01  0.19253929329E+03  0.22974142425E+03  0.12491815172E+03 0.  0.
         25    2    1    2    0    0  0.70361962557E+01  0.74625644304E+01  0.56152556727E+02  0.13741914322E+03  0.12500285345E+03 0.  0.
          5    1    3    3  502    0  0.38481165105E+02  0.17699849926E+02  0.15804310043E+02  0.45452733374E+02  0.47000000000E+01 0.  1.
         -5    1    3    3    0  502 -0.45517361361E+02 -0.25162414356E+02  0.17673498324E+03  0.18428869087E+03  0.47000000000E+01 0.  1.
          5    1    4    4  503    0  0.96667588698E+01 -0.39903292916E+02 -0.21284576333E+02  0.46484859926E+02  0.47000000000E+01 0. -1.
         -5    1    4    4    0  503 -0.26305626141E+01  0.47365857347E+02  0.77437133060E+02  0.90934283296E+02  0.47000000000E+01 0. -1.
<mgrwt>
<rscale>  0 0.12540182E+03</rscale>
<asrwt>0</asrwt>
<pdfrwt beam="2">  1        5 0.91129782E-02 0.12542293E+03</pdfrwt>
<pdfrwt beam="1">  1       -5 0.47373263E-01 0.12542293E+03</pdfrwt>
<totfact> 0.28215619E+02</totfact>
</mgrwt>
</event>
<event>
 8    1  0.3488953E-007  0.1857142E+03  0.7546771E-02  0.1162385E+00
         -5   -1    0    0    0  501 -0.00000000000E+00  0.00000000000E+00  0.18658472879E+03  0.18664391503E+03  0.47000000000E+01 0.  1.
          5   -1    0    0  501    0  0.00000000000E+00 -0.00000000000E+00 -0.19763982514E+03  0.19769570173E+03  0.47000000000E+01 0.  1.
         25    2    1    2    0    0  0.13100985790E+03 -0.41261684410E+02  0.43577989855E+02  0.19075620525E+03  0.12499111638E+03 0.  0.
         25    2    1    2    0    0 -0.13100985790E+03  0.41261684410E+02 -0.54633086207E+02  0.19358341150E+03  0.12499461441E+03 0.  0.
          5    1    3    3  502    0  0.57810801757E+02  0.12742206329E+02 -0.36305571868E+02  0.69603427865E+02  0.47000000000E+01 0. -1.
         -5    1    3    3    0  502  0.73199056145E+02 -0.54003890739E+02  0.79883561722E+02  0.12115277739E+03  0.47000000000E+01 0. -1.
          5    1    4    4  503    0 -0.57281276078E+02  0.15176362688E+02  0.39303263063E+02  0.71262213416E+02  0.47000000000E+01 0.  1.
         -5    1    4    4    0  503 -0.73728581824E+02  0.26085321722E+02 -0.93936349270E+02  0.12232119809E+03  0.47000000000E+01 0.  1.
<mgrwt>
<rscale>  0 0.18571361E+03</rscale>
<asrwt>0</asrwt>
<pdfrwt beam="2">  1        5 0.30414978E-01 0.18571420E+03</pdfrwt>
<pdfrwt beam="1">  1       -5 0.28714194E-01 0.18571420E+03</pdfrwt>
<totfact> 0.96174080E+01</totfact>
</mgrwt>
</event>
<event>
 8    1  0.3488953E-007  0.1543454E+03  0.7546771E-02  0.1195234E+00
          5   -1    0    0  501    0  0.00000000000E+00  0.00000000000E+00  0.11843939629E+03  0.11853261405E+03  0.47000000000E+01 0.  1.
         -5   -1    0    0    0  501 -0.00000000000E+00 -0.00000000000E+00 -0.20558383071E+03  0.20563754873E+03  0.47000000000E+01 0.  1.
         25    2    1    2    0    0 -0.20541162831E+02  0.88175965121E+02 -0.67949597284E+02  0.16863578336E+03  0.12499575778E+03 0.  0.
         25    2    1    2    0    0  0.20541162831E+02 -0.88175965121E+02 -0.19194837138E+02  0.15553437942E+03  0.12500224484E+03 0.  0.
          5    1    4    4  502    0  0.68201852734E+02 -0.56846105419E+02  0.13023713587E+02  0.89859220636E+02  0.47000000000E+01 0.  1.
         -5    1    4    4    0  502 -0.47660689903E+02 -0.31329859702E+02 -0.32218550726E+02  0.65675158788E+02  0.47000000000E+01 0.  1.
          5    1    3    3  503    0 -0.39144981371E+02 -0.16354086924E+02 -0.35598837504E+00  0.42684920679E+02  0.47000000000E+01 0.  1.
         -5    1    3    3    0  503  0.18603818540E+02  0.10453005204E+03 -0.67593608909E+02  0.12595086268E+03  0.47000000000E+01 0.  1.
<mgrwt>
<rscale>  0 0.15434408E+03</rscale>
<asrwt>0</asrwt>
<pdfrwt beam="1">  1        5 0.18232748E-01 0.15434540E+03</pdfrwt>
<pdfrwt beam="2">  1       -5 0.31639584E-01 0.15434540E+03</pdfrwt>
<totfact> 0.19966366E+02</totfact>
</mgrwt>
</event>
<event>
 8    1  0.3488953E-007  0.1305388E+03  0.7546771E-02  0.1226659E+00
          5   -1    0    0  501    0  0.00000000000E+00  0.00000000000E+00  0.42822120436E+02  0.43079275744E+02  0.47000000000E+01 0.  1.
         -5   -1    0    0    0  501 -0.00000000000E+00 -0.00000000000E+00 -0.40079280112E+03  0.40082035805E+03  0.47000000000E+01 0.  1.
         25    2    1    2    0    0  0.25760188258E+02  0.27409303743E+02 -0.20202896995E+03  0.24053248419E+03  0.12500125607E+03 0.  0.
         25    2    1    2    0    0 -0.25760188258E+02 -0.27409303743E+02 -0.15594171073E+03  0.20336714961E+03  0.12500209263E+03 0.  0.
          5    1    3    3  502    0  0.45991893355E+02  0.67212350815E+02 -0.99938561037E+02  0.12900604768E+03  0.47000000000E+01 0. -1.
         -5    1    3    3    0  502 -0.20231705097E+02 -0.39803047072E+02 -0.10209040891E+03  0.11152643650E+03  0.47000000000E+01 0. -1.
          5    1    4    4  503    0 -0.53527257603E+02 -0.16925248758E+01 -0.12841664674E+02  0.55272328507E+02  0.47000000000E+01 0.  1.
         -5    1    4    4    0  503  0.27767069345E+02 -0.25716778867E+02 -0.14310004606E+03  0.14809482110E+03  0.47000000000E+01 0.  1.
<mgrwt>
<rscale>  0 0.13053861E+03</rscale>
<asrwt>0</asrwt>
<pdfrwt beam="1">  1        5 0.66099197E-02 0.13053881E+03</pdfrwt>
<pdfrwt beam="2">  1       -5 0.61682329E-01 0.13053881E+03</pdfrwt>
<totfact> 0.28130396E+02</totfact>
</mgrwt>
</event>
<event>
 8    1  0.3488953E-007  0.1656183E+03  0.7546771E-02  0.1182497E+00
         -5   -1    0    0    0  501 -0.00000000000E+00  0.00000000000E+00  0.14287603950E+03  0.14295332337E+03  0.47000000000E+01 0. -1.
          5   -1    0    0  501    0  0.00000000000E+00 -0.00000000000E+00 -0.22321752806E+03  0.22326700346E+03  0.47000000000E+01 0. -1.
         25    2    1    2    0    0 -0.56646935695E+02  0.92704965992E+02  0.28486177371E+02  0.16804646805E+03  0.12500026832E+03 0.  0.
         25    2    1    2    0    0  0.56646935695E+02 -0.92704965992E+02 -0.10882766593E+03  0.19817385878E+03  0.12500532544E+03 0.  0.
          5    1    3    3  502    0 -0.48958667418E+02  0.45722623802E+02 -0.44658241780E+02  0.80647120231E+02  0.47000000000E+01 0. -1.
         -5    1    3    3    0  502 -0.76882682773E+01  0.46982342189E+02  0.73144419151E+02  0.87399347821E+02  0.47000000000E+01 0. -1.
          5    1    4    4  503    0  0.80545087010E+02 -0.66803088411E+02 -0.12150804505E+03  0.16042586660E+03  0.47000000000E+01 0. -1.
         -5    1    4    4    0  503 -0.23898151315E+02 -0.25901877580E+02  0.12680379125E+02  0.37747992174E+02  0.47000000000E+01 0. -1.
<mgrwt>
<rscale>  0 0.16561733E+03</rscale>
<asrwt>0</asrwt>
<pdfrwt beam="2">  1        5 0.34350909E-01 0.16561829E+03</pdfrwt>
<pdfrwt beam="1">  1       -5 0.21990680E-01 0.16561829E+03</pdfrwt>
<totfact> 0.12200429E+02</totfact>
</mgrwt>
</event>
<event>
 8    1  0.3488953E-007  0.1390270E+03  0.7546771E-02  0.1214657E+00
          5   -1    0    0  501    0  0.00000000000E+00  0.00000000000E+00  0.15582479688E+03  0.15589566166E+03  0.47000000000E+01 0. -1.
         -5   -1    0    0    0  501 -0.00000000000E+00 -0.00000000000E+00 -0.12474584121E+03  0.12483434983E+03  0.47000000000E+01 0. -1.
         25    2    1    2    0    0 -0.59582031184E+02  0.12359848814E+02  0.27343755503E+02  0.14165284522E+03  0.12496024684E+03 0.  0.
         25    2    1    2    0    0  0.59582031184E+02 -0.12359848814E+02  0.37352001724E+01  0.13907716627E+03  0.12500288859E+03 0.  0.
          5    1    4    4  502    0  0.17919620067E+02  0.29664097109E+02 -0.48642916738E+02  0.59910723493E+02  0.47000000000E+01 0. -1.
         -5    1    4    4    0  502  0.41662411117E+02 -0.42023945924E+02  0.52378116911E+02  0.79166442778E+02  0.47000000000E+01 0. -1.
          5    1    3    3  503    0  0.30157258304E+02 -0.26918646715E+02  0.11674348582E+02  0.42337385184E+02  0.47000000000E+01 0. -1.
         -5    1    3    3    0  503 -0.89739289487E+02  0.39278495530E+02  0.15669406921E+02  0.99315460035E+02  0.47000000000E+01 0. -1.
<mgrwt>
<rscale>  0 0.13901741E+03</rscale>
<asrwt>0</asrwt>
<pdfrwt beam="1">  1        5 0.23985305E-01 0.13902700E+03</pdfrwt>
<pdfrwt beam="2">  1       -5 0.19203927E-01 0.13902700E+03</pdfrwt>
<totfact> 0.29990945E+02</totfact>
</mgrwt>
</event>
<event>
 8    1  0.3488953E-007  0.1312501E+03  0.7546771E-02  0.1225613E+00
         -5   -1    0    0    0  501 -0.00000000000E+00  0.00000000000E+00  0.15021903067E+03  0.15029253866E+03  0.47000000000E+01 0.  1.
          5   -1    0    0  501    0  0.00000000000E+00 -0.00000000000E+00 -0.12125049317E+03  0.12134155139E+03  0.47000000000E+01 0.  1.
         25    2    1    2    0    0  0.18722986963E+02  0.35374388175E+02  0.46448254235E+02  0.13922517603E+03  0.12499724693E+03 0.  0.
         25    2    1    2    0    0 -0.18722986963E+02 -0.35374388175E+02 -0.17479716736E+02  0.13240891402E+03  0.12499872973E+03 0.  0.
          5    1    4    4  502    0 -0.24324808184E+02 -0.61687692167E+02 -0.54807654124E+02  0.86157046192E+02  0.47000000000E+01 0. -1.
         -5    1    4    4    0  502  0.56018212216E+01  0.26313303991E+02  0.37327937388E+02  0.46251867828E+02  0.47000000000E+01 0. -1.
          5    1    3    3  503    0 -0.39964095175E+02  0.29160214945E+02 -0.16928461638E+02  0.52498665243E+02  0.47000000000E+01 0. -1.
         -5    1    3    3    0  503  0.58687082138E+02  0.62141732301E+01  0.63376715873E+02  0.86726510789E+02  0.47000000000E+01 0. -1.
<mgrwt>
<rscale>  0 0.13124971E+03</rscale>
<asrwt>0</asrwt>
<pdfrwt beam="2">  1        5 0.18666581E-01 0.13125007E+03</pdfrwt>
<pdfrwt beam="1">  1       -5 0.23123279E-01 0.13125007E+03</pdfrwt>
<totfact> 0.33218069E+02</totfact>
</mgrwt>
</event>
<event>
 8    1  0.3488953E-007  0.1384359E+03  0.7546771E-02  0.1215450E+00
         -5   -1    0    0    0  501 -0.00000000000E+00  0.00000000000E+00  0.68204791846E+02  0.68366538824E+02  0.47000000000E+01 0. -1.
          5   -1    0    0  501    0  0.00000000000E+00 -0.00000000000E+00 -0.33117125391E+03  0.33120460356E+03  0.47000000000E+01 0. -1.
         25    2    1    2    0    0 -0.55330541518E+02  0.21851856995E+02 -0.53330524620E+02  0.14835067187E+03  0.12499921803E+03 0.  0.
         25    2    1    2    0    0  0.55330541518E+02 -0.21851856995E+02 -0.20963593745E+03  0.25122047052E+03  0.12500210421E+03 0.  0.
          5    1    3    3  502    0  0.36509597662E+02  0.23437772596E+02 -0.35860054469E+01  0.43786177508E+02  0.47000000000E+01 0.  1.
         -5    1    3    3    0  502 -0.91840139180E+02 -0.15859156009E+01 -0.49744519173E+02  0.10456449436E+03  0.47000000000E+01 0.  1.
          5    1    4    4  503    0  0.44160858327E+02  0.18749941489E+02 -0.20261549421E+03  0.20827114589E+03  0.47000000000E+01 0.  1.
         -5    1    4    4    0  503  0.11169683191E+02 -0.40601798485E+02 -0.70204432345E+01  0.42949324628E+02  0.47000000000E+01 0.  1.
<mgrwt>
<rscale>  0 0.13843525E+03</rscale>
<asrwt>0</asrwt>
<pdfrwt beam="2">  1        5 0.50964430E-01 0.13843590E+03</pdfrwt>
<pdfrwt beam="1">  1       -5 0.10508053E-01 0.13843590E+03</pdfrwt>
<totfact> 0.19534373E+02</totfact>
</mgrwt>
</event>
<event>
 8    1  0.3488953E-007  0.1349593E+03  0.7546771E-02  0.1220280E+00
         -5   -1    0    0    0  501 -0.00000000000E+00  0.00000000000E+00  0.34533218138E+02  0.34851587553E+02  0.47000000000E+01 0. -1.
          5   -1    0    0  501    0  0.00000000000E+00 -0.00000000000E+00 -0.72376746109E+03  0.72378272135E+03  0.47000000000E+01 0. -1.
         25    2    1    2    0    0  0.12717325270E+02 -0.49219155559E+02 -0.14571665682E+03  0.19861359802E+03  0.12501904497E+03 0.  0.
         25    2    1    2    0    0 -0.12717325270E+02  0.49219155559E+02 -0.54351758613E+03  0.56002071089E+03  0.12501029781E+03 0.  0.
          5    1    4    4  502    0 -0.43871483350E+02  0.15585242977E+02 -0.47587788720E+03  0.47817304438E+03  0.47000000000E+01 0.  1.
         -5    1    4    4    0  502  0.31154158080E+02  0.33633912582E+02 -0.67639698929E+02  0.81847666506E+02  0.47000000000E+01 0.  1.
          5    1    3    3  503    0  0.19751365567E+01  0.28700151658E+02  0.40046622973E+01  0.29423242339E+02  0.47000000000E+01 0. -1.
         -5    1    3    3    0  503  0.10742188713E+02 -0.77919307217E+02 -0.14972131912E+03  0.16919035568E+03  0.47000000000E+01 0. -1.
<mgrwt>
<rscale>  0 0.13495729E+03</rscale>
<asrwt>0</asrwt>
<pdfrwt beam="2">  1        5 0.11137449E+00 0.13495932E+03</pdfrwt>
<pdfrwt beam="1">  1       -5 0.53384671E-02 0.13495932E+03</pdfrwt>
<totfact> 0.10244702E+02</totfact>
</mgrwt>
</event>
<event>
 8    1  0.3488953E-007  0.1761100E+03  0.7546771E-02  0.1171623E+00
         -5   -1    0    0    0  501 -0.00000000000E+00  0.00000000000E+00  0.42759888274E+02  0.43017415604E+02  0.47000000000E+01 0.  1.
          5   -1    0    0  501    0  0.00000000000E+00 -0.00000000000E+00 -0.10619257203E+04  0.10619361212E+04  0.47000000000E+01 0.  1.
         25    2    1    2    0    0  0.10575608585E+03  0.64839661855E+02 -0.19743948772E+03  0.26456737294E+03  0.12500004828E+03 0.  0.
         25    2    1    2    0    0 -0.10575608585E+03 -0.64839661855E+02 -0.82172634431E+03  0.84038616383E+03  0.12500475185E+03 0.  0.
          5    1    3    3  502    0  0.66203015751E+02  0.91721822765E+02 -0.18154260426E+03  0.21395218912E+03  0.47000000000E+01 0.  1.
         -5    1    3    3    0  502  0.39553070100E+02 -0.26882160909E+02 -0.15896883454E+02  0.50615183819E+02  0.47000000000E+01 0.  1.
          5    1    4    4  503    0 -0.51625775624E+02  0.33999447074E+02 -0.24395681135E+03  0.25171054590E+03  0.47000000000E+01 0.  1.
         -5    1    4    4    0  503 -0.54130310227E+02 -0.98839108930E+02 -0.57776953296E+03  0.58867561794E+03  0.47000000000E+01 0.  1.
<mgrwt>
<rscale>  0 0.17610913E+03</rscale>
<asrwt>0</asrwt>
<pdfrwt beam="2">  1        5 0.16339378E+00 0.17610996E+03</pdfrwt>
<pdfrwt beam="1">  1       -5 0.65990550E-02 0.17610996E+03</pdfrwt>
<totfact> 0.28029631E+01</totfact>
</mgrwt>
</event>
<event>
 8    1  0.3488953E-007  0.1468206E+03  0.7546771E-02  0.1204437E+00
          5   -1    0    0  501    0  0.00000000000E+00  0.00000000000E+00  0.24342870432E+02  0.24792445238E+02  0.47000000000E+01 0.  1.
         -5   -1    0    0    0  501 -0.00000000000E+00 -0.00000000000E+00 -0.87762226370E+03  0.87763484875E+03  0.47000000000E+01 0.  1.
         25    2    1    2    0    0 -0.16605263971E+02  0.75199326588E+02 -0.43924385128E+03  0.46313221924E+03  0.12500247238E+03 0.  0.
         25    2    1    2    0    0  0.16605263971E+02 -0.75199326588E+02 -0.41403554200E+03  0.43929507475E+03  0.12499623657E+03 0.  0.
          5    1    3    3  502    0  0.14214614653E+02 -0.31919517969E+02 -0.10618987362E+03  0.11188963382E+03  0.47000000000E+01 0. -1.
         -5    1    3    3    0  502 -0.30819878624E+02  0.10711884456E+03 -0.33305397766E+03  0.35124258542E+03  0.47000000000E+01 0. -1.
          5    1    4    4  503    0 -0.49417572045E+02 -0.77041584607E+01 -0.18026526240E+03  0.18713392347E+03  0.47000000000E+01 0. -1.
         -5    1    4    4    0  503  0.66022836016E+02 -0.67495168127E+02 -0.23377027960E+03  0.25216115129E+03  0.47000000000E+01 0. -1.
<mgrwt>
<rscale>  0 0.14681928E+03</rscale>
<asrwt>0</asrwt>
<pdfrwt beam="1">  1        5 0.37806084E-02 0.14682061E+03</pdfrwt>
<pdfrwt beam="2">  1       -5 0.13505434E+00 0.14682061E+03</pdfrwt>
<totfact> 0.11347775E+02</totfact>
</mgrwt>
</event>
<event>
 8    1  0.3488953E-007  0.1609213E+03  0.7546771E-02  0.1187661E+00
         -5   -1    0    0    0  501 -0.00000000000E+00  0.00000000000E+00  0.14161163608E+03  0.14168960961E+03  0.47000000000E+01 0. -1.
          5   -1    0    0  501    0  0.00000000000E+00 -0.00000000000E+00 -0.18274530604E+03  0.18280573536E+03  0.47000000000E+01 0. -1.
         25    2    1    2    0    0 -0.88046106836E+02  0.50182652588E+02 -0.18065187604E+02  0.16193214765E+03  0.12500101555E+03 0.  0.
         25    2    1    2    0    0  0.88046106836E+02 -0.50182652588E+02 -0.23068482363E+02  0.16256319733E+03  0.12499689075E+03 0.  0.
          5    1    4    4  502    0 -0.16540766018E+02 -0.20381818373E+02 -0.44255955102E+02  0.51669091560E+02  0.47000000000E+01 0. -1.
         -5    1    4    4    0  502  0.10458687285E+03 -0.29800834216E+02  0.21187472739E+02  0.11089410577E+03  0.47000000000E+01 0. -1.
          5    1    3    3  503    0  0.15047336662E+02 -0.19906140330E+02 -0.26745803646E+02  0.36879598373E+02  0.47000000000E+01 0. -1.
         -5    1    3    3    0  503 -0.10309344350E+03  0.70088792919E+02  0.86806160418E+01  0.12505254927E+03  0.47000000000E+01 0. -1.
<mgrwt>
<rscale>  0 0.16092051E+03</rscale>
<asrwt>0</asrwt>
<pdfrwt beam="2">  1        5 0.28125309E-01 0.16092131E+03</pdfrwt>
<pdfrwt beam="1">  1       -5 0.21797052E-01 0.16092131E+03</pdfrwt>
<totfact> 0.18266113E+02</totfact>
</mgrwt>
</event>
<event>
 8    1  0.3488953E-007  0.1261732E+03  0.7546771E-02  0.1233250E+00
          5   -1    0    0  501    0  0.00000000000E+00  0.00000000000E+00  0.42888463160E+03  0.42891038367E+03  0.47000000000E+01 0. -1.
         -5   -1    0    0    0  501 -0.00000000000E+00 -0.00000000000E+00 -0.37502886177E+02  0.37796249438E+02  0.47000000000E+01 0. -1.
         25    2    1    2    0    0  0.15507964323E+02  0.71933069858E+01  0.16723263495E+03  0.20948593344E+03  0.12500144596E+03 0.  0.
         25    2    1    2    0    0 -0.15507964323E+02 -0.71933069858E+01  0.22414911047E+03  0.25722069967E+03  0.12500969559E+03 0.  0.
          5    1    4    4  502    0 -0.19860055207E+02  0.46751919137E+02  0.38847116531E+02  0.64119826876E+02  0.47000000000E+01 0.  1.
         -5    1    4    4    0  502  0.43520908834E+01 -0.53945226123E+02  0.18530199394E+03  0.19310087279E+03  0.47000000000E+01 0.  1.
          5    1    3    3  503    0  0.66998630486E+02  0.20221455631E+02  0.11589720120E+03  0.13546946151E+03  0.47000000000E+01 0. -1.
         -5    1    3    3    0  503 -0.51490666162E+02 -0.13028148645E+02  0.51335433754E+02  0.74016471935E+02  0.47000000000E+01 0. -1.
<mgrwt>
<rscale>  0 0.12617111E+03</rscale>
<asrwt>0</asrwt>
<pdfrwt beam="1">  1        5 0.66006801E-01 0.12617315E+03</pdfrwt>
<pdfrwt beam="2">  1       -5 0.57942219E-02 0.12617315E+03</pdfrwt>
<totfact> 0.29852773E+02</totfact>
</mgrwt>
</event>
<event>
 8    1  0.3488953E-007  0.2048661E+03  0.7546771E-02  0.1145704E+00
         -5   -1    0    0    0  501 -0.00000000000E+00  0.00000000000E+00  0.10148675974E+03  0.10159553338E+03  0.47000000000E+01 0. -1.
          5   -1    0    0  501    0  0.00000000000E+00 -0.00000000000E+00 -0.43968353083E+03  0.43970865046E+03  0.47000000000E+01 0. -1.
         25    2    1    2    0    0  0.15220480892E+03 -0.56263186704E+02 -0.10262723296E+03  0.22913415542E+03  0.12505303754E+03 0.  0.
         25    2    1    2    0    0 -0.15220480892E+03  0.56263186704E+02 -0.23556953814E+03  0.31217002841E+03  0.12500107720E+03 0.  0.
          5    1    4    4  502    0 -0.82298088878E+01 -0.30270745647E+02 -0.67093708339E+02  0.74213903651E+02  0.47000000000E+01 0.  1.
         -5    1    4    4    0  502 -0.14397500004E+03  0.86533932350E+02 -0.16847582980E+03  0.23795612476E+03  0.47000000000E+01 0.  1.
          5    1    3    3  503    0  0.13028138497E+03 -0.41597737930E+02 -0.13147327074E+03  0.18976543940E+03  0.47000000000E+01 0.  1.
         -5    1    3    3    0  503  0.21923423953E+02 -0.14665448773E+02  0.28846037783E+02  0.39368716024E+02  0.47000000000E+01 0.  1.
<mgrwt>
<rscale>  0 0.20485815E+03</rscale>
<asrwt>0</asrwt>
<pdfrwt beam="2">  1        5 0.67653919E-01 0.20486608E+03</pdfrwt>
<pdfrwt beam="1">  1       -5 0.15623647E-01 0.20486608E+03</pdfrwt>
<totfact> 0.58063856E+01</totfact>
</mgrwt>
</event>
<event>
 8    1  0.3488953E-007  0.1477976E+03  0.7546771E-02  0.1203207E+00
          5   -1    0    0  501    0  0.00000000000E+00  0.00000000000E+00  0.78795240798E+03  0.78796642520E+03  0.47000000000E+01 0. -1.
         -5   -1    0    0    0  501 -0.00000000000E+00 -0.00000000000E+00 -0.28204771472E+02  0.28593690454E+02  0.47000000000E+01 0. -1.
         25    2    1    2    0    0  0.34155992691E+02  0.71090458994E+02  0.31618733163E+03  0.34902517521E+03  0.12499463608E+03 0.  0.
         25    2    1    2    0    0 -0.34155992691E+02 -0.71090458994E+02  0.44356030488E+03  0.46753494045E+03  0.12499076477E+03 0.  0.
          5    1    3    3  502    0 -0.21665988527E+02  0.22488547758E+02  0.87500569963E+01  0.32768938594E+02  0.47000000000E+01 0.  1.
         -5    1    3    3    0  502  0.55821981218E+02  0.48601911236E+02  0.30743727463E+03  0.31625623661E+03  0.47000000000E+01 0.  1.
          5    1    4    4  503    0 -0.36619506808E+02 -0.10508117463E+03  0.30288732888E+03  0.32271638561E+03  0.47000000000E+01 0. -1.
         -5    1    4    4    0  503  0.24635141173E+01  0.33990715633E+02  0.14067297600E+03  0.14481855484E+03  0.47000000000E+01 0. -1.
<mgrwt>
<rscale>  0 0.14779683E+03</rscale>
<asrwt>0</asrwt>
<pdfrwt beam="1">  1        5 0.12125444E+00 0.14779765E+03</pdfrwt>
<pdfrwt beam="2">  1       -5 0.43701906E-02 0.14779765E+03</pdfrwt>
<totfact> 0.11857204E+02</totfact>
</mgrwt>
</event>
<event>
 8    1  0.3488953E-007  0.1553916E+03  0.7546771E-02  0.1194007E+00
         -5   -1    0    0    0  501 -0.00000000000E+00  0.00000000000E+00  0.33774709880E+03  0.33777979920E+03  0.47000000000E+01 0. -1.
          5   -1    0    0  501    0  0.00000000000E+00 -0.00000000000E+00 -0.81096392346E+02  0.81232474119E+02  0.47000000000E+01 0. -1.
         25    2    1    2    0    0  0.33903561465E+02  0.85905241588E+02  0.20081504027E+03  0.25391577178E+03  0.12496950327E+03 0.  0.
         25    2    1    2    0    0 -0.33903561465E+02 -0.85905241588E+02  0.55835666182E+02  0.16509650154E+03  0.12494027049E+03 0.  0.
          5    1    4    4  502    0 -0.54270177521E+02 -0.36576439640E+02  0.82371700640E+02  0.10531037542E+03  0.47000000000E+01 0. -1.
         -5    1    4    4    0  502  0.20366616057E+02 -0.49328801948E+02 -0.26536034459E+02  0.59786126116E+02  0.47000000000E+01 0. -1.
          5    1    3    3  503    0 -0.40584844686E+02  0.78067317785E+01  0.28093887987E+02  0.50193936103E+02  0.47000000000E+01 0. -1.
         -5    1    3    3    0  503  0.74488406151E+02  0.78098509809E+02  0.17272115228E+03  0.20372183568E+03  0.47000000000E+01 0. -1.
<mgrwt>
<rscale>  0 0.15538569E+03</rscale>
<asrwt>0</asrwt>
<pdfrwt beam="2">  1        5 0.12489351E-01 0.15539157E+03</pdfrwt>
<pdfrwt beam="1">  1       -5 0.51974076E-01 0.15539157E+03</pdfrwt>
<totfact> 0.14336991E+02</totfact>
</mgrwt>
</event>
<event>
 8    1  0.3488953E-007  0.1307959E+03  0.7546771E-02  0.1226281E+00
          5   -1    0    0  501    0  0.00000000000E+00  0.00000000000E+00  0.42305428184E+02  0.42565705137E+02  0.47000000000E+01 0.  1.
         -5   -1    0    0    0  501 -0.00000000000E+00 -0.00000000000E+00 -0.41593953764E+03  0.41596609113E+03  0.47000000000E+01 0.  1.
         25    2    1    2    0    0  0.38049836487E+02 -0.59147884027E+01 -0.22746487465E+03  0.26238640275E+03  0.12499432135E+03 0.  0.
         25    2    1    2    0    0 -0.38049836487E+02  0.59147884027E+01 -0.14616923480E+03  0.19614539352E+03  0.12499918166E+03 0.  0.
          5    1    4    4  502    0 -0.64030922170E+02 -0.27501944955E+02 -0.37167549250E+02  0.79119104441E+02  0.47000000000E+01 0.  1.
         -5    1    4    4    0  502  0.25981085682E+02  0.33416733357E+02 -0.10900168555E+03  0.11702628908E+03  0.47000000000E+01 0.  1.
          5    1    3    3  503    0  0.49337006631E+02  0.37762364770E+02 -0.19972850450E+03  0.20922165740E+03  0.47000000000E+01 0.  1.
         -5    1    3    3    0  503 -0.11287170144E+02 -0.43677153172E+02 -0.27736370156E+02  0.53164745354E+02  0.47000000000E+01 0.  1.
<mgrwt>
<rscale>  0 0.13079475E+03</rscale>
<asrwt>0</asrwt>
<pdfrwt beam="1">  1        5 0.65305916E-02 0.13079591E+03</pdfrwt>
<pdfrwt beam="2">  1       -5 0.64012759E-01 0.13079591E+03</pdfrwt>
<totfact> 0.26474801E+02</totfact>
</mgrwt>
</event>
<event>
 8    1  0.3488953E-007  0.1418352E+03  0.7546771E-02  0.1210881E+00
         -5   -1    0    0    0  501 -0.00000000000E+00  0.00000000000E+00  0.33026044550E+03  0.33029388711E+03  0.47000000000E+01 0.  1.
          5   -1    0    0  501    0  0.00000000000E+00 -0.00000000000E+00 -0.65530473907E+02  0.65698805244E+02  0.47000000000E+01 0.  1.
         25    2    1    2    0    0  0.10382901828E+02 -0.66213443027E+02  0.18555881018E+03  0.23355715747E+03  0.12499939633E+03 0.  0.
         25    2    1    2    0    0 -0.10382901828E+02  0.66213443027E+02  0.79171161416E+02  0.16243553488E+03  0.12500082202E+03 0.  0.
          5    1    4    4  502    0 -0.25491152728E+02  0.57297048502E+02  0.10996935460E+03  0.12668109404E+03  0.47000000000E+01 0. -1.
         -5    1    4    4    0  502  0.15108250900E+02  0.89163945249E+01 -0.30798193189E+02  0.35754440847E+02  0.47000000000E+01 0. -1.
          5    1    3    3  503    0 -0.27310750708E+02 -0.64649910066E+02  0.18230092409E+03  0.19540011489E+03  0.47000000000E+01 0.  1.
         -5    1    3    3    0  503  0.37693652536E+02 -0.15635329603E+01  0.32578860923E+01  0.38157042582E+02  0.47000000000E+01 0.  1.
<mgrwt>
<rscale>  0 0.14183491E+03</rscale>
<asrwt>0</asrwt>
<pdfrwt beam="2">  1        5 0.10097132E-01 0.14183522E+03</pdfrwt>
<pdfrwt beam="1">  1       -5 0.50824820E-01 0.14183522E+03</pdfrwt>
<totfact> 0.21240313E+02</totfact>
</mgrwt>
</event>
<event>
 8    1  0.3488953E-007  0.1310411E+03  0.7546771E-02  0.1225921E+00
          5   -1    0    0  501    0  0.00000000000E+00  0.00000000000E+00  0.28467588270E+03  0.28471467857E+03  0.47000000000E+01 0. -1.
         -5   -1    0    0    0  501 -0.00000000000E+00 -0.00000000000E+00 -0.60434055398E+02  0.60616541075E+02  0.47000000000E+01 0. -1.
         25    2    1    2    0    0  0.75340458990E+01 -0.38588146172E+02  0.10102998392E+03  0.16546549743E+03  0.12500386520E+03 0.  0.
         25    2    1    2    0    0 -0.75340458990E+01  0.38588146172E+02  0.12321184338E+03  0.17986572221E+03  0.12499885122E+03 0.  0.
          5    1    4    4  502    0  0.11073544339E+02  0.30581864983E+02 -0.17769264842E+02  0.37359210686E+02  0.47000000000E+01 0.  1.
         -5    1    4    4    0  502 -0.18607590238E+02  0.80062811896E+01  0.14098110822E+03  0.14250651153E+03  0.47000000000E+01 0.  1.
          5    1    3    3  503    0  0.19661167833E+02  0.31858131362E+02  0.83627756453E+02  0.91745265294E+02  0.47000000000E+01 0. -1.
         -5    1    3    3    0  503 -0.12127121934E+02 -0.70446277534E+02  0.17402227469E+02  0.73720232133E+02  0.47000000000E+01 0. -1.
<mgrwt>
<rscale>  0 0.13103992E+03</rscale>
<asrwt>0</asrwt>
<pdfrwt beam="1">  1        5 0.43813311E-01 0.13104111E+03</pdfrwt>
<pdfrwt beam="2">  1       -5 0.93145688E-02 0.13104111E+03</pdfrwt>
<totfact> 0.32486165E+02</totfact>
</mgrwt>
</event>
<event>
 8    1  0.3488953E-007  0.1283455E+03  0.7546771E-02  0.1229933E+00
         -5   -1    0    0    0  501 -0.00000000000E+00  0.00000000000E+00  0.74584834481E+03  0.74586315330E+03  0.47000000000E+01 0. -1.
          5   -1    0    0  501    0  0.00000000000E+00 -0.00000000000E+00 -0.22121732163E+02  0.22615504282E+02  0.47000000000E+01 0. -1.
         25    2    1    2    0    0  0.57341288995E+01 -0.28540130037E+02  0.40623549053E+03  0.42602797043E+03  0.12500055425E+03 0.  0.
         25    2    1    2    0    0 -0.57341288995E+01  0.28540130037E+02  0.31749112211E+03  0.34245068716E+03  0.12499776501E+03 0.  0.
          5    1    4    4  502    0 -0.54396931531E+01  0.86434503806E+01  0.32143152700E+03  0.32162807098E+03  0.47000000000E+01 0. -1.
         -5    1    4    4    0  502 -0.29443574644E+00  0.19896679656E+02 -0.39404048825E+01  0.20822616176E+02  0.47000000000E+01 0. -1.
          5    1    3    3  503    0 -0.50482685611E+02 -0.50977419909E+01  0.29268201805E+03  0.29708473910E+03  0.47000000000E+01 0.  1.
         -5    1    3    3    0  503  0.56216814510E+02 -0.23442388046E+02  0.11355347249E+03  0.12894323133E+03  0.47000000000E+01 0.  1.
<mgrwt>
<rscale>  0 0.12834478E+03</rscale>
<asrwt>0</asrwt>
<pdfrwt beam="2">  1        5 0.34424654E-02 0.12834546E+03</pdfrwt>
<pdfrwt beam="1">  1       -5 0.11478501E+00 0.12834546E+03</pdfrwt>
<totfact> 0.19228665E+02</totfact>
</mgrwt>
</event>
<event>
 8    1  0.3488953E-007  0.1251197E+03  0.7546771E-02  0.1234883E+00
         -5   -1    0    0    0  501 -0.00000000000E+00  0.00000000000E+00  0.47682171216E+02  0.47913249231E+02  0.47000000000E+01 0. -1.
          5   -1    0    0  501    0  0.00000000000E+00 -0.00000000000E+00 -0.32736940514E+03  0.32740314205E+03  0.47000000000E+01 0. -1.
         25    2    1    2    0    0  0.18703766560E+01  0.52319896656E+01 -0.13663392368E+03  0.18526590494E+03  0.12499501754E+03 0.  0.
         25    2    1    2    0    0 -0.18703766560E+01 -0.52319896656E+01 -0.14305331025E+03  0.19005048634E+03  0.12499626298E+03 0.  0.
          5    1    4    4  502    0 -0.25885747436E+02  0.19770733482E+02  0.89241929553E+01  0.34098167732E+02  0.47000000000E+01 0.  1.
         -5    1    4    4    0  502  0.24015370780E+02 -0.25002723148E+02 -0.15197750321E+03  0.15595231861E+03  0.47000000000E+01 0.  1.
          5    1    3    3  503    0 -0.53514262597E+02 -0.17517250846E+02 -0.32856824576E+02  0.65362766922E+02  0.47000000000E+01 0. -1.
         -5    1    3    3    0  503  0.55384639253E+02  0.22749240512E+02 -0.10377709910E+03  0.11990313802E+03  0.47000000000E+01 0. -1.
<mgrwt>
<rscale>  0 0.12511938E+03</rscale>
<asrwt>0</asrwt>
<pdfrwt beam="2">  1        5 0.50384893E-01 0.12511969E+03</pdfrwt>
<pdfrwt beam="1">  1       -5 0.73560892E-02 0.12511969E+03</pdfrwt>
<totfact> 0.35743197E+02</totfact>
</mgrwt>
</event>
<event>
 8    1  0.3488953E-007  0.1714435E+03  0.7546771E-02  0.1176351E+00
         -5   -1    0    0    0  501 -0.00000000000E+00  0.00000000000E+00  0.93416291076E+02  0.93534450543E+02  0.47000000000E+01 0. -1.
          5   -1    0    0  501    0  0.00000000000E+00 -0.00000000000E+00 -0.33187515021E+03  0.33190842913E+03  0.47000000000E+01 0. -1.
         25    2    1    2    0    0 -0.76501162132E+02  0.88968083998E+02 -0.70295241748E+02  0.18529318103E+03  0.12499757656E+03 0.  0.
         25    2    1    2    0    0  0.76501162132E+02 -0.88968083998E+02 -0.16816361738E+03  0.24014969864E+03  0.12500051107E+03 0.  0.
          5    1    3    3  502    0 -0.61495289980E+02  0.11991934318E+03 -0.66543590968E+02  0.15037439629E+03  0.47000000000E+01 0.  1.
         -5    1    3    3    0  502 -0.15005872151E+02 -0.30951259186E+02 -0.37516507800E+01  0.34918784741E+02  0.47000000000E+01 0.  1.
          5    1    4    4  503    0  0.19332714091E+02  0.31695546841E+02 -0.43953369627E+02  0.57726512325E+02  0.47000000000E+01 0.  1.
         -5    1    4    4    0  503  0.57168448041E+02 -0.12066363084E+03 -0.12421024776E+03  0.18242318632E+03  0.47000000000E+01 0.  1.
<mgrwt>
<rscale>  0 0.17144297E+03</rscale>
<asrwt>0</asrwt>
<pdfrwt beam="2">  1        5 0.51069364E-01 0.17144351E+03</pdfrwt>
<pdfrwt beam="1">  1       -5 0.14383386E-01 0.17144351E+03</pdfrwt>
<totfact> 0.11901961E+02</totfact>
</mgrwt>
</event>
<event>
 8    1  0.3488953E-007  0.2207216E+03  0.7546771E-02  0.1133356E+00
          5   -1    0    0  501    0  0.00000000000E+00  0.00000000000E+00  0.20090722322E+03  0.20096219132E+03  0.47000000000E+01 0.  1.
         -5   -1    0    0    0  501 -0.00000000000E+00 -0.00000000000E+00 -0.24517422270E+03  0.24521926816E+03  0.47000000000E+01 0.  1.
         25    2    1    2    0    0  0.68546259917E+02 -0.16850838265E+03  0.19190793386E+01  0.22072998074E+03  0.12499750701E+03 0.  0.
         25    2    1    2    0    0 -0.68546259917E+02  0.16850838265E+03 -0.46186078818E+02  0.22545147874E+03  0.12490616725E+03 0.  0.
          5    1    4    4  502    0 -0.82455603845E+02  0.15491088314E+03 -0.47533442273E+00  0.17555234053E+03  0.47000000000E+01 0. -1.
         -5    1    4    4    0  502  0.13909343927E+02  0.13597499512E+02 -0.45710744395E+02  0.49899138215E+02  0.47000000000E+01 0. -1.
          5    1    3    3  503    0  0.59631233383E+02 -0.73387387935E+02 -0.54930584788E+02  0.10945799125E+03  0.47000000000E+01 0. -1.
         -5    1    3    3    0  503  0.89150265344E+01 -0.95120994718E+02  0.56849664126E+02  0.11127198949E+03  0.47000000000E+01 0. -1.
<mgrwt>
<rscale>  0 0.22070871E+03</rscale>
<asrwt>0</asrwt>
<pdfrwt beam="1">  1        5 0.30916497E-01 0.22072164E+03</pdfrwt>
<pdfrwt beam="2">  1       -5 0.37726805E-01 0.22072164E+03</pdfrwt>
<totfact> 0.56466324E+01</totfact>
</mgrwt>
</event>
<event>
 8    1  0.3488953E-007  0.1266115E+03  0.7546771E-02  0.1232592E+00
         -5   -1    0    0    0  501 -0.00000000000E+00  0.00000000000E+00  0.19653692740E+02  0.20207860805E+02  0.47000000000E+01 0. -1.
          5   -1    0    0  501    0  0.00000000000E+00 -0.00000000000E+00 -0.80536342868E+03  0.80537714287E+03  0.47000000000E+01 0. -1.
         25    2    1    2    0    0 -0.10879989816E+02 -0.16533038392E+02 -0.41321335967E+03  0.43217560994E+03  0.12505503459E+03 0.  0.
         25    2    1    2    0    0  0.10879989816E+02  0.16533038392E+02 -0.37249637627E+03  0.39340939374E+03  0.12500274081E+03 0.  0.
          5    1    4    4  502    0  0.41548123817E+02 -0.33067127019E+02 -0.87419332914E+02  0.10239097250E+03  0.47000000000E+01 0.  1.
         -5    1    4    4    0  502 -0.30668134001E+02  0.49600165412E+02 -0.28507704336E+03  0.29101842124E+03  0.47000000000E+01 0.  1.
          5    1    3    3  503    0 -0.10247251273E+02 -0.56020961293E+02 -0.90571854589E+02  0.10709204035E+03  0.47000000000E+01 0.  1.
         -5    1    3    3    0  503 -0.63273854343E+00  0.39487922901E+02 -0.32264150508E+03  0.32508356958E+03  0.47000000000E+01 0.  1.
<mgrwt>
<rscale>  0 0.12659861E+03</rscale>
<asrwt>0</asrwt>
<pdfrwt beam="2">  1        5 0.12394572E+00 0.12661152E+03</pdfrwt>
<pdfrwt beam="1">  1       -5 0.30673289E-02 0.12661152E+03</pdfrwt>
<totfact> 0.18987713E+02</totfact>
</mgrwt>
</event>
<event>
 8    1  0.3488953E-007  0.2524555E+03  0.7546771E-02  0.1111763E+00
          5   -1    0    0  501    0  0.00000000000E+00  0.00000000000E+00  0.11830992570E+04  0.11831085927E+04  0.47000000000E+01 0.  1.
         -5   -1    0    0    0  501 -0.00000000000E+00 -0.00000000000E+00 -0.73103313134E+02  0.73254244868E+02  0.47000000000E+01 0.  1.
         25    2    1    2    0    0 -0.15719639027E+03 -0.15296574065E+03  0.23226080368E+03  0.34304319951E+03  0.12499733147E+03 0.  0.
         25    2    1    2    0    0  0.15719639027E+03  0.15296574065E+03  0.87773514022E+03  0.91331963801E+03  0.12499824749E+03 0.  0.
          5    1    3    3  502    0 -0.70105869760E+02 -0.29938668689E+02  0.15679800564E+03  0.17441003822E+03  0.47000000000E+01 0.  1.
         -5    1    3    3    0  502 -0.87090520510E+02 -0.12302707196E+03  0.75462798039E+02  0.16863316129E+03  0.47000000000E+01 0.  1.
          5    1    4    4  503    0  0.58705940969E+02 -0.75505525126E+01  0.29414473978E+03  0.30007768375E+03  0.47000000000E+01 0. -1.
         -5    1    4    4    0  503  0.98490449301E+02  0.16051629316E+03  0.58359040045E+03  0.61324195426E+03  0.47000000000E+01 0. -1.
<mgrwt>
<rscale>  0 0.25245540E+03</rscale>
<asrwt>0</asrwt>
<pdfrwt beam="1">  1        5 0.18202759E+00 0.25245551E+03</pdfrwt>
<pdfrwt beam="2">  1       -5 0.11258992E-01 0.25245551E+03</pdfrwt>
<totfact> 0.87378392E+00</totfact>
</mgrwt>
</event>
<event>
 8    1  0.3488953E-007  0.1320175E+03  0.7546771E-02  0.1224495E+00
         -5   -1    0    0    0  501 -0.00000000000E+00  0.00000000000E+00  0.11084121586E+02  0.12039424875E+02  0.47000000000E+01 0. -1.
          5   -1    0    0  501    0  0.00000000000E+00 -0.00000000000E+00 -0.15519751608E+04  0.15519822775E+04  0.47000000000E+01 0. -1.
         25    2    1    2    0    0 -0.29748580439E+02 -0.30289499413E+02 -0.63648628150E+03  0.65003339457E+03  0.12500478271E+03 0.  0.
         25    2    1    2    0    0  0.29748580439E+02  0.30289499413E+02 -0.90440475774E+03  0.91398830786E+03  0.12499691702E+03 0.  0.
          5    1    3    3  502    0 -0.46743730910E+02 -0.41396438020E+01 -0.81576786158E+02  0.94228313526E+02  0.47000000000E+01 0.  1.
         -5    1    3    3    0  502  0.16995150471E+02 -0.26149855611E+02 -0.55490949534E+03  0.55580508104E+03  0.47000000000E+01 0.  1.
          5    1    4    4  503    0  0.68313799278E+02  0.49258881482E+02 -0.47685771585E+03  0.48426086332E+03  0.47000000000E+01 0. -1.
         -5    1    4    4    0  503 -0.38565218839E+02 -0.18969382069E+02 -0.42754704189E+03  0.42972744454E+03  0.47000000000E+01 0. -1.
<mgrwt>
<rscale>  0 0.13201567E+03</rscale>
<asrwt>0</asrwt>
<pdfrwt beam="2">  1        5 0.23883928E+00 0.13201753E+03</pdfrwt>
<pdfrwt beam="1">  1       -5 0.17792830E-02 0.13201753E+03</pdfrwt>
<totfact> 0.67233718E+01</totfact>
</mgrwt>
</event>
<event>
 8    1  0.3488953E-007  0.1383314E+03  0.7546771E-02  0.1215597E+00
         -5   -1    0    0    0  501 -0.00000000000E+00  0.00000000000E+00  0.91341772028E+03  0.91342981215E+03  0.47000000000E+01 0.  1.
          5   -1    0    0  501    0  0.00000000000E+00 -0.00000000000E+00 -0.26005349398E+02  0.26426656946E+02  0.47000000000E+01 0.  1.
         25    2    1    2    0    0 -0.22923728660E+02 -0.54633177665E+02  0.65455265733E+03  0.66900736777E+03  0.12498558109E+03 0.  0.
         25    2    1    2    0    0  0.22923728660E+02  0.54633177665E+02  0.23285971356E+03  0.27084910133E+03  0.12500123221E+03 0.  0.
          5    1    4    4  502    0 -0.20517916138E+02  0.60391318368E+02  0.45787765794E+02  0.78655614633E+02  0.47000000000E+01 0.  1.
         -5    1    4    4    0  502  0.43441644798E+02 -0.57581407032E+01  0.18707194776E+03  0.19219348669E+03  0.47000000000E+01 0.  1.
          5    1    3    3  503    0  0.10889900232E+02  0.36546488710E+02  0.24802649276E+03  0.25098499333E+03  0.47000000000E+01 0. -1.
         -5    1    3    3    0  503 -0.33813628892E+02 -0.91179666375E+02  0.40652616457E+03  0.41802237444E+03  0.47000000000E+01 0. -1.
<mgrwt>
<rscale>  0 0.13832791E+03</rscale>
<asrwt>0</asrwt>
<pdfrwt beam="2">  1        5 0.40341610E-02 0.13833145E+03</pdfrwt>
<pdfrwt beam="1">  1       -5 0.14055916E+00 0.13833145E+03</pdfrwt>
<totfact> 0.90090322E+01</totfact>
</mgrwt>
</event>
<event>
 8    1  0.3488953E-007  0.1429340E+03  0.7546771E-02  0.1209435E+00
         -5   -1    0    0    0  501 -0.00000000000E+00  0.00000000000E+00  0.58989805681E+02  0.59176745215E+02  0.47000000000E+01 0.  1.
          5   -1    0    0  501    0  0.00000000000E+00 -0.00000000000E+00 -0.35051733220E+03  0.35054884135E+03  0.47000000000E+01 0.  1.
         25    2    1    2    0    0 -0.34114438886E+02 -0.60327994019E+02 -0.12145672759E+03  0.18756829573E+03  0.12500746811E+03 0.  0.
         25    2    1    2    0    0  0.34114438886E+02  0.60327994019E+02 -0.17007079892E+03  0.22215729083E+03  0.12500609353E+03 0.  0.
          5    1    4    4  502    0  0.27548627460E+02  0.67507097294E+02 -0.18773461676E+03  0.20145101487E+03  0.47000000000E+01 0.  1.
         -5    1    4    4    0  502  0.65658114267E+01 -0.71791032750E+01  0.17663817840E+02  0.20706275962E+02  0.47000000000E+01 0.  1.
          5    1    3    3  503    0  0.13437294367E+02 -0.45880496595E+02  0.81096130837E+01  0.48717929678E+02  0.47000000000E+01 0.  1.
         -5    1    3    3    0  503 -0.47551733254E+02 -0.14447497424E+02 -0.12956634068E+03  0.13885036606E+03  0.47000000000E+01 0.  1.
<mgrwt>
<rscale>  0 0.14293370E+03</rscale>
<asrwt>0</asrwt>
<pdfrwt beam="2">  1        5 0.53942546E-01 0.14293400E+03</pdfrwt>
<pdfrwt beam="1">  1       -5 0.90921586E-02 0.14293400E+03</pdfrwt>
<totfact> 0.22503280E+02</totfact>
</mgrwt>
</event>
<event>
 8    1  0.3488953E-007  0.1344554E+03  0.7546771E-02  0.1220992E+00
          5   -1    0    0  501    0  0.00000000000E+00  0.00000000000E+00  0.96117765186E+02  0.96232607698E+02  0.47000000000E+01 0. -1.
         -5   -1    0    0    0  501 -0.00000000000E+00 -0.00000000000E+00 -0.22435240503E+03  0.22440163022E+03  0.47000000000E+01 0. -1.
         25    2    1    2    0    0  0.14515208320E+02  0.47357075290E+02 -0.12878155156E+03  0.18617769736E+03  0.12499625241E+03 0.  0.
         25    2    1    2    0    0 -0.14515208320E+02 -0.47357075290E+02  0.54691171793E+00  0.13445654056E+03  0.12499951333E+03 0.  0.
          5    1    4    4  502    0 -0.17467265782E+02 -0.87294168089E+02 -0.16530574646E+02  0.90668225164E+02  0.47000000000E+01 0. -1.
         -5    1    4    4    0  502  0.29520574622E+01  0.39937092799E+02  0.17077486364E+02  0.43788315393E+02  0.47000000000E+01 0. -1.
          5    1    3    3  503    0  0.30704445960E+02 -0.34018596797E+02 -0.22512944717E+02  0.51273293337E+02  0.47000000000E+01 0.  1.
         -5    1    3    3    0  503 -0.16189237641E+02  0.81375672087E+02 -0.10626860685E+03  0.13490440402E+03  0.47000000000E+01 0.  1.
<mgrwt>
<rscale>  0 0.13445467E+03</rscale>
<asrwt>0</asrwt>
<pdfrwt beam="1">  1        5 0.14799969E-01 0.13445543E+03</pdfrwt>
<pdfrwt beam="2">  1       -5 0.34528375E-01 0.13445543E+03</pdfrwt>
<totfact> 0.23466009E+02</totfact>
</mgrwt>
</event>
<event>
 8    1  0.3488953E-007  0.1390450E+03  0.7546771E-02  0.1214622E+00
          5   -1    0    0  501    0  0.00000000000E+00  0.00000000000E+00  0.17155055609E+03  0.17161492737E+03  0.47000000000E+01 0.  1.
         -5   -1    0    0    0  501 -0.00000000000E+00 -0.00000000000E+00 -0.11620639728E+03  0.11630140485E+03  0.47000000000E+01 0.  1.
         25    2    1    2    0    0  0.18344728431E+01  0.60872666495E+02  0.21848901543E+01  0.13906219481E+03  0.12499869384E+03 0.  0.
         25    2    1    2    0    0 -0.18344728431E+01 -0.60872666495E+02  0.53159268654E+02  0.14885413741E+03  0.12499119795E+03 0.  0.
          5    1    4    4  502    0  0.53134949204E+02 -0.20438712512E+02  0.56535289220E+02  0.80370347288E+02  0.47000000000E+01 0.  1.
         -5    1    4    4    0  502 -0.54969422047E+02 -0.40433953983E+02 -0.33760205654E+01  0.68483790124E+02  0.47000000000E+01 0.  1.
          5    1    3    3  503    0  0.19354832790E+02 -0.34782978720E+02  0.10239629586E+02  0.41369133119E+02  0.47000000000E+01 0.  1.
         -5    1    3    3    0  503 -0.17520359947E+02  0.95655645215E+02 -0.80547394320E+01  0.97693061686E+02  0.47000000000E+01 0.  1.
<mgrwt>
<rscale>  0 0.13904334E+03</rscale>
<asrwt>0</asrwt>
<pdfrwt beam="1">  1        5 0.26404653E-01 0.13904503E+03</pdfrwt>
<pdfrwt beam="2">  1       -5 0.17890167E-01 0.13904503E+03</pdfrwt>
<totfact> 0.28439346E+02</totfact>
</mgrwt>
</event>
<event>
 8    1  0.3488953E-007  0.1705423E+03  0.7546771E-02  0.1177284E+00
          5   -1    0    0  501    0  0.00000000000E+00  0.00000000000E+00  0.50811533780E+03  0.50813707453E+03  0.47000000000E+01 0.  1.
         -5   -1    0    0    0  501 -0.00000000000E+00 -0.00000000000E+00 -0.73226403906E+02  0.73377082451E+02  0.47000000000E+01 0.  1.
         25    2    1    2    0    0  0.10290806041E+03 -0.53565227050E+02  0.81264924034E+02  0.18891445561E+03  0.12500152484E+03 0.  0.
         25    2    1    2    0    0 -0.10290806041E+03  0.53565227050E+02  0.35362400986E+03  0.39259970137E+03  0.12500113088E+03 0.  0.
          5    1    4    4  502    0 -0.61272091711E+02  0.58913330297E+02  0.33636316875E+03  0.34696876084E+03  0.47000000000E+01 0.  1.
         -5    1    4    4    0  502 -0.41635968695E+02 -0.53481032469E+01  0.17260841109E+02  0.45630940527E+02  0.47000000000E+01 0.  1.
          5    1    3    3  503    0  0.92883660556E+02  0.10416925659E+02  0.81322925624E+02  0.12398142994E+03  0.47000000000E+01 0.  1.
         -5    1    3    3    0  503  0.10024399850E+02 -0.63982152710E+02 -0.58001589729E-01  0.64933025664E+02  0.47000000000E+01 0.  1.
<mgrwt>
<rscale>  0 0.17054225E+03</rscale>
<asrwt>0</asrwt>
<pdfrwt beam="1">  1        5 0.78184855E-01 0.17054232E+03</pdfrwt>
<pdfrwt beam="2">  1       -5 0.11278863E-01 0.17054232E+03</pdfrwt>
<totfact> 0.71310003E+01</totfact>
</mgrwt>
</event>
<event>
 8    1  0.3488953E-007  0.1326429E+03  0.7546771E-02  0.1223587E+00
         -5   -1    0    0    0  501 -0.00000000000E+00  0.00000000000E+00  0.57507311927E+02  0.57699054802E+02  0.47000000000E+01 0. -1.
          5   -1    0    0  501    0  0.00000000000E+00 -0.00000000000E+00 -0.30616237424E+03  0.30619844774E+03  0.47000000000E+01 0. -1.
         25    2    1    2    0    0 -0.43527726380E+02  0.85886714851E+01 -0.13441075141E+03  0.18883956016E+03  0.12500280455E+03 0.  0.
         25    2    1    2    0    0  0.43527726380E+02 -0.85886714851E+01 -0.11424431091E+03  0.17505794239E+03  0.12500036950E+03 0.  0.
          5    1    4    4  502    0  0.24371564378E+02 -0.60690978644E+02 -0.25661695553E+02  0.70412929620E+02  0.47000000000E+01 0. -1.
         -5    1    4    4    0  502  0.19156162002E+02  0.52102307159E+02 -0.88582615354E+02  0.10464501277E+03  0.47000000000E+01 0. -1.
          5    1    3    3  503    0 -0.72329169799E+02  0.29852135094E+02 -0.13088085253E+03  0.15255997618E+03  0.47000000000E+01 0. -1.
         -5    1    3    3    0  503  0.28801443419E+02 -0.21263463608E+02 -0.35298988778E+01  0.36279583980E+02  0.47000000000E+01 0. -1.
<mgrwt>
<rscale>  0 0.13264229E+03</rscale>
<asrwt>0</asrwt>
<pdfrwt beam="2">  1        5 0.47119427E-01 0.13264286E+03</pdfrwt>
<pdfrwt beam="1">  1       -5 0.88648033E-02 0.13264286E+03</pdfrwt>
<totfact> 0.30544746E+02</totfact>
</mgrwt>
</event>
<event>
 8    1  0.3488953E-007  0.2037961E+03  0.7546771E-02  0.1146575E+00
         -5   -1    0    0    0  501 -0.00000000000E+00  0.00000000000E+00  0.51542617683E+03  0.51544760526E+03  0.47000000000E+01 0.  1.
          5   -1    0    0  501    0  0.00000000000E+00 -0.00000000000E+00 -0.81724646972E+02  0.81859684355E+02  0.47000000000E+01 0.  1.
         25    2    1    2    0    0  0.73092418173E+02  0.14341097408E+03  0.25356187992E+03  0.32530980049E+03  0.12499452094E+03 0.  0.
         25    2    1    2    0    0 -0.73092418173E+02 -0.14341097408E+03  0.18013964994E+03  0.27199748912E+03  0.12499252588E+03 0.  0.
          5    1    4    4  502    0 -0.61307202198E+02 -0.37683190945E+02  0.12196107649E+02  0.73139804231E+02  0.47000000000E+01 0. -1.
         -5    1    4    4    0  502 -0.11785215975E+02 -0.10572778314E+03  0.16794354229E+03  0.19885768489E+03  0.47000000000E+01 0. -1.
          5    1    3    3  503    0  0.44185388887E+02  0.52608620737E+02  0.18024758507E+02  0.71182845449E+02  0.47000000000E+01 0. -1.
         -5    1    3    3    0  503  0.28907029286E+02  0.90802353344E+02  0.23553712141E+03  0.25412695504E+03  0.47000000000E+01 0. -1.
<mgrwt>
<rscale>  0 0.20379577E+03</rscale>
<asrwt>0</asrwt>
<pdfrwt beam="2">  1        5 0.12585058E-01 0.20379607E+03</pdfrwt>
<pdfrwt beam="1">  1       -5 0.79308371E-01 0.20379607E+03</pdfrwt>
<totfact> 0.59603749E+01</totfact>
</mgrwt>
</event>
<event>
 8    1  0.3488953E-007  0.1347521E+03  0.7546771E-02  0.1220571E+00
         -5   -1    0    0    0  501 -0.00000000000E+00  0.00000000000E+00  0.27501982151E+03  0.27505997932E+03  0.47000000000E+01 0. -1.
          5   -1    0    0  501    0  0.00000000000E+00 -0.00000000000E+00 -0.67665188390E+02  0.67828222149E+02  0.47000000000E+01 0. -1.
         25    2    1    2    0    0  0.84155764015E+01  0.49616440135E+02  0.13136834924E+03  0.18818830899E+03  0.12499833358E+03 0.  0.
         25    2    1    2    0    0 -0.84155764015E+01 -0.49616440135E+02  0.75986283875E+02  0.15469989248E+03  0.12500211334E+03 0.  0.
          5    1    3    3  502    0  0.63233590764E+02  0.79191262846E+01  0.78589304869E+02  0.10128952760E+03  0.47000000000E+01 0.  1.
         -5    1    3    3    0  502 -0.54818014362E+02  0.41697313850E+02  0.52779044375E+02  0.86898781384E+02  0.47000000000E+01 0.  1.
          5    1    4    4  503    0 -0.58198170180E+02 -0.41947220713E+02  0.75295946300E+02  0.10410651213E+03  0.47000000000E+01 0.  1.
         -5    1    4    4    0  503  0.49782593779E+02 -0.76692194214E+01  0.69033757571E+00  0.50593380356E+02  0.47000000000E+01 0.  1.
<mgrwt>
<rscale>  0 0.13475127E+03</rscale>
<asrwt>0</asrwt>
<pdfrwt beam="2">  1        5 0.10425659E-01 0.13475215E+03</pdfrwt>
<pdfrwt beam="1">  1       -5 0.42326372E-01 0.13475215E+03</pdfrwt>
<totfact> 0.28954347E+02</totfact>
</mgrwt>
</event>
<event>
 8    1  0.3488953E-007  0.1818583E+03  0.7546771E-02  0.1166022E+00
          5   -1    0    0  501    0  0.00000000000E+00  0.00000000000E+00  0.41521398413E+03  0.41524058402E+03  0.47000000000E+01 0. -1.
         -5   -1    0    0    0  501 -0.00000000000E+00 -0.00000000000E+00 -0.94077633167E+02  0.94194963041E+02  0.47000000000E+01 0. -1.
         25    2    1    2    0    0 -0.26636604111E+01  0.13203066832E+03  0.60541694362E+02  0.19167095255E+03  0.12503305496E+03 0.  0.
         25    2    1    2    0    0  0.26636604111E+01 -0.13203066832E+03  0.26059465660E+03  0.31776459451E+03  0.12500228003E+03 0.  0.
          5    1    4    4  502    0  0.60680732668E+02 -0.78706905557E+02  0.17515040627E+03  0.20143654861E+03  0.47000000000E+01 0.  1.
         -5    1    4    4    0  502 -0.58017072257E+02 -0.53323762761E+02  0.85444250329E+02  0.11632804590E+03  0.47000000000E+01 0.  1.
          5    1    3    3  503    0  0.10892901702E+02 -0.20395325712E+01 -0.27921521825E+02  0.30405860975E+02  0.47000000000E+01 0. -1.
         -5    1    3    3    0  503 -0.13556562113E+02  0.13407020089E+03  0.88463216187E+02  0.16126509158E+03  0.47000000000E+01 0. -1.
<mgrwt>
<rscale>  0 0.18185305E+03</rscale>
<asrwt>0</asrwt>
<pdfrwt beam="1">  1        5 0.63890147E-01 0.18185834E+03</pdfrwt>
<pdfrwt beam="2">  1       -5 0.14484553E-01 0.18185834E+03</pdfrwt>
<totfact> 0.73362062E+01</totfact>
</mgrwt>
</event>
<event>
 8    1  0.3488953E-007  0.1287381E+03  0.7546771E-02  0.1229346E+00
          5   -1    0    0  501    0  0.00000000000E+00  0.00000000000E+00  0.58550136316E+02  0.58738475147E+02  0.47000000000E+01 0.  1.
         -5   -1    0    0    0  501 -0.00000000000E+00 -0.00000000000E+00 -0.28237102127E+03  0.28241013376E+03  0.47000000000E+01 0.  1.
         25    2    1    2    0    0 -0.26981177957E+02  0.14709252057E+02 -0.11209895584E+03  0.17070347016E+03  0.12501660995E+03 0.  0.
         25    2    1    2    0    0  0.26981177957E+02 -0.14709252057E+02 -0.11172192911E+03  0.17044513875E+03  0.12500163926E+03 0.  0.
          5    1    4    4  502    0  0.61536721586E+02 -0.15122886878E+02 -0.11821761639E+02  0.64632142617E+02  0.47000000000E+01 0.  1.
         -5    1    4    4    0  502 -0.34555543629E+02  0.41363482118E+00 -0.99900167476E+02  0.10581299613E+03  0.47000000000E+01 0.  1.
          5    1    3    3  503    0 -0.61057805151E+02 -0.10644216449E+02 -0.14018203846E+02  0.63717775799E+02  0.47000000000E+01 0.  1.
         -5    1    3    3    0  503  0.34076627194E+02  0.25353468505E+02 -0.98080751989E+02  0.10698569436E+03  0.47000000000E+01 0.  1.
<mgrwt>
<rscale>  0 0.12873447E+03</rscale>
<asrwt>0</asrwt>
<pdfrwt beam="1">  1        5 0.90252097E-02 0.12873810E+03</pdfrwt>
<pdfrwt beam="2">  1       -5 0.43459191E-01 0.12873810E+03</pdfrwt>
<totfact> 0.34666439E+02</totfact>
</mgrwt>
</event>
<event>
 8    1  0.3488953E-007  0.1398769E+03  0.7546771E-02  0.1213495E+00
          5   -1    0    0  501    0  0.00000000000E+00  0.00000000000E+00  0.19912055568E+02  0.20459226695E+02  0.47000000000E+01 0.  1.
         -5   -1    0    0    0  501 -0.00000000000E+00 -0.00000000000E+00 -0.10530156484E+04  0.10530261372E+04  0.47000000000E+01 0.  1.
         25    2    1    2    0    0 -0.33136950244E+02 -0.53310374811E+02 -0.66837902061E+03  0.68285875147E+03  0.12500202292E+03 0.  0.
         25    2    1    2    0    0  0.33136950244E+02  0.53310374811E+02 -0.36472457218E+03  0.39062661245E+03  0.12500033308E+03 0.  0.
          5    1    3    3  502    0  0.33021620660E+02  0.11553272168E+02 -0.83297349763E+02  0.90467917001E+02  0.47000000000E+01 0.  1.
         -5    1    3    3    0  502 -0.66158570904E+02 -0.64863646979E+02 -0.58508167085E+03  0.59239083447E+03  0.47000000000E+01 0.  1.
          5    1    4    4  503    0  0.13785646503E+02 -0.40708335394E+02 -0.97891069091E+02  0.10701384970E+03  0.47000000000E+01 0. -1.
         -5    1    4    4    0  503  0.19351303741E+02  0.94018710206E+02 -0.26683350309E+03  0.28361276275E+03  0.47000000000E+01 0. -1.
<mgrwt>
<rscale>  0 0.13987657E+03</rscale>
<asrwt>0</asrwt>
<pdfrwt beam="1">  1        5 0.31062909E-02 0.13987694E+03</pdfrwt>
<pdfrwt beam="2">  1       -5 0.16204526E+00 0.13987694E+03</pdfrwt>
<totfact> 0.93728678E+01</totfact>
</mgrwt>
</event>
<event>
 8    1  0.3488953E-007  0.1550554E+03  0.7546771E-02  0.1194396E+00
          5   -1    0    0  501    0  0.00000000000E+00  0.00000000000E+00  0.76813174744E+02  0.76956830849E+02  0.47000000000E+01 0.  1.
         -5   -1    0    0    0  501 -0.00000000000E+00 -0.00000000000E+00 -0.31342527210E+03  0.31346050978E+03  0.47000000000E+01 0.  1.
         25    2    1    2    0    0  0.85172771263E+02  0.34095454006E+02 -0.10791645227E+03  0.18891115954E+03  0.12499825831E+03 0.  0.
         25    2    1    2    0    0 -0.85172771263E+02 -0.34095454006E+02 -0.12869564509E+03  0.20150618108E+03  0.12500108401E+03 0.  0.
          5    1    4    4  502    0 -0.26459705278E+02  0.63614691125E+01  0.21618443718E+02  0.35071803510E+02  0.47000000000E+01 0.  1.
         -5    1    4    4    0  502 -0.58713065985E+02 -0.40456923118E+02 -0.15031408880E+03  0.16643437757E+03  0.47000000000E+01 0.  1.
          5    1    3    3  503    0  0.16598783106E+02  0.23897524724E+02 -0.11532344255E+03  0.11903023855E+03  0.47000000000E+01 0. -1.
         -5    1    3    3    0  503  0.68573988157E+02  0.10197929282E+02  0.74069902797E+01  0.69880920990E+02  0.47000000000E+01 0. -1.
<mgrwt>
<rscale>  0 0.15505481E+03</rscale>
<asrwt>0</asrwt>
<pdfrwt beam="1">  1        5 0.11831173E-01 0.15505538E+03</pdfrwt>
<pdfrwt beam="2">  1       -5 0.48233033E-01 0.15505538E+03</pdfrwt>
<totfact> 0.18488472E+02</totfact>
</mgrwt>
</event>
<event>
 8    1  0.3488953E-007  0.1301585E+03  0.7546771E-02  0.1227221E+00
          5   -1    0    0  501    0  0.00000000000E+00  0.00000000000E+00  0.34311944206E+02  0.34632347815E+02  0.47000000000E+01 0. -1.
         -5   -1    0    0    0  501 -0.00000000000E+00 -0.00000000000E+00 -0.49763663647E+03  0.49765883088E+03  0.47000000000E+01 0. -1.
         25    2    1    2    0    0 -0.27869937102E+02 -0.23237986448E+02 -0.26212531720E+03  0.29266140457E+03  0.12499711357E+03 0.  0.
         25    2    1    2    0    0  0.27869937102E+02  0.23237986448E+02 -0.20119937506E+03  0.23962977413E+03  0.12499801084E+03 0.  0.
          5    1    4    4  502    0  0.12249156954E+02  0.14237947446E+02  0.13830973775E+02  0.23793840150E+02  0.47000000000E+01 0. -1.
         -5    1    4    4    0  502  0.15620780148E+02  0.90000390027E+01 -0.21503034884E+03  0.21583593398E+03  0.47000000000E+01 0. -1.
          5    1    3    3  503    0 -0.23596308324E+02  0.46419572690E+02 -0.16418151680E+03  0.17230560918E+03  0.47000000000E+01 0.  1.
         -5    1    3    3    0  503 -0.42736287784E+01 -0.69657559138E+02 -0.97943800404E+02  0.12035579540E+03  0.47000000000E+01 0.  1.
<mgrwt>
<rscale>  0 0.13015830E+03</rscale>
<asrwt>0</asrwt>
<pdfrwt beam="1">  1        5 0.53051147E-02 0.13015852E+03</pdfrwt>
<pdfrwt beam="2">  1       -5 0.76585831E-01 0.13015852E+03</pdfrwt>
<totfact> 0.25010969E+02</totfact>
</mgrwt>
</event>
<event>
 8    1  0.3488953E-007  0.1251115E+03  0.7546771E-02  0.1234898E+00
          5   -1    0    0  501    0  0.00000000000E+00  0.00000000000E+00  0.11623740877E+03  0.11633239101E+03  0.47000000000E+01 0.  1.
         -5   -1    0    0    0  501 -0.00000000000E+00 -0.00000000000E+00 -0.13533746022E+03  0.13541904644E+03  0.47000000000E+01 0.  1.
         25    2    1    2    0    0 -0.22665106777E+01 -0.45546927295E+01 -0.19663923936E+02  0.12664741850E+03  0.12500806539E+03 0.  0.
         25    2    1    2    0    0  0.22665106777E+01  0.45546927295E+01  0.56387248836E+00  0.12510401895E+03  0.12499926123E+03 0.  0.
          5    1    3    3  502    0  0.38317759826E+02 -0.40729677334E+02 -0.39455252124E+02  0.68600031006E+02  0.47000000000E+01 0. -1.
         -5    1    3    3    0  502 -0.40584270504E+02  0.36174984604E+02  0.19791328188E+02  0.58047387494E+02  0.47000000000E+01 0. -1.
          5    1    4    4  503    0  0.38761256718E+02  0.47842017896E+02 -0.19647288350E+02  0.64802774927E+02  0.47000000000E+01 0. -1.
         -5    1    4    4    0  503 -0.36494746040E+02 -0.43287325166E+02  0.20211160838E+02  0.60301244025E+02  0.47000000000E+01 0. -1.
<mgrwt>
<rscale>  0 0.12510935E+03</rscale>
<asrwt>0</asrwt>
<pdfrwt beam="1">  1        5 0.17896260E-01 0.12511155E+03</pdfrwt>
<pdfrwt beam="2">  1       -5 0.20834730E-01 0.12511155E+03</pdfrwt>
<totfact> 0.42925814E+02</totfact>
</mgrwt>
</event>
<event>
 8    1  0.3488953E-007  0.1434753E+03  0.7546771E-02  0.1208730E+00
         -5   -1    0    0    0  501 -0.00000000000E+00  0.00000000000E+00  0.26054161833E+02  0.26474692611E+02  0.47000000000E+01 0. -1.
          5   -1    0    0  501    0  0.00000000000E+00 -0.00000000000E+00 -0.16690938794E+04  0.16691004968E+04  0.47000000000E+01 0. -1.
         25    2    1    2    0    0 -0.54198826189E+02  0.44978053411E+02 -0.20400086203E+03  0.24940230240E+03  0.12499847473E+03 0.  0.
         25    2    1    2    0    0  0.54198826189E+02 -0.44978053411E+02 -0.14390388556E+04  0.14461728870E+04  0.12499061240E+03 0.  0.
          5    1    4    4  502    0  0.42516602271E+02  0.11598809146E+02 -0.16598314724E+03  0.17179839641E+03  0.47000000000E+01 0.  1.
         -5    1    4    4    0  502  0.11682223917E+02 -0.56576862557E+02 -0.12730557083E+04  0.12743744906E+04  0.47000000000E+01 0.  1.
          5    1    3    3  503    0 -0.71915182611E+01  0.75669898100E+02 -0.67620796525E+02  0.10184455575E+03  0.47000000000E+01 0. -1.
         -5    1    3    3    0  503 -0.47007307927E+02 -0.30691844688E+02 -0.13638006550E+03  0.14755774665E+03  0.47000000000E+01 0. -1.
<mgrwt>
<rscale>  0 0.14347357E+03</rscale>
<asrwt>0</asrwt>
<pdfrwt beam="2">  1        5 0.25681645E+00 0.14347528E+03</pdfrwt>
<pdfrwt beam="1">  1       -5 0.40411914E-02 0.14347528E+03</pdfrwt>
<totfact> 0.14141678E+01</totfact>
</mgrwt>
</event>
<event>
 8    1  0.3488953E-007  0.1449249E+03  0.7546771E-02  0.1206855E+00
          5   -1    0    0  501    0  0.00000000000E+00  0.00000000000E+00  0.20578873938E+03  0.20584240393E+03  0.47000000000E+01 0.  1.
         -5   -1    0    0    0  501 -0.00000000000E+00 -0.00000000000E+00 -0.11261467190E+03  0.11271270704E+03  0.47000000000E+01 0.  1.
         25    2    1    2    0    0 -0.40362447380E+02 -0.61209039389E+02 -0.24301752318E+01  0.14494530604E+03  0.12501024890E+03 0.  0.
         25    2    1    2    0    0  0.40362447380E+02  0.61209039389E+02  0.95604242710E+02  0.17360980493E+03  0.12499807792E+03 0.  0.
          5    1    3    3  502    0 -0.20397346683E+02 -0.92903705687E+02 -0.28100787396E+02  0.99291966112E+02  0.47000000000E+01 0.  1.
         -5    1    3    3    0  502 -0.19965100696E+02  0.31694666298E+02  0.25670612165E+02  0.45653339927E+02  0.47000000000E+01 0.  1.
          5    1    4    4  503    0 -0.21350465927E+02  0.67390182845E+02  0.84763375177E+02  0.11047261611E+03  0.47000000000E+01 0.  1.
         -5    1    4    4    0  503  0.61712913307E+02 -0.61811434558E+01  0.10840867532E+02  0.63137188820E+02  0.47000000000E+01 0.  1.
<mgrwt>
<rscale>  0 0.14492231E+03</rscale>
<asrwt>0</asrwt>
<pdfrwt beam="1">  1        5 0.31671475E-01 0.14492493E+03</pdfrwt>
<pdfrwt beam="2">  1       -5 0.17337004E-01 0.14492493E+03</pdfrwt>
<totfact> 0.21416722E+02</totfact>
</mgrwt>
</event>
<event>
 8    1  0.3488953E-007  0.1598782E+03  0.7546771E-02  0.1188835E+00
          5   -1    0    0  501    0  0.00000000000E+00  0.00000000000E+00  0.56314529144E+03  0.56316490415E+03  0.47000000000E+01 0. -1.
         -5   -1    0    0    0  501 -0.00000000000E+00 -0.00000000000E+00 -0.63624102438E+02  0.63797463986E+02  0.47000000000E+01 0. -1.
         25    2    1    2    0    0  0.40235626023E+02 -0.91198326112E+02  0.81580979259E+02  0.17948604308E+03  0.12499497269E+03 0.  0.
         25    2    1    2    0    0 -0.40235626023E+02  0.91198326112E+02  0.41794020974E+03  0.44747632505E+03  0.12500000912E+03 0.  0.
          5    1    3    3  502    0  0.79506589079E+02 -0.29607632783E+02  0.56807295731E+02  0.10221090193E+03  0.47000000000E+01 0.  1.
         -5    1    3    3    0  502 -0.39270963056E+02 -0.61590693329E+02  0.24773683528E+02  0.77275141150E+02  0.47000000000E+01 0.  1.
          5    1    4    4  503    0 -0.11769275832E+02  0.11644237122E+03  0.35453414191E+03  0.37338169404E+03  0.47000000000E+01 0.  1.
         -5    1    4    4    0  503 -0.28466350191E+02 -0.25244045107E+02  0.63406067832E+02  0.74094631010E+02  0.47000000000E+01 0.  1.
<mgrwt>
<rscale>  0 0.15987723E+03</rscale>
<asrwt>0</asrwt>
<pdfrwt beam="1">  1        5 0.86652579E-01 0.15987821E+03</pdfrwt>
<pdfrwt beam="2">  1       -5 0.98031679E-02 0.15987821E+03</pdfrwt>
<totfact> 0.70445747E+01</totfact>
</mgrwt>
</event>
<event>
 8    1  0.3488953E-007  0.1311245E+03  0.7546771E-02  0.1225797E+00
          5   -1    0    0  501    0  0.00000000000E+00  0.00000000000E+00  0.84544420016E+03  0.84545726420E+03  0.47000000000E+01 0.  1.
         -5   -1    0    0    0  501 -0.00000000000E+00 -0.00000000000E+00 -0.22746066201E+02  0.23226569433E+02  0.47000000000E+01 0.  1.
         25    2    1    2    0    0  0.26849924698E+01 -0.39502234461E+02  0.26355761817E+03  0.29437434633E+03  0.12500400780E+03 0.  0.
         25    2    1    2    0    0 -0.26849924698E+01  0.39502234461E+02  0.55914051579E+03  0.57430948731E+03  0.12500254037E+03 0.  0.
          5    1    3    3  502    0 -0.38380272664E+02 -0.44238826009E+02  0.51058146423E+02  0.77840499565E+02  0.47000000000E+01 0.  1.
         -5    1    3    3    0  502  0.41065265134E+02  0.47365915479E+01  0.21249947175E+03  0.21653384676E+03  0.47000000000E+01 0.  1.
          5    1    4    4  503    0 -0.60794689381E+02  0.36723511310E+02  0.26238017852E+03  0.27186404436E+03  0.47000000000E+01 0.  1.
         -5    1    4    4    0  503  0.58109696911E+02  0.27787231515E+01  0.29676033727E+03  0.30244544294E+03  0.47000000000E+01 0.  1.
<mgrwt>
<rscale>  0 0.13112416E+03</rscale>
<asrwt>0</asrwt>
<pdfrwt beam="1">  1        5 0.13010630E+00 0.13112451E+03</pdfrwt>
<pdfrwt beam="2">  1       -5 0.35373616E-02 0.13112451E+03</pdfrwt>
<totfact> 0.13455459E+02</totfact>
</mgrwt>
</event>
<event>
 8    1  0.3488953E-007  0.1297307E+03  0.7546771E-02  0.1227860E+00
         -5   -1    0    0    0  501 -0.00000000000E+00  0.00000000000E+00  0.34147864259E+02  0.34469793058E+02  0.47000000000E+01 0. -1.
          5   -1    0    0  501    0  0.00000000000E+00 -0.00000000000E+00 -0.55546298169E+03  0.55548286565E+03  0.47000000000E+01 0. -1.
         25    2    1    2    0    0  0.87509408465E+00 -0.34670989248E+02 -0.15956662580E+03  0.20564915203E+03  0.12500888920E+03 0.  0.
         25    2    1    2    0    0 -0.87509408465E+00  0.34670989248E+02 -0.36174849164E+03  0.38430350668E+03  0.12499748300E+03 0.  0.
          5    1    4    4  502    0  0.58642411896E+02  0.37489187505E+02 -0.18440675456E+03  0.19716062685E+03  0.47000000000E+01 0.  1.
         -5    1    4    4    0  502 -0.59517505981E+02 -0.28181982569E+01 -0.17734173708E+03  0.18714287982E+03  0.47000000000E+01 0.  1.
          5    1    3    3  503    0  0.58897054281E+02 -0.35725459568E+02 -0.66438450435E+02  0.95819252557E+02  0.47000000000E+01 0. -1.
         -5    1    3    3    0  503 -0.58021960197E+02  0.10544703196E+01 -0.93128175362E+02  0.10982989948E+03  0.47000000000E+01 0. -1.
<mgrwt>
<rscale>  0 0.12972800E+03</rscale>
<asrwt>0</asrwt>
<pdfrwt beam="2">  1        5 0.85482130E-01 0.12973074E+03</pdfrwt>
<pdfrwt beam="1">  1       -5 0.52798113E-02 0.12973074E+03</pdfrwt>
<totfact> 0.19522796E+02</totfact>
</mgrwt>
</event>
<event>
 8    1  0.3488953E-007  0.1260283E+03  0.7546771E-02  0.1233473E+00
         -5   -1    0    0    0  501 -0.00000000000E+00  0.00000000000E+00  0.98158761074E+03  0.98159886285E+03  0.47000000000E+01 0.  1.
          5   -1    0    0  501    0  0.00000000000E+00 -0.00000000000E+00 -0.16186497570E+02  0.16855049795E+02  0.47000000000E+01 0.  1.
         25    2    1    2    0    0  0.20890156046E+01  0.15898650534E+02  0.55551317866E+03  0.56962848410E+03  0.12499834862E+03 0.  0.
         25    2    1    2    0    0 -0.20890156046E+01 -0.15898650534E+02  0.40988793451E+03  0.42882542855E+03  0.12500399290E+03 0.  0.
          5    1    4    4  502    0  0.39158165201E+00 -0.28489582243E+02  0.12942892534E+02  0.31645190784E+02  0.47000000000E+01 0. -1.
         -5    1    4    4    0  502 -0.24805972566E+01  0.12590931710E+02  0.39694504197E+03  0.39718023776E+03  0.47000000000E+01 0. -1.
          5    1    3    3  503    0 -0.23669233495E+02 -0.34590514335E+02  0.42718059264E+03  0.42925759751E+03  0.47000000000E+01 0.  1.
         -5    1    3    3    0  503  0.25758249099E+02  0.50489164869E+02  0.12833258602E+03  0.14037088659E+03  0.47000000000E+01 0.  1.
<mgrwt>
<rscale>  0 0.12602689E+03</rscale>
<asrwt>0</asrwt>
<pdfrwt beam="2">  1        5 0.25425222E-02 0.12602829E+03</pdfrwt>
<pdfrwt beam="1">  1       -5 0.15106582E+00 0.12602829E+03</pdfrwt>
<totfact> 0.15196986E+02</totfact>
</mgrwt>
</event>
<event>
 8    1  0.3488953E-007  0.1361100E+03  0.7546771E-02  0.1218662E+00
          5   -1    0    0  501    0  0.00000000000E+00  0.00000000000E+00  0.49293749668E+03  0.49295990266E+03  0.47000000000E+01 0.  1.
         -5   -1    0    0    0  501 -0.00000000000E+00 -0.00000000000E+00 -0.64617188464E+02  0.64787892734E+02  0.47000000000E+01 0.  1.
         25    2    1    2    0    0 -0.52948940331E+02 -0.98683630315E+01  0.33564074909E+02  0.14018533614E+03  0.12499762587E+03 0.  0.
         25    2    1    2    0    0  0.52948940331E+02  0.98683630315E+01  0.39475623331E+03  0.41756245926E+03  0.12499979511E+03 0.  0.
          5    1    4    4  502    0 -0.38720063774E+02 -0.82768301345E+01  0.83220504260E+02  0.92279421244E+02  0.47000000000E+01 0. -1.
         -5    1    4    4    0  502  0.91669004105E+02  0.18145193166E+02  0.31153572905E+03  0.32528303802E+03  0.47000000000E+01 0. -1.
          5    1    3    3  503    0 -0.42768947291E+02 -0.62090340300E+02  0.41494835557E+02  0.86187612734E+02  0.47000000000E+01 0. -1.
         -5    1    3    3    0  503 -0.10179993040E+02  0.52221977269E+02 -0.79307606482E+01  0.53997723402E+02  0.47000000000E+01 0. -1.
<mgrwt>
<rscale>  0 0.13610947E+03</rscale>
<asrwt>0</asrwt>
<pdfrwt beam="1">  1        5 0.75851390E-01 0.13610997E+03</pdfrwt>
<pdfrwt beam="2">  1       -5 0.99559608E-02 0.13610997E+03</pdfrwt>
<totfact> 0.88866935E+01</totfact>
</mgrwt>
</event>
<event>
 8    1  0.3488953E-007  0.1384709E+03  0.7546771E-02  0.1215423E+00
         -5   -1    0    0    0  501 -0.00000000000E+00  0.00000000000E+00  0.43083505142E+02  0.43339109536E+02  0.47000000000E+01 0.  1.
          5   -1    0    0  501    0  0.00000000000E+00 -0.00000000000E+00 -0.56525824021E+03  0.56527777962E+03  0.47000000000E+01 0.  1.
         25    2    1    2    0    0  0.33990963186E+02 -0.48754667254E+02 -0.11970183229E+03  0.18298957061E+03  0.12499700452E+03 0.  0.
         25    2    1    2    0    0 -0.33990963186E+02  0.48754667254E+02 -0.40247290278E+03  0.42562731855E+03  0.12506707667E+03 0.  0.
          5    1    4    4  502    0  0.35571922143E+02 -0.19548807269E+02 -0.12065664039E+03  0.12738772461E+03  0.47000000000E+01 0.  1.
         -5    1    4    4    0  502 -0.69562885329E+02  0.68303474524E+02 -0.28181626238E+03  0.29823959394E+03  0.47000000000E+01 0.  1.
          5    1    3    3  503    0  0.10652278698E+01 -0.84618716371E+02 -0.97747716230E+02  0.12937607159E+03  0.47000000000E+01 0.  1.
         -5    1    3    3    0  503  0.32925735316E+02  0.35864049116E+02 -0.21954116064E+02  0.53613499021E+02  0.47000000000E+01 0.  1.
<mgrwt>
<rscale>  0 0.13845503E+03</rscale>
<asrwt>0</asrwt>
<pdfrwt beam="2">  1        5 0.86983966E-01 0.13847085E+03</pdfrwt>
<pdfrwt beam="1">  1       -5 0.66493969E-02 0.13847085E+03</pdfrwt>
<totfact> 0.13005973E+02</totfact>
</mgrwt>
</event>
<event>
 8    1  0.3488953E-007  0.1297019E+03  0.7546771E-02  0.1227900E+00
          5   -1    0    0  501    0  0.00000000000E+00  0.00000000000E+00  0.14435068646E+03  0.14442718124E+03  0.47000000000E+01 0.  1.
         -5   -1    0    0    0  501 -0.00000000000E+00 -0.00000000000E+00 -0.11645262725E+03  0.11654743409E+03  0.47000000000E+01 0.  1.
         25    2    1    2    0    0  0.33061498965E+02 -0.10160910423E+02  0.10715087392E+02  0.13014374543E+03  0.12500509814E+03 0.  0.
         25    2    1    2    0    0 -0.33061498965E+02  0.10160910423E+02  0.17182971815E+02  0.13083086990E+03  0.12500062074E+03 0.  0.
          5    1    4    4  502    0 -0.86597335272E+01  0.42380883917E+02  0.58456616356E+02  0.72872466008E+02  0.47000000000E+01 0.  1.
         -5    1    4    4    0  502 -0.24401765438E+02 -0.32219973494E+02 -0.41273644541E+02  0.57958403896E+02  0.47000000000E+01 0.  1.
          5    1    3    3  503    0  0.27090737287E+02  0.37582523830E+02  0.49650052697E+02  0.68070345063E+02  0.47000000000E+01 0.  1.
         -5    1    3    3    0  503  0.59707616780E+01 -0.47743434253E+02 -0.38934965305E+02  0.62073400362E+02  0.47000000000E+01 0.  1.
<mgrwt>
<rscale>  0 0.12970082E+03</rscale>
<asrwt>0</asrwt>
<pdfrwt beam="1">  1        5 0.22220975E-01 0.12970189E+03</pdfrwt>
<pdfrwt beam="2">  1       -5 0.17928966E-01 0.12970189E+03</pdfrwt>
<totfact> 0.38414678E+02</totfact>
</mgrwt>
</event>
<event>
 8    1  0.3488953E-007  0.1447540E+03  0.7546771E-02  0.1207074E+00
         -5   -1    0    0    0  501 -0.00000000000E+00  0.00000000000E+00  0.10978351453E+03  0.10988407557E+03  0.47000000000E+01 0.  1.
          5   -1    0    0  501    0  0.00000000000E+00 -0.00000000000E+00 -0.23438561580E+03  0.23443273426E+03  0.47000000000E+01 0.  1.
         25    2    1    2    0    0  0.10933433940E+02 -0.72167915470E+02  0.12052170826E+02  0.14524868623E+03  0.12499671207E+03 0.  0.
         25    2    1    2    0    0 -0.10933433940E+02  0.72167915470E+02 -0.13665427209E+03  0.19906812360E+03  0.12500391894E+03 0.  0.
          5    1    3    3  502    0  0.69968719860E+01  0.20653258249E+02 -0.34611596038E+02  0.41177249473E+02  0.47000000000E+01 0.  1.
         -5    1    3    3    0  502  0.39365619539E+01 -0.92821173720E+02  0.46663766864E+02  0.10407143676E+03  0.47000000000E+01 0.  1.
          5    1    4    4  503    0 -0.81562609090E+01  0.83518711097E+02 -0.26399295965E+02  0.88096041470E+02  0.47000000000E+01 0.  1.
         -5    1    4    4    0  503 -0.27771730309E+01 -0.11350795626E+02 -0.11025497613E+03  0.11097208213E+03  0.47000000000E+01 0.  1.
<mgrwt>
<rscale>  0 0.14475247E+03</rscale>
<asrwt>0</asrwt>
<pdfrwt beam="2">  1        5 0.36070685E-01 0.14475402E+03</pdfrwt>
<pdfrwt beam="1">  1       -5 0.16901131E-01 0.14475402E+03</pdfrwt>
<totfact> 0.17301987E+02</totfact>
</mgrwt>
</event>
<event>
 8    1  0.3488953E-007  0.2127637E+03  0.7546771E-02  0.1139398E+00
         -5   -1    0    0    0  501 -0.00000000000E+00  0.00000000000E+00  0.14289389631E+03  0.14297117053E+03  0.47000000000E+01 0. -1.
          5   -1    0    0  501    0  0.00000000000E+00 -0.00000000000E+00 -0.32257292672E+03  0.32260716522E+03  0.47000000000E+01 0. -1.
         25    2    1    2    0    0  0.17082883077E+03 -0.21415477919E+02 -0.58172386057E+02  0.22056355051E+03  0.12499256456E+03 0.  0.
         25    2    1    2    0    0 -0.17082883077E+03  0.21415477919E+02 -0.12150664435E+03  0.24501478525E+03  0.12500907267E+03 0.  0.
          5    1    4    4  502    0 -0.59676710995E+02  0.25210838149E+02 -0.11674378673E+03  0.13359677367E+03  0.47000000000E+01 0.  1.
         -5    1    4    4    0  502 -0.11115211978E+03 -0.37953602298E+01 -0.47628576178E+01  0.11141801157E+03  0.47000000000E+01 0.  1.
          5    1    3    3  503    0  0.67006159436E+02  0.51391777555E+02 -0.35192609376E+02  0.91605403538E+02  0.47000000000E+01 0.  1.
         -5    1    3    3    0  503  0.10382267134E+03 -0.72807255474E+02 -0.22979776682E+02  0.12895814697E+03  0.47000000000E+01 0.  1.
<mgrwt>
<rscale>  0 0.21276125E+03</rscale>
<asrwt>0</asrwt>
<pdfrwt beam="2">  1        5 0.49635182E-01 0.21276367E+03</pdfrwt>
<pdfrwt beam="1">  1       -5 0.21992254E-01 0.21276367E+03</pdfrwt>
<totfact> 0.61128464E+01</totfact>
</mgrwt>
</event>
<event>
 8    1  0.3488953E-007  0.1260570E+03  0.7546771E-02  0.1233432E+00
         -5   -1    0    0    0  501 -0.00000000000E+00  0.00000000000E+00  0.23435157160E+02  0.23901811461E+02  0.47000000000E+01 0. -1.
          5   -1    0    0  501    0  0.00000000000E+00 -0.00000000000E+00 -0.84165374090E+03  0.84166686377E+03  0.47000000000E+01 0. -1.
         25    2    1    2    0    0  0.16134907696E+02 -0.24290342631E+01 -0.21417253871E+03  0.24850952985E+03  0.12498349745E+03 0.  0.
         25    2    1    2    0    0 -0.16134907696E+02  0.24290342631E+01 -0.60404604502E+03  0.61705914538E+03  0.12499651569E+03 0.  0.
          5    1    3    3  502    0  0.86544968442E+01  0.10466553829E+02 -0.22750867575E+03  0.22796213854E+03  0.47000000000E+01 0. -1.
         -5    1    3    3    0  502  0.74804108516E+01 -0.12895588092E+02  0.13336137037E+02  0.20547391314E+02  0.47000000000E+01 0. -1.
          5    1    4    4  503    0 -0.30292907974E+02 -0.12365741674E+02 -0.59183670477E+03  0.59275909689E+03  0.47000000000E+01 0.  1.
         -5    1    4    4    0  503  0.14158000278E+02  0.14794775937E+02 -0.12209340257E+02  0.24300048486E+02  0.47000000000E+01 0.  1.
<mgrwt>
<rscale>  0 0.12605376E+03</rscale>
<asrwt>0</asrwt>
<pdfrwt beam="2">  1        5 0.12952207E+00 0.12605699E+03</pdfrwt>
<pdfrwt beam="1">  1       -5 0.36423154E-02 0.12605699E+03</pdfrwt>
<totfact> 0.12808829E+02</totfact>
</mgrwt>
</event>
<event>
 8    1  0.3488953E-007  0.1641133E+03  0.7546771E-02  0.1184132E+00
         -5   -1    0    0    0  501 -0.00000000000E+00  0.00000000000E+00  0.92239564010E+03  0.92240761427E+03  0.47000000000E+01 0.  1.
          5   -1    0    0  501    0  0.00000000000E+00 -0.00000000000E+00 -0.29923693543E+02  0.30290550263E+02  0.47000000000E+01 0.  1.
         25    2    1    2    0    0  0.49063477192E+02  0.94327327427E+02  0.52954610162E+03  0.55439131573E+03  0.12500315087E+03 0.  0.
         25    2    1    2    0    0 -0.49063477192E+02 -0.94327327427E+02  0.36292584494E+03  0.39830684880E+03  0.12501322885E+03 0.  0.
          5    1    3    3  502    0  0.74029919024E+01  0.66396488774E+02  0.91144743714E+02  0.11310504992E+03  0.47000000000E+01 0. -1.
         -5    1    3    3    0  502  0.41660485290E+02  0.27930838653E+02  0.43840135791E+03  0.44128626581E+03  0.47000000000E+01 0. -1.
          5    1    4    4  503    0  0.32401717559E+02 -0.17387051152E+02  0.32272737952E+02  0.49150793111E+02  0.47000000000E+01 0. -1.
         -5    1    4    4    0  503 -0.81465194751E+02 -0.76940276274E+02  0.33065310698E+03  0.34915605569E+03  0.47000000000E+01 0. -1.
<mgrwt>
<rscale>  0 0.16411139E+03</rscale>
<asrwt>0</asrwt>
<pdfrwt beam="2">  1        5 0.46327855E-02 0.16411331E+03</pdfrwt>
<pdfrwt beam="1">  1       -5 0.14193618E+00 0.16411331E+03</pdfrwt>
<totfact> 0.73502767E+01</totfact>
</mgrwt>
</event>
<event>
 8    1  0.3488953E-007  0.1350147E+03  0.7546771E-02  0.1220200E+00
          5   -1    0    0  501    0  0.00000000000E+00  0.00000000000E+00  0.37342567457E+02  0.37637180345E+02  0.47000000000E+01 0.  1.
         -5   -1    0    0    0  501 -0.00000000000E+00 -0.00000000000E+00 -0.63145407719E+03  0.63147156833E+03  0.47000000000E+01 0.  1.
         25    2    1    2    0    0 -0.50827695681E+02  0.44502837113E+01 -0.45763342020E+03  0.47713447621E+03  0.12500280567E+03 0.  0.
         25    2    1    2    0    0  0.50827695681E+02 -0.44502837113E+01 -0.13647808953E+03  0.19197427246E+03  0.12499837076E+03 0.  0.
          5    1    3    3  502    0 -0.27261241225E+02  0.64453218120E+02 -0.22393199825E+03  0.23465937535E+03  0.47000000000E+01 0.  1.
         -5    1    3    3    0  502 -0.23566454456E+02 -0.60002934409E+02 -0.23370142195E+03  0.24247510085E+03  0.47000000000E+01 0.  1.
          5    1    4    4  503    0  0.90146534584E+02  0.13282767530E+02 -0.85614348183E+02  0.12511888836E+03  0.47000000000E+01 0. -1.
         -5    1    4    4    0  503 -0.39318838902E+02 -0.17733051241E+02 -0.50863741350E+02  0.66855384100E+02  0.47000000000E+01 0. -1.
<mgrwt>
<rscale>  0 0.13501364E+03</rscale>
<asrwt>0</asrwt>
<pdfrwt beam="1">  1        5 0.57690188E-02 0.13501467E+03</pdfrwt>
<pdfrwt beam="2">  1       -5 0.97170782E-01 0.13501467E+03</pdfrwt>
<totfact> 0.12584829E+02</totfact>
</mgrwt>
</event>
<event>
 8    1  0.3488953E-007  0.1346760E+03  0.7546771E-02  0.1220682E+00
          5   -1    0    0  501    0  0.00000000000E+00  0.00000000000E+00  0.23610257069E+02  0.24073517376E+02  0.47000000000E+01 0.  1.
         -5   -1    0    0    0  501 -0.00000000000E+00 -0.00000000000E+00 -0.77823759915E+03  0.77825179134E+03  0.47000000000E+01 0.  1.
         25    2    1    2    0    0 -0.90387382764E+01 -0.49273262578E+02 -0.43833417257E+03  0.45855357653E+03  0.12499993007E+03 0.  0.
         25    2    1    2    0    0  0.90387382764E+01  0.49273262578E+02 -0.31629316951E+03  0.34377173218E+03  0.12501232569E+03 0.  0.
          5    1    3    3  502    0 -0.53644288467E+02 -0.46787248175E+01 -0.93779395712E+02  0.10824169812E+03  0.47000000000E+01 0. -1.
         -5    1    3    3    0  502  0.44605550191E+02 -0.44594537760E+02 -0.34455477686E+03  0.35031187842E+03  0.47000000000E+01 0. -1.
          5    1    4    4  503    0 -0.28597350262E+02  0.31417022472E+01 -0.86811626643E+01  0.30415971466E+02  0.47000000000E+01 0.  1.
         -5    1    4    4    0  503  0.37636088538E+02  0.46131560331E+02 -0.30761200685E+03  0.31335576072E+03  0.47000000000E+01 0.  1.
<mgrwt>
<rscale>  0 0.13467316E+03</rscale>
<asrwt>0</asrwt>
<pdfrwt beam="1">  1        5 0.36690750E-02 0.13467604E+03</pdfrwt>
<pdfrwt beam="2">  1       -5 0.11976557E+00 0.13467604E+03</pdfrwt>
<totfact> 0.15829405E+02</totfact>
</mgrwt>
</event>
<event>
 8    1  0.3488953E-007  0.1302652E+03  0.7546771E-02  0.1227066E+00
          5   -1    0    0  501    0  0.00000000000E+00  0.00000000000E+00  0.77735736387E+03  0.77737157213E+03  0.47000000000E+01 0.  1.
         -5   -1    0    0    0  501 -0.00000000000E+00 -0.00000000000E+00 -0.22262148675E+02  0.22752873744E+02  0.47000000000E+01 0.  1.
         25    2    1    2    0    0  0.33416822268E+02 -0.15053614920E+02  0.30732568633E+03  0.33379350628E+03  0.12500292806E+03 0.  0.
         25    2    1    2    0    0 -0.33416822268E+02  0.15053614920E+02  0.44776952886E+03  0.46633093960E+03  0.12499479555E+03 0.  0.
          5    1    4    4  502    0 -0.16503200770E+01 -0.30096520851E+00  0.42285230731E+03  0.42288175408E+03  0.47000000000E+01 0. -1.
         -5    1    4    4    0  502 -0.31766502191E+02  0.15354580129E+02  0.24917221559E+02  0.43449185522E+02  0.47000000000E+01 0. -1.
          5    1    3    3  503    0 -0.12360238061E+02 -0.11439507338E+02 -0.49122900633E+01  0.18162004480E+02  0.47000000000E+01 0. -1.
         -5    1    3    3    0  503  0.45777060329E+02 -0.36141075822E+01  0.31223797639E+03  0.31563150180E+03  0.47000000000E+01 0. -1.
<mgrwt>
<rscale>  0 0.13026327E+03</rscale>
<asrwt>0</asrwt>
<pdfrwt beam="1">  1        5 0.11963229E+00 0.13026522E+03</pdfrwt>
<pdfrwt beam="2">  1       -5 0.34637866E-02 0.13026522E+03</pdfrwt>
<totfact> 0.17241688E+02</totfact>
</mgrwt>
</event>
<event>
 8    1  0.3488953E-007  0.1645975E+03  0.7546771E-02  0.1183603E+00
          5   -1    0    0  501    0  0.00000000000E+00  0.00000000000E+00  0.51551652170E+02  0.51765459927E+02  0.47000000000E+01 0.  1.
         -5   -1    0    0    0  501 -0.00000000000E+00 -0.00000000000E+00 -0.57697237147E+03  0.57699151418E+03  0.47000000000E+01 0.  1.
         25    2    1    2    0    0 -0.18191849576E+02  0.10552685101E+03 -0.35775464965E+03  0.39380291658E+03  0.12500195234E+03 0.  0.
         25    2    1    2    0    0  0.18191849576E+02 -0.10552685101E+03 -0.16766606965E+03  0.23495405753E+03  0.12499855424E+03 0.  0.
          5    1    4    4  502    0  0.28474571631E+02 -0.57220404452E+01  0.98202500042E+01  0.31017257883E+02  0.47000000000E+01 0.  1.
         -5    1    4    4    0  502 -0.10282722056E+02 -0.99804810566E+02 -0.17748631966E+03  0.20393679965E+03  0.47000000000E+01 0.  1.
          5    1    3    3  503    0 -0.40732719681E+02  0.12173125013E+03 -0.33063557133E+03  0.35471061830E+03  0.47000000000E+01 0.  1.
         -5    1    3    3    0  503  0.22540870105E+02 -0.16204399115E+02 -0.27119078323E+02  0.39092298281E+02  0.47000000000E+01 0.  1.
<mgrwt>
<rscale>  0 0.16459689E+03</rscale>
<asrwt>0</asrwt>
<pdfrwt beam="1">  1        5 0.79489431E-02 0.16459753E+03</pdfrwt>
<pdfrwt beam="2">  1       -5 0.88782895E-01 0.16459753E+03</pdfrwt>
<totfact> 0.96454616E+01</totfact>
</mgrwt>
</event>
<event>
 8    1  0.3488953E-007  0.1321670E+03  0.7546771E-02  0.1224292E+00
          5   -1    0    0  501    0  0.00000000000E+00  0.00000000000E+00  0.26838155584E+03  0.26842270678E+03  0.47000000000E+01 0.  1.
         -5   -1    0    0    0  501 -0.00000000000E+00 -0.00000000000E+00 -0.10260259486E+03  0.10271018679E+03  0.47000000000E+01 0.  1.
         25    2    1    2    0    0  0.79684567973E+01 -0.42043808352E+02 -0.29440951175E+02  0.13540635115E+03  0.12504771969E+03 0.  0.
         25    2    1    2    0    0 -0.79684567973E+01  0.42043808352E+02  0.19521991216E+03  0.23572654242E+03  0.12500004230E+03 0.  0.
          5    1    4    4  502    0 -0.40904924903E+02 -0.30969494296E+02  0.84996342867E+02  0.99392106120E+02  0.47000000000E+01 0. -1.
         -5    1    4    4    0  502  0.32936468106E+02  0.73013302648E+02  0.11022356929E+03  0.13633443630E+03  0.47000000000E+01 0. -1.
          5    1    3    3  503    0 -0.44675223713E+02 -0.50341563431E+02  0.10973602295E+02  0.68356847279E+02  0.47000000000E+01 0. -1.
         -5    1    3    3    0  503  0.52643680510E+02  0.82977550796E+01 -0.40414553471E+02  0.67049503870E+02  0.47000000000E+01 0. -1.
<mgrwt>
<rscale>  0 0.13215570E+03</rscale>
<asrwt>0</asrwt>
<pdfrwt beam="1">  1        5 0.41300911E-01 0.13216698E+03</pdfrwt>
<pdfrwt beam="2">  1       -5 0.15796457E-01 0.13216698E+03</pdfrwt>
<totfact> 0.14421630E+02</totfact>
</mgrwt>
</event>
<event>
 8    1  0.3488953E-007  0.1266259E+03  0.7546771E-02  0.1232556E+00
          5   -1    0    0  501    0  0.00000000000E+00  0.00000000000E+00  0.54498061764E+03  0.54500088403E+03  0.47000000000E+01 0.  1.
         -5   -1    0    0    0  501 -0.00000000000E+00 -0.00000000000E+00 -0.33998180165E+02  0.34321512999E+02  0.47000000000E+01 0.  1.
         25    2    1    2    0    0 -0.30412483325E+01 -0.19967193409E+02  0.14737456156E+03  0.19430232230E+03  0.12500477213E+03 0.  0.
         25    2    1    2    0    0  0.30412483325E+01  0.19967193409E+02  0.36360787591E+03  0.38502007473E+03  0.12498732942E+03 0.  0.
          5    1    4    4  502    0 -0.49206836042E+02  0.22709265963E+02  0.80997178491E+02  0.97568726534E+02  0.47000000000E+01 0. -1.
         -5    1    4    4    0  502  0.52248084375E+02 -0.27420725542E+01  0.28261069742E+03  0.28745134819E+03  0.47000000000E+01 0. -1.
          5    1    3    3  503    0 -0.19175730828E+02 -0.52465864576E+02  0.16537592285E+02  0.58446193692E+02  0.47000000000E+01 0.  1.
         -5    1    3    3    0  503  0.16134482496E+02  0.32498671167E+02  0.13083696927E+03  0.13585612861E+03  0.47000000000E+01 0.  1.
<mgrwt>
<rscale>  0 0.12662164E+03</rscale>
<asrwt>0</asrwt>
<pdfrwt beam="1">  1        5 0.83869600E-01 0.12662595E+03</pdfrwt>
<pdfrwt beam="2">  1       -5 0.52569201E-02 0.12662595E+03</pdfrwt>
<totfact> 0.20384111E+02</totfact>
</mgrwt>
</event>
<event>
 8    1  0.3488953E-007  0.2294170E+03  0.7546771E-02  0.1127051E+00
          5   -1    0    0  501    0  0.00000000000E+00  0.00000000000E+00  0.23291726853E+03  0.23296468397E+03  0.47000000000E+01 0. -1.
         -5   -1    0    0    0  501 -0.00000000000E+00 -0.00000000000E+00 -0.26320322265E+03  0.26324518308E+03  0.47000000000E+01 0. -1.
         25    2    1    2    0    0 -0.24927087805E+02  0.19074963741E+03 -0.10856340853E+03  0.25380627918E+03  0.12499931920E+03 0.  0.
         25    2    1    2    0    0  0.24927087805E+02 -0.19074963741E+03  0.78277454412E+02  0.24240358787E+03  0.12500142265E+03 0.  0.
          5    1    3    3  502    0  0.32185286900E+02  0.71513623894E+02 -0.91211069999E+02  0.12038122937E+03  0.47000000000E+01 0. -1.
         -5    1    3    3    0  502 -0.57112374704E+02  0.11923601352E+03 -0.17352338536E+02  0.13342504981E+03  0.47000000000E+01 0. -1.
          5    1    4    4  503    0  0.28077872373E+02 -0.16023352731E+03  0.49945893113E+01  0.16281948936E+03  0.47000000000E+01 0. -1.
         -5    1    4    4    0  503 -0.31507845680E+01 -0.30516110102E+02  0.73282865100E+02  0.79584098515E+02  0.47000000000E+01 0. -1.
<mgrwt>
<rscale>  0 0.22941667E+03</rscale>
<asrwt>0</asrwt>
<pdfrwt beam="1">  1        5 0.35840301E-01 0.22941696E+03</pdfrwt>
<pdfrwt beam="2">  1       -5 0.40499678E-01 0.22941696E+03</pdfrwt>
<totfact> 0.36626906E+01</totfact>
</mgrwt>
</event>
<event>
 8    1  0.3488953E-007  0.1287961E+03  0.7546771E-02  0.1229258E+00
          5   -1    0    0  501    0  0.00000000000E+00  0.00000000000E+00  0.19928390414E+03  0.19933931988E+03  0.47000000000E+01 0.  1.
         -5   -1    0    0    0  501 -0.00000000000E+00 -0.00000000000E+00 -0.85078454469E+02  0.85208176924E+02  0.47000000000E+01 0.  1.
         25    2    1    2    0    0 -0.19421105558E+02 -0.24155701134E+02  0.35429264370E+02  0.13358016047E+03  0.12501099655E+03 0.  0.
         25    2    1    2    0    0  0.19421105558E+02  0.24155701134E+02  0.78776185302E+02  0.15096733633E+03  0.12499908812E+03 0.  0.
          5    1    3    3  502    0  0.15585028258E+02  0.14891669584E+02  0.68121036535E+02  0.71604612613E+02  0.47000000000E+01 0. -1.
         -5    1    3    3    0  502 -0.35006133816E+02 -0.39047370718E+02 -0.32691772166E+02  0.61975547856E+02  0.47000000000E+01 0. -1.
          5    1    4    4  503    0  0.14222071511E+02  0.64205521656E+02  0.42434191654E+01  0.66065974113E+02  0.47000000000E+01 0. -1.
         -5    1    4    4    0  503  0.51990340472E+01 -0.40049820523E+02  0.74532766136E+02  0.84901362220E+02  0.47000000000E+01 0. -1.
<mgrwt>
<rscale>  0 0.12879318E+03</rscale>
<asrwt>0</asrwt>
<pdfrwt beam="1">  1        5 0.30673303E-01 0.12879607E+03</pdfrwt>
<pdfrwt beam="2">  1       -5 0.13103234E-01 0.12879607E+03</pdfrwt>
<totfact> 0.36365459E+02</totfact>
</mgrwt>
</event>
<event>
 8    1  0.3488953E-007  0.1302793E+03  0.7546771E-02  0.1227045E+00
         -5   -1    0    0    0  501 -0.00000000000E+00  0.00000000000E+00  0.15100948661E+02  0.15815456062E+02  0.47000000000E+01 0.  1.
          5   -1    0    0  501    0  0.00000000000E+00 -0.00000000000E+00 -0.11159964852E+04  0.11160063821E+04  0.47000000000E+01 0.  1.
         25    2    1    2    0    0 -0.52238724302E+01  0.36315787414E+02 -0.47696677964E+03  0.49443672469E+03  0.12499696232E+03 0.  0.
         25    2    1    2    0    0  0.52238724302E+01 -0.36315787414E+02 -0.62392875689E+03  0.63738511349E+03  0.12500625574E+03 0.  0.
          5    1    3    3  502    0  0.36285252230E+02 -0.12220760111E+02 -0.52400996109E+02  0.65068586125E+02  0.47000000000E+01 0. -1.
         -5    1    3    3    0  502 -0.41509124660E+02  0.48536547526E+02 -0.42456578353E+03  0.42936813857E+03  0.47000000000E+01 0. -1.
          5    1    4    4  503    0  0.54141803285E+01 -0.81135341014E+02 -0.46958480897E+03  0.47659651670E+03  0.47000000000E+01 0. -1.
         -5    1    4    4    0  503 -0.19030789832E+00  0.44819553599E+02 -0.15434394791E+03  0.16078859680E+03  0.47000000000E+01 0. -1.
<mgrwt>
<rscale>  0 0.13027704E+03</rscale>
<asrwt>0</asrwt>
<pdfrwt beam="2">  1        5 0.17174743E+00 0.13027927E+03</pdfrwt>
<pdfrwt beam="1">  1       -5 0.23789472E-02 0.13027927E+03</pdfrwt>
<totfact> 0.11930525E+02</totfact>
</mgrwt>
</event>
<event>
 8    1  0.3488953E-007  0.1398876E+03  0.7546771E-02  0.1213482E+00
          5   -1    0    0  501    0  0.00000000000E+00  0.00000000000E+00  0.26931596939E+02  0.27338634086E+02  0.47000000000E+01 0. -1.
         -5   -1    0    0    0  501 -0.00000000000E+00 -0.00000000000E+00 -0.90217580409E+03  0.90218804663E+03  0.47000000000E+01 0. -1.
         25    2    1    2    0    0  0.19229752212E+02 -0.59772077085E+02 -0.64600669344E+03  0.66097803018E+03  0.12499929538E+03 0.  0.
         25    2    1    2    0    0 -0.19229752212E+02  0.59772077085E+02 -0.22923751371E+03  0.26854865054E+03  0.12500422170E+03 0.  0.
          5    1    3    3  502    0 -0.14512759638E+02  0.24430276702E+02 -0.35400445710E+03  0.35517418861E+03  0.47000000000E+01 0.  1.
         -5    1    3    3    0  502  0.33742511851E+02 -0.84202353787E+02 -0.29200223634E+03  0.30580384157E+03  0.47000000000E+01 0.  1.
          5    1    4    4  503    0 -0.13115244709E+02 -0.38597956496E+02 -0.73664893754E+02  0.84323297263E+02  0.47000000000E+01 0.  1.
         -5    1    4    4    0  503 -0.61145075038E+01  0.98370033581E+02 -0.15557261996E+03  0.18422535328E+03  0.47000000000E+01 0.  1.
<mgrwt>
<rscale>  0 0.13988650E+03</rscale>
<asrwt>0</asrwt>
<pdfrwt beam="1">  1        5 0.41755756E-02 0.13988760E+03</pdfrwt>
<pdfrwt beam="2">  1       -5 0.13882851E+00 0.13988760E+03</pdfrwt>
<totfact> 0.88301315E+01</totfact>
</mgrwt>
</event>
<event>
 8    1  0.3488953E-007  0.1265244E+03  0.7546771E-02  0.1232707E+00
         -5   -1    0    0    0  501 -0.00000000000E+00  0.00000000000E+00  0.83206121293E+01  0.95562851677E+01  0.47000000000E+01 0. -1.
          5   -1    0    0  501    0  0.00000000000E+00 -0.00000000000E+00 -0.17971296779E+04  0.17971358238E+04  0.47000000000E+01 0. -1.
         25    2    1    2    0    0 -0.17254282692E+02 -0.92342926976E+01 -0.83626833822E+03  0.84578552329E+03  0.12500174185E+03 0.  0.
         25    2    1    2    0    0  0.17254282692E+02  0.92342926976E+01 -0.95254072752E+03  0.96090658565E+03  0.12499858529E+03 0.  0.
          5    1    3    3  502    0 -0.56354664941E+02  0.19898241004E+02 -0.23503707718E+03  0.24256196303E+03  0.47000000000E+01 0.  1.
         -5    1    3    3    0  502  0.39100382249E+02 -0.29132533701E+02 -0.60123126104E+03  0.60322356027E+03  0.47000000000E+01 0.  1.
          5    1    4    4  503    0  0.33180613111E+02 -0.52515882696E+02 -0.50202970091E+03  0.50588020481E+03  0.47000000000E+01 0. -1.
         -5    1    4    4    0  503 -0.15926330419E+02  0.61750175394E+02 -0.45051102661E+03  0.45502638084E+03  0.47000000000E+01 0. -1.
<mgrwt>
<rscale>  0 0.12652360E+03</rscale>
<asrwt>0</asrwt>
<pdfrwt beam="2">  1        5 0.27657673E+00 0.12652438E+03</pdfrwt>
<pdfrwt beam="1">  1       -5 0.13756201E-02 0.12652438E+03</pdfrwt>
<totfact> 0.57516401E+01</totfact>
</mgrwt>
</event>
<event>
 8    1  0.3488953E-007  0.1390536E+03  0.7546771E-02  0.1214613E+00
         -5   -1    0    0    0  501 -0.00000000000E+00  0.00000000000E+00  0.83452149632E+02  0.83584396140E+02  0.47000000000E+01 0.  1.
          5   -1    0    0  501    0  0.00000000000E+00 -0.00000000000E+00 -0.23282146003E+03  0.23286889499E+03  0.47000000000E+01 0.  1.
         25    2    1    2    0    0  0.29706769069E+02  0.53183558283E+02 -0.62059899429E+02  0.15226183131E+03  0.12498500373E+03 0.  0.
         25    2    1    2    0    0 -0.29706769069E+02 -0.53183558283E+02 -0.87309410973E+02  0.16419145982E+03  0.12499967693E+03 0.  0.
          5    1    4    4  502    0 -0.78064908915E+02 -0.43212115872E+02 -0.53076606420E+02  0.10392609447E+03  0.47000000000E+01 0. -1.
         -5    1    4    4    0  502  0.48358139846E+02 -0.99714424111E+01 -0.34232804554E+02  0.60265365349E+02  0.47000000000E+01 0. -1.
          5    1    3    3  503    0 -0.19820346175E+02 -0.32603058513E+02 -0.78247187205E+01  0.39231642458E+02  0.47000000000E+01 0. -1.
         -5    1    3    3    0  503  0.49527115244E+02  0.85786616797E+02 -0.54235180709E+02  0.11303018885E+03  0.47000000000E+01 0. -1.
<mgrwt>
<rscale>  0 0.13905030E+03</rscale>
<asrwt>0</asrwt>
<pdfrwt beam="2">  1        5 0.35832508E-01 0.13905359E+03</pdfrwt>
<pdfrwt beam="1">  1       -5 0.12852614E-01 0.13905359E+03</pdfrwt>
<totfact> 0.28386990E+02</totfact>
</mgrwt>
</event>
<event>
 8    1  0.3488953E-007  0.1441562E+03  0.7546771E-02  0.1207845E+00
         -5   -1    0    0    0  501 -0.00000000000E+00  0.00000000000E+00  0.14355596312E+03  0.14363288115E+03  0.47000000000E+01 0. -1.
          5   -1    0    0  501    0  0.00000000000E+00 -0.00000000000E+00 -0.14523010568E+03  0.14530613750E+03  0.47000000000E+01 0. -1.
         25    2    1    2    0    0  0.28383345745E+02 -0.65949708649E+02 -0.10342370112E+02  0.14452245041E+03  0.12499918266E+03 0.  0.
         25    2    1    2    0    0 -0.28383345745E+02  0.65949708649E+02  0.86682275513E+01  0.14441656824E+03  0.12500411444E+03 0.  0.
          5    1    3    3  502    0  0.53523617571E+02 -0.36731674404E+02  0.43393786034E+02  0.78224703315E+02  0.47000000000E+01 0. -1.
         -5    1    3    3    0  502 -0.25140271825E+02 -0.29218034244E+02 -0.53736156145E+02  0.66297747094E+02  0.47000000000E+01 0. -1.
          5    1    4    4  503    0 -0.22229832922E+02  0.17285648501E+02  0.64147431191E+02  0.70213546017E+02  0.47000000000E+01 0.  1.
         -5    1    4    4    0  503 -0.61535128235E+01  0.48664060147E+02 -0.55479203640E+02  0.74203022220E+02  0.47000000000E+01 0.  1.
<mgrwt>
<rscale>  0 0.14415512E+03</rscale>
<asrwt>0</asrwt>
<pdfrwt beam="2">  1        5 0.22354859E-01 0.14415619E+03</pdfrwt>
<pdfrwt beam="1">  1       -5 0.22097298E-01 0.14415619E+03</pdfrwt>
<totfact> 0.26680955E+02</totfact>
</mgrwt>
</event>
<event>
 8    1  0.3488953E-007  0.1340191E+03  0.7546771E-02  0.1221618E+00
         -5   -1    0    0    0  501 -0.00000000000E+00  0.00000000000E+00  0.58082236868E+02  0.58272087997E+02  0.47000000000E+01 0. -1.
          5   -1    0    0  501    0  0.00000000000E+00 -0.00000000000E+00 -0.32014495247E+03  0.32017945061E+03  0.47000000000E+01 0. -1.
         25    2    1    2    0    0 -0.45393214228E+02 -0.16460664583E+02 -0.94929641936E+02  0.16423383587E+03  0.12501847284E+03 0.  0.
         25    2    1    2    0    0  0.45393214228E+02  0.16460664583E+02 -0.16713307367E+03  0.21421770274E+03  0.12499704986E+03 0.  0.
          5    1    4    4  502    0  0.21386728925E+02 -0.54331244975E+02 -0.82802275647E+02  0.10142772405E+03  0.47000000000E+01 0. -1.
         -5    1    4    4    0  502  0.24006485303E+02  0.70791909558E+02 -0.84330798024E+02  0.11278997868E+03  0.47000000000E+01 0. -1.
          5    1    3    3  503    0  0.33958880383E+02 -0.21937704554E+02 -0.53316282480E+00  0.40704332700E+02  0.47000000000E+01 0. -1.
         -5    1    3    3    0  503 -0.79352094611E+02  0.54770399719E+01 -0.94396479111E+02  0.12352950317E+03  0.47000000000E+01 0. -1.
<mgrwt>
<rscale>  0 0.13401409E+03</rscale>
<asrwt>0</asrwt>
<pdfrwt beam="2">  1        5 0.49270326E-01 0.13401909E+03</pdfrwt>
<pdfrwt beam="1">  1       -5 0.89529866E-02 0.13401909E+03</pdfrwt>
<totfact> 0.27430621E+02</totfact>
</mgrwt>
</event>
<event>
 8    1  0.3488953E-007  0.1307659E+03  0.7546771E-02  0.1226329E+00
         -5   -1    0    0    0  501 -0.00000000000E+00  0.00000000000E+00  0.10980587695E+03  0.10990641752E+03  0.47000000000E+01 0.  1.
          5   -1    0    0  501    0  0.00000000000E+00 -0.00000000000E+00 -0.16113761532E+03  0.16120614465E+03  0.47000000000E+01 0.  1.
         25    2    1    2    0    0 -0.13008321810E+02 -0.36137012744E+02 -0.33329595812E+00  0.13076631453E+03  0.12499847121E+03 0.  0.
         25    2    1    2    0    0  0.13008321810E+02  0.36137012744E+02 -0.50998442420E+02  0.14034624764E+03  0.12498451092E+03 0.  0.
          5    1    4    4  502    0  0.19487554373E+02  0.44302179920E+02  0.30925993250E+02  0.57627727524E+02  0.47000000000E+01 0. -1.
         -5    1    4    4    0  502 -0.64792325635E+01 -0.81651671766E+01 -0.81924435670E+02  0.82718520112E+02  0.47000000000E+01 0. -1.
          5    1    3    3  503    0 -0.40951584938E+02  0.34967020190E+02  0.31445418513E+01  0.54145202496E+02  0.47000000000E+01 0. -1.
         -5    1    3    3    0  503  0.27943263128E+02 -0.71104032934E+02 -0.34778378094E+01  0.76621112035E+02  0.47000000000E+01 0. -1.
<mgrwt>
<rscale>  0 0.13076255E+03</rscale>
<asrwt>0</asrwt>
<pdfrwt beam="2">  1        5 0.24803408E-01 0.13076589E+03</pdfrwt>
<pdfrwt beam="1">  1       -5 0.16906217E-01 0.13076589E+03</pdfrwt>
<totfact> 0.34828698E+02</totfact>
</mgrwt>
</event>
<event>
 8    1  0.3488953E-007  0.1404241E+03  0.7546771E-02  0.1212760E+00
          5   -1    0    0  501    0  0.00000000000E+00  0.00000000000E+00  0.19054208138E+03  0.19060003876E+03  0.47000000000E+01 0. -1.
         -5   -1    0    0    0  501 -0.00000000000E+00 -0.00000000000E+00 -0.10886886868E+03  0.10897027378E+03  0.47000000000E+01 0. -1.
         25    2    1    2    0    0  0.63935635977E+02 -0.24943635772E+01  0.71712308487E+01  0.14060708676E+03  0.12499975560E+03 0.  0.
         25    2    1    2    0    0 -0.63935635977E+02  0.24943635772E+01  0.74501981850E+02  0.15896322578E+03  0.12499909781E+03 0.  0.
          5    1    3    3  502    0 -0.23005734610E+02  0.36291612226E+02 -0.83801269449E+01  0.44030233596E+02  0.47000000000E+01 0.  1.
         -5    1    3    3    0  502  0.86941370587E+02 -0.38785975804E+02  0.15551357794E+02  0.96576853168E+02  0.47000000000E+01 0.  1.
          5    1    4    4  503    0  0.18179446345E+02 -0.33330495387E+02  0.55260178946E+02  0.67210055567E+02  0.47000000000E+01 0.  1.
         -5    1    4    4    0  503 -0.82115082322E+02  0.35824858965E+02  0.19241802904E+02  0.91753170210E+02  0.47000000000E+01 0.  1.
<mgrwt>
<rscale>  0 0.14042395E+03</rscale>
<asrwt>0</asrwt>
<pdfrwt beam="1">  1        5 0.29326425E-01 0.14042409E+03</pdfrwt>
<pdfrwt beam="2">  1       -5 0.16761316E-01 0.14042409E+03</pdfrwt>
<totfact> 0.26230600E+02</totfact>
</mgrwt>
</event>
<event>
 8    1  0.3488953E-007  0.1272597E+03  0.7546771E-02  0.1231583E+00
          5   -1    0    0  501    0  0.00000000000E+00  0.00000000000E+00  0.42330190528E+03  0.42332799697E+03  0.47000000000E+01 0.  1.
         -5   -1    0    0    0  501 -0.00000000000E+00 -0.00000000000E+00 -0.38140656664E+02  0.38429151575E+02  0.47000000000E+01 0.  1.
         25    2    1    2    0    0  0.19027028934E+02 -0.14343744813E+02  0.18375725410E+03  0.22351649154E+03  0.12500049084E+03 0.  0.
         25    2    1    2    0    0 -0.19027028934E+02  0.14343744813E+02  0.20140399452E+03  0.23824065700E+03  0.12500908286E+03 0.  0.
          5    1    3    3  502    0  0.35103022620E+02  0.31919131575E+02  0.16349716523E+03  0.17030697636E+03  0.47000000000E+01 0. -1.
         -5    1    3    3    0  502 -0.16075993686E+02 -0.46262876388E+02  0.20260088872E+02  0.53209515181E+02  0.47000000000E+01 0. -1.
          5    1    4    4  503    0 -0.20780408949E+02 -0.50910649138E+02  0.13081421147E+03  0.14197946159E+03  0.47000000000E+01 0. -1.
         -5    1    4    4    0  503  0.17533800148E+01  0.65254393951E+02  0.70589783048E+02  0.96261195412E+02  0.47000000000E+01 0. -1.
<mgrwt>
<rscale>  0 0.12725763E+03</rscale>
<asrwt>0</asrwt>
<pdfrwt beam="1">  1        5 0.65147568E-01 0.12725974E+03</pdfrwt>
<pdfrwt beam="2">  1       -5 0.58919924E-02 0.12725974E+03</pdfrwt>
<totfact> 0.29978217E+02</totfact>
</mgrwt>
</event>
<event>
 8    1  0.3488953E-007  0.1615054E+03  0.7546771E-02  0.1187012E+00
         -5   -1    0    0    0  501 -0.00000000000E+00  0.00000000000E+00  0.79441251837E+02  0.79580163944E+02  0.47000000000E+01 0. -1.
          5   -1    0    0  501    0  0.00000000000E+00 -0.00000000000E+00 -0.59696808434E+03  0.59698658588E+03  0.47000000000E+01 0. -1.
         25    2    1    2    0    0 -0.92921966039E+02 -0.42723521195E+02 -0.31679059233E+02  0.16458294446E+03  0.12499676707E+03 0.  0.
         25    2    1    2    0    0  0.92921966039E+02  0.42723521195E+02 -0.48584777327E+03  0.51198380536E+03  0.12497826662E+03 0.  0.
          5    1    3    3  502    0 -0.29996741162E+02  0.11488446781E+02  0.42255690850E+02  0.53286229919E+02  0.47000000000E+01 0.  1.
         -5    1    3    3    0  502 -0.62925224877E+02 -0.54211967976E+02 -0.73934750084E+02  0.11129671454E+03  0.47000000000E+01 0.  1.
          5    1    4    4  503    0  0.80131929647E+02  0.13478061537E+02 -0.46817312165E+03  0.47519569245E+03  0.47000000000E+01 0.  1.
         -5    1    4    4    0  503  0.12790036392E+02  0.29245459658E+02 -0.17674651620E+02  0.36788112909E+02  0.47000000000E+01 0. -1.
<mgrwt>
<rscale>  0 0.16150179E+03</rscale>
<asrwt>0</asrwt>
<pdfrwt beam="2">  1        5 0.91853350E-01 0.16150536E+03</pdfrwt>
<pdfrwt beam="1">  1       -5 0.12233840E-01 0.16150536E+03</pdfrwt>
<totfact> 0.41623450E+01</totfact>
</mgrwt>
</event>
<event>
 8    1  0.3488953E-007  0.1272000E+03  0.7546771E-02  0.1231672E+00
         -5   -1    0    0    0  501 -0.00000000000E+00  0.00000000000E+00  0.10754241482E+03  0.10764506949E+03  0.47000000000E+01 0. -1.
          5   -1    0    0  501    0  0.00000000000E+00 -0.00000000000E+00 -0.17701260102E+03  0.17707498672E+03  0.47000000000E+01 0. -1.
         25    2    1    2    0    0  0.18854887075E+02  0.14099167640E+02  0.20606111545E+02  0.12885824650E+03  0.12500217023E+03 0.  0.
         25    2    1    2    0    0 -0.18854887075E+02 -0.14099167640E+02 -0.90076297745E+02  0.15586180971E+03  0.12499948406E+03 0.  0.
          5    1    4    4  502    0  0.39589484281E+02  0.88513496131E+01 -0.82997310985E+02  0.92500363709E+02  0.47000000000E+01 0. -1.
         -5    1    4    4    0  502 -0.58444371356E+02 -0.22950517253E+02 -0.70789867604E+01  0.63361445997E+02  0.47000000000E+01 0. -1.
          5    1    3    3  503    0 -0.25267319177E+02  0.52417220994E+02  0.35556927269E+02  0.68354864874E+02  0.47000000000E+01 0. -1.
         -5    1    3    3    0  503  0.44122206252E+02 -0.38318053355E+02 -0.14950815723E+02  0.60503381626E+02  0.47000000000E+01 0. -1.
<mgrwt>
<rscale>  0 0.12719932E+03</rscale>
<asrwt>0</asrwt>
<pdfrwt beam="2">  1        5 0.27245403E-01 0.12719998E+03</pdfrwt>
<pdfrwt beam="1">  1       -5 0.16557682E-01 0.12719998E+03</pdfrwt>
<totfact> 0.29898685E+02</totfact>
</mgrwt>
</event>
<event>
 8    1  0.3488953E-007  0.1567432E+03  0.7546771E-02  0.1192430E+00
          5   -1    0    0  501    0  0.00000000000E+00  0.00000000000E+00  0.39916981464E+02  0.40192728312E+02  0.47000000000E+01 0.  1.
         -5   -1    0    0    0  501 -0.00000000000E+00 -0.00000000000E+00 -0.61553038396E+03  0.61554832758E+03  0.47000000000E+01 0.  1.
         25    2    1    2    0    0 -0.82149627596E+02 -0.46773835440E+02 -0.30883616332E+03  0.34632461872E+03  0.12499845105E+03 0.  0.
         25    2    1    2    0    0  0.82149627596E+02  0.46773835440E+02 -0.26677723918E+03  0.30941643717E+03  0.12502832978E+03 0.  0.
          5    1    3    3  502    0 -0.26641773213E+02  0.28102545862E+02 -0.19624137401E+03  0.20008074379E+03  0.47000000000E+01 0. -1.
         -5    1    3    3    0  502 -0.55507854383E+02 -0.74876381302E+02 -0.11259478931E+03  0.14624387493E+03  0.47000000000E+01 0. -1.
          5    1    4    4  503    0 -0.10667342976E+02 -0.31220779383E+02 -0.80336593894E+02  0.86974637625E+02  0.47000000000E+01 0. -1.
         -5    1    4    4    0  503  0.92816970572E+02  0.77994614823E+02 -0.18644064529E+03  0.22244179954E+03  0.47000000000E+01 0. -1.
<mgrwt>
<rscale>  0 0.15673726E+03</rscale>
<asrwt>0</asrwt>
<pdfrwt beam="1">  1        5 0.61636661E-02 0.15674322E+03</pdfrwt>
<pdfrwt beam="2">  1       -5 0.94719567E-01 0.15674322E+03</pdfrwt>
<totfact> 0.12556724E+02</totfact>
</mgrwt>
</event>
<event>
 8    1  0.3488953E-007  0.1465618E+03  0.7546771E-02  0.1204764E+00
          5   -1    0    0  501    0  0.00000000000E+00  0.00000000000E+00  0.50817448543E+02  0.51034332330E+02  0.47000000000E+01 0.  1.
         -5   -1    0    0    0  501 -0.00000000000E+00 -0.00000000000E+00 -0.45156319154E+03  0.45158765036E+03  0.47000000000E+01 0.  1.
         25    2    1    2    0    0 -0.47613941376E+02 -0.59900707330E+02 -0.26513813127E+03  0.30294779488E+03  0.12499582241E+03 0.  0.
         25    2    1    2    0    0  0.47613941376E+02  0.59900707330E+02 -0.13560761173E+03  0.19967418780E+03  0.12500069905E+03 0.  0.
          5    1    3    3  502    0 -0.44901667787E+02  0.28094841956E+02 -0.63139870173E+02  0.82548247226E+02  0.47000000000E+01 0.  1.
         -5    1    3    3    0  502 -0.27122735890E+01 -0.87995549286E+02 -0.20199826109E+03  0.22039954766E+03  0.47000000000E+01 0.  1.
          5    1    4    4  503    0  0.44385494463E+02  0.96847559446E+02 -0.11559669139E+03  0.15727112561E+03  0.47000000000E+01 0. -1.
         -5    1    4    4    0  503  0.32284469130E+01 -0.36946852116E+02 -0.20010920336E+02  0.42403062194E+02  0.47000000000E+01 0. -1.
<mgrwt>
<rscale>  0 0.14656075E+03</rscale>
<asrwt>0</asrwt>
<pdfrwt beam="1">  1        5 0.78366341E-02 0.14656179E+03</pdfrwt>
<pdfrwt beam="2">  1       -5 0.69489822E-01 0.14656179E+03</pdfrwt>
<totfact> 0.16793642E+02</totfact>
</mgrwt>
</event>
<event>
 8    1  0.3488953E-007  0.1321744E+03  0.7546771E-02  0.1224274E+00
          5   -1    0    0  501    0  0.00000000000E+00  0.00000000000E+00  0.38613164178E+03  0.38616024495E+03  0.47000000000E+01 0. -1.
         -5   -1    0    0    0  501 -0.00000000000E+00 -0.00000000000E+00 -0.45347152206E+02  0.45590067046E+02  0.47000000000E+01 0. -1.
         25    2    1    2    0    0  0.18756378430E+02 -0.38626701138E+02  0.15391767823E+03  0.20286328739E+03  0.12497614944E+03 0.  0.
         25    2    1    2    0    0 -0.18756378430E+02  0.38626701138E+02  0.18686681135E+03  0.22888702461E+03  0.12500496421E+03 0.  0.
          5    1    3    3  502    0  0.50479053032E+02 -0.33371392997E+02  0.15879814651E+03  0.17000213528E+03  0.47000000000E+01 0. -1.
         -5    1    3    3    0  502 -0.31722674602E+02 -0.52553081404E+01 -0.48804682825E+01  0.32861152113E+02  0.47000000000E+01 0. -1.
          5    1    4    4  503    0 -0.24005011495E+02  0.65070090483E+02  0.41487902623E+02  0.80954884451E+02  0.47000000000E+01 0. -1.
         -5    1    4    4    0  503  0.52486330649E+01 -0.26443389345E+02  0.14537890872E+03  0.14793214016E+03  0.47000000000E+01 0. -1.
<mgrwt>
<rscale>  0 0.13216756E+03</rscale>
<asrwt>0</asrwt>
<pdfrwt beam="1">  1        5 0.59425752E-01 0.13217437E+03</pdfrwt>
<pdfrwt beam="2">  1       -5 0.69973711E-02 0.13217437E+03</pdfrwt>
<totfact> 0.27840469E+02</totfact>
</mgrwt>
</event>
<event>
 8    1  0.3488953E-007  0.1510282E+03  0.7546771E-02  0.1199216E+00
         -5   -1    0    0    0  501 -0.00000000000E+00  0.00000000000E+00  0.19945213217E+04  0.19945268594E+04  0.47000000000E+01 0.  1.
          5   -1    0    0  501    0  0.00000000000E+00 -0.00000000000E+00 -0.11918639747E+02  0.12811868460E+02  0.47000000000E+01 0.  1.
         25    2    1    2    0    0  0.57272542417E+02  0.62481131730E+02  0.12672095312E+04  0.12761776936E+04  0.12500189526E+03 0.  0.
         25    2    1    2    0    0 -0.57272542417E+02 -0.62481131730E+02  0.71539315077E+03  0.73116103421E+03  0.12500024735E+03 0.  0.
          5    1    3    3  502    0  0.95575135628E+02  0.40420689843E+02  0.76802856860E+03  0.77502155513E+03  0.47000000000E+01 0. -1.
         -5    1    3    3    0  502 -0.38302593211E+02  0.22060441886E+02  0.49918096258E+03  0.50115613849E+03  0.47000000000E+01 0. -1.
          5    1    4    4  503    0  0.84732836055E+01 -0.57205638470E+02  0.13402846901E+03  0.14604794457E+03  0.47000000000E+01 0.  1.
         -5    1    4    4    0  503 -0.65745826023E+02 -0.52754932598E+01  0.58136468176E+03  0.58511308964E+03  0.47000000000E+01 0.  1.
<mgrwt>
<rscale>  0 0.15102783E+03</rscale>
<asrwt>0</asrwt>
<pdfrwt beam="2">  1        5 0.19027730E-02 0.15102818E+03</pdfrwt>
<pdfrwt beam="1">  1       -5 0.30691853E+00 0.15102818E+03</pdfrwt>
<totfact> 0.23244948E+01</totfact>
</mgrwt>
</event>
<event>
 8    1  0.3488953E-007  0.1315624E+03  0.7546771E-02  0.1225156E+00
          5   -1    0    0  501    0  0.00000000000E+00  0.00000000000E+00  0.91956524249E+02  0.92076557016E+02  0.47000000000E+01 0.  1.
         -5   -1    0    0    0  501 -0.00000000000E+00 -0.00000000000E+00 -0.18865230492E+03  0.18871084269E+03  0.47000000000E+01 0.  1.
         25    2    1    2    0    0 -0.34236242207E+02  0.22615977943E+02 -0.56901449076E+02  0.14334027438E+03  0.12500022645E+03 0.  0.
         25    2    1    2    0    0  0.34236242207E+02 -0.22615977943E+02 -0.39794331591E+02  0.13744712533E+03  0.12499808277E+03 0.  0.
          5    1    3    3  502    0 -0.23468575953E+02 -0.16694261517E+02  0.33281492859E+02  0.44263079330E+02  0.47000000000E+01 0.  1.
         -5    1    3    3    0  502 -0.10767666254E+02  0.39310239459E+02 -0.90182941935E+02  0.99077195050E+02  0.47000000000E+01 0.  1.
          5    1    4    4  503    0  0.20112109692E+02  0.87871329199E+01 -0.80705089001E+02  0.83768204301E+02  0.47000000000E+01 0.  1.
         -5    1    4    4    0  503  0.14124132515E+02 -0.31403110862E+02  0.40910757409E+02  0.53678921030E+02  0.47000000000E+01 0.  1.
<mgrwt>
<rscale>  0 0.13156187E+03</rscale>
<asrwt>0</asrwt>
<pdfrwt beam="1">  1        5 0.14160894E-01 0.13156238E+03</pdfrwt>
<pdfrwt beam="2">  1       -5 0.29037168E-01 0.13156238E+03</pdfrwt>
<totfact> 0.35506534E+02</totfact>
</mgrwt>
</event>
<event>
 8    1  0.3488953E-007  0.1295957E+03  0.7546771E-02  0.1228061E+00
         -5   -1    0    0    0  501 -0.00000000000E+00  0.00000000000E+00  0.16066464642E+04  0.16066533387E+04  0.47000000000E+01 0.  1.
          5   -1    0    0  501    0  0.00000000000E+00 -0.00000000000E+00 -0.99284080277E+01  0.10984684154E+02  0.47000000000E+01 0.  1.
         25    2    1    2    0    0  0.95161034623E+01  0.32846792078E+02  0.77222803849E+03  0.78302503503E+03  0.12499037590E+03 0.  0.
         25    2    1    2    0    0 -0.95161034623E+01 -0.32846792078E+02  0.82449001764E+03  0.83461298784E+03  0.12500232922E+03 0.  0.
          5    1    4    4  502    0  0.25348518597E+01  0.42446076282E+02  0.47223956541E+03  0.47417337758E+03  0.47000000000E+01 0.  1.
         -5    1    4    4    0  502 -0.12050955322E+02 -0.75292868360E+02  0.35225045223E+03  0.36043961026E+03  0.47000000000E+01 0.  1.
          5    1    3    3  503    0 -0.19872121735E+02  0.59902441848E+02  0.67279559856E+03  0.67576564814E+03  0.47000000000E+01 0. -1.
         -5    1    3    3    0  503  0.29388225197E+02 -0.27055649769E+02  0.99432439935E+02  0.10725938689E+03  0.47000000000E+01 0. -1.
<mgrwt>
<rscale>  0 0.12959284E+03</rscale>
<asrwt>0</asrwt>
<pdfrwt beam="2">  1        5 0.16092276E-02 0.12959572E+03</pdfrwt>
<pdfrwt beam="1">  1       -5 0.24725826E+00 0.12959572E+03</pdfrwt>
<totfact> 0.69255865E+01</totfact>
</mgrwt>
</event>
<event>
 8    1  0.3488953E-007  0.1518301E+03  0.7546771E-02  0.1198245E+00
          5   -1    0    0  501    0  0.00000000000E+00  0.00000000000E+00  0.37487937073E+03  0.37490883238E+03  0.47000000000E+01 0.  1.
         -5   -1    0    0    0  501 -0.00000000000E+00 -0.00000000000E+00 -0.61370605349E+02  0.61550314386E+02  0.47000000000E+01 0.  1.
         25    2    1    2    0    0 -0.30446769909E+02  0.80611017385E+02  0.15519110575E+03  0.21710976348E+03  0.12500891237E+03 0.  0.
         25    2    1    2    0    0  0.30446769909E+02 -0.80611017385E+02  0.15831765963E+03  0.21934938329E+03  0.12499811469E+03 0.  0.
          5    1    3    3  502    0 -0.36073301777E+02 -0.23002751942E+02  0.22407018016E+02  0.48523954438E+02  0.47000000000E+01 0. -1.
         -5    1    3    3    0  502  0.56265318681E+01  0.10361376933E+03  0.13278408773E+03  0.16858580904E+03  0.47000000000E+01 0. -1.
          5    1    4    4  503    0  0.72183069788E+02 -0.51658934292E+02  0.56103563328E+02  0.10511299099E+03  0.47000000000E+01 0.  1.
         -5    1    4    4    0  503 -0.41736299879E+02 -0.28952083092E+02  0.10221409631E+03  0.11423639230E+03  0.47000000000E+01 0.  1.
<mgrwt>
<rscale>  0 0.15182785E+03</rscale>
<asrwt>0</asrwt>
<pdfrwt beam="1">  1        5 0.57689840E-01 0.15183007E+03</pdfrwt>
<pdfrwt beam="2">  1       -5 0.94577216E-02 0.15183007E+03</pdfrwt>
<totfact> 0.18538967E+02</totfact>
</mgrwt>
</event>
<event>
 8    1  0.3488953E-007  0.1344116E+03  0.7546771E-02  0.1221055E+00
          5   -1    0    0  501    0  0.00000000000E+00  0.00000000000E+00  0.48015048655E+02  0.48244532305E+02  0.47000000000E+01 0.  1.
         -5   -1    0    0    0  501 -0.00000000000E+00 -0.00000000000E+00 -0.37826948994E+03  0.37829868757E+03  0.47000000000E+01 0.  1.
         25    2    1    2    0    0 -0.38542571576E+02 -0.30915743465E+02 -0.18461315007E+03  0.22835680274E+03  0.12499400450E+03 0.  0.
         25    2    1    2    0    0  0.38542571576E+02  0.30915743465E+02 -0.14564129122E+03  0.19818641714E+03  0.12500062885E+03 0.  0.
          5    1    4    4  502    0 -0.42882660973E+02  0.21893972686E+02 -0.31952271184E+02  0.57976773676E+02  0.47000000000E+01 0.  1.
         -5    1    4    4    0  502  0.81425232549E+02  0.90217707791E+01 -0.11368902003E+03  0.14020964346E+03  0.47000000000E+01 0.  1.
          5    1    3    3  503    0 -0.16431676716E+02  0.43886097756E+02 -0.11276085819E+03  0.12220102583E+03  0.47000000000E+01 0.  1.
         -5    1    3    3    0  503 -0.22110894860E+02 -0.74801841221E+02 -0.71852291879E+02  0.10615577690E+03  0.47000000000E+01 0.  1.
<mgrwt>
<rscale>  0 0.13441003E+03</rscale>
<asrwt>0</asrwt>
<pdfrwt beam="1">  1        5 0.74068294E-02 0.13441157E+03</pdfrwt>
<pdfrwt beam="2">  1       -5 0.58215203E-01 0.13441157E+03</pdfrwt>
<totfact> 0.26586661E+02</totfact>
</mgrwt>
</event>
<event>
 8    1  0.3488953E-007  0.1273354E+03  0.7546771E-02  0.1231468E+00
         -5   -1    0    0    0  501 -0.00000000000E+00  0.00000000000E+00  0.13305107639E+02  0.14110842969E+02  0.47000000000E+01 0.  1.
          5   -1    0    0  501    0  0.00000000000E+00 -0.00000000000E+00 -0.11889396122E+04  0.11889489019E+04  0.47000000000E+01 0.  1.
         25    2    1    2    0    0 -0.97514659249E+00  0.24271916872E+02 -0.54167862038E+03  0.55644408904E+03  0.12499687830E+03 0.  0.
         25    2    1    2    0    0  0.97514659249E+00 -0.24271916872E+02 -0.63395588415E+03  0.64661565586E+03  0.12498666526E+03 0.  0.
          5    1    3    3  502    0  0.91194850215E+01 -0.42916779856E+01 -0.51691497923E+03  0.51703459193E+03  0.47000000000E+01 0. -1.
         -5    1    3    3    0  502 -0.10094631614E+02  0.28563594857E+02 -0.24763641155E+02  0.39409497102E+02  0.47000000000E+01 0. -1.
          5    1    4    4  503    0 -0.30845377543E+01 -0.25280495136E+00 -0.61591461069E+03  0.61594031849E+03  0.47000000000E+01 0. -1.
         -5    1    4    4    0  503  0.40596843468E+01 -0.24019111920E+02 -0.18041273461E+02  0.30675337366E+02  0.47000000000E+01 0. -1.
<mgrwt>
<rscale>  0 0.12733286E+03</rscale>
<asrwt>0</asrwt>
<pdfrwt beam="2">  1        5 0.18297640E+00 0.12733537E+03</pdfrwt>
<pdfrwt beam="1">  1       -5 0.21096348E-02 0.12733537E+03</pdfrwt>
<totfact> 0.11917185E+02</totfact>
</mgrwt>
</event>
<event>
 8    1  0.3488953E-007  0.1415837E+03  0.7546771E-02  0.1211214E+00
         -5   -1    0    0    0  501 -0.00000000000E+00  0.00000000000E+00  0.18776030986E+04  0.18776089811E+04  0.47000000000E+01 0.  1.
          5   -1    0    0  501    0  0.00000000000E+00 -0.00000000000E+00 -0.10243988507E+02  0.11270727596E+02  0.47000000000E+01 0.  1.
         25    2    1    2    0    0  0.32544168926E+01 -0.66416290202E+02  0.10185941361E+04  0.10283870598E+04  0.12499686337E+03 0.  0.
         25    2    1    2    0    0 -0.32544168926E+01  0.66416290202E+02  0.84876497406E+03  0.86049264894E+03  0.12499561137E+03 0.  0.
          5    1    3    3  502    0 -0.29593586969E+02  0.14863916639E+01  0.71141249524E+03  0.71204481470E+03  0.47000000000E+01 0. -1.
         -5    1    3    3    0  502  0.32848003861E+02 -0.67902681865E+02  0.30718164081E+03  0.31634224507E+03  0.47000000000E+01 0. -1.
          5    1    4    4  503    0  0.37016340023E+02  0.21689508234E+01  0.83714779556E+02  0.91679703820E+02  0.47000000000E+01 0.  1.
         -5    1    4    4    0  503 -0.40270756915E+02  0.64247339378E+02  0.76505019450E+03  0.76881294512E+03  0.47000000000E+01 0.  1.
<mgrwt>
<rscale>  0 0.14158338E+03</rscale>
<asrwt>0</asrwt>
<pdfrwt beam="2">  1        5 0.16554312E-02 0.14158365E+03</pdfrwt>
<pdfrwt beam="1">  1       -5 0.28894136E+00 0.14158365E+03</pdfrwt>
<totfact> 0.37066129E+01</totfact>
</mgrwt>
</event>
<event>
 8    1  0.3488953E-007  0.1441796E+03  0.7546771E-02  0.1207814E+00
         -5   -1    0    0    0  501 -0.00000000000E+00  0.00000000000E+00  0.90370090272E+02  0.90492227377E+02  0.47000000000E+01 0. -1.
          5   -1    0    0  501    0  0.00000000000E+00 -0.00000000000E+00 -0.27071472342E+03  0.27075551976E+03  0.47000000000E+01 0. -1.
         25    2    1    2    0    0  0.58783583959E+02  0.41313038037E+02 -0.19909059332E+02  0.14554577283E+03  0.12499969796E+03 0.  0.
         25    2    1    2    0    0 -0.58783583959E+02 -0.41313038037E+02 -0.16043557382E+03  0.21570197431E+03  0.12500196606E+03 0.  0.
          5    1    3    3  502    0  0.82399507887E+02  0.32689588741E+02  0.26425126853E+02  0.92621085295E+02  0.47000000000E+01 0.  1.
         -5    1    3    3    0  502 -0.23615923928E+02  0.86234492956E+01 -0.46334186185E+02  0.52924687530E+02  0.47000000000E+01 0.  1.
          5    1    4    4  503    0 -0.35619477957E+02 -0.80359616130E+02 -0.14071758061E+03  0.16598175383E+03  0.47000000000E+01 0.  1.
         -5    1    4    4    0  503 -0.23164106002E+02  0.39046578093E+02 -0.19717993215E+02  0.49720220475E+02  0.47000000000E+01 0.  1.
<mgrwt>
<rscale>  0 0.14417915E+03</rscale>
<asrwt>0</asrwt>
<pdfrwt beam="2">  1        5 0.41660952E-01 0.14417964E+03</pdfrwt>
<pdfrwt beam="1">  1       -5 0.13915624E-01 0.14417964E+03</pdfrwt>
<totfact> 0.18337511E+02</totfact>
</mgrwt>
</event>
<event>
 8    1  0.3488953E-007  0.1447490E+03  0.7546771E-02  0.1207079E+00
         -5   -1    0    0    0  501 -0.00000000000E+00  0.00000000000E+00  0.90053258072E+02  0.90175824307E+02  0.47000000000E+01 0. -1.
          5   -1    0    0  501    0  0.00000000000E+00 -0.00000000000E+00 -0.31373213361E+03  0.31376733683E+03  0.47000000000E+01 0. -1.
         25    2    1    2    0    0  0.46247838116E+02  0.56465546376E+02 -0.90040043397E+01  0.14502703464E+03  0.12499819289E+03 0.  0.
         25    2    1    2    0    0 -0.46247838116E+02 -0.56465546376E+02 -0.21467487120E+03  0.25891612649E+03  0.12500015910E+03 0.  0.
          5    1    3    3  502    0 -0.17323028365E+02 -0.31336737037E+02 -0.49381751045E+01  0.36449334332E+02  0.47000000000E+01 0.  1.
         -5    1    3    3    0  502  0.63570866481E+02  0.87802283414E+02 -0.40658292352E+01  0.10857770031E+03  0.47000000000E+01 0.  1.
          5    1    4    4  503    0 -0.25246153417E+01 -0.24701249520E+02  0.10450980303E+02  0.27346634158E+02  0.47000000000E+01 0. -1.
         -5    1    4    4    0  503 -0.43723222774E+02 -0.31764296857E+02 -0.22512585150E+03  0.23156949233E+03  0.47000000000E+01 0. -1.
<mgrwt>
<rscale>  0 0.14474853E+03</rscale>
<asrwt>0</asrwt>
<pdfrwt beam="2">  1        5 0.48278618E-01 0.14474896E+03</pdfrwt>
<pdfrwt beam="1">  1       -5 0.13866484E-01 0.14474896E+03</pdfrwt>
<totfact> 0.13589898E+02</totfact>
</mgrwt>
</event>
<event>
 8    1  0.3488953E-007  0.1625892E+03  0.7546771E-02  0.1185806E+00
         -5   -1    0    0    0  501 -0.00000000000E+00  0.00000000000E+00  0.94558603809E+02  0.94675337625E+02  0.47000000000E+01 0.  1.
          5   -1    0    0  501    0  0.00000000000E+00 -0.00000000000E+00 -0.28922530740E+03  0.28926349310E+03  0.47000000000E+01 0.  1.
         25    2    1    2    0    0  0.13719777719E+02  0.10305669446E+03 -0.61679344091E+02  0.17388907147E+03  0.12499661242E+03 0.  0.
         25    2    1    2    0    0 -0.13719777719E+02 -0.10305669446E+03 -0.13298735950E+03  0.21004975925E+03  0.12500539589E+03 0.  0.
          5    1    3    3  502    0  0.16552033266E+01  0.51075249282E+02  0.35861214987E+02  0.62606209976E+02  0.47000000000E+01 0. -1.
         -5    1    3    3    0  502  0.12064574392E+02  0.51981445175E+02 -0.97540559078E+02  0.11128286150E+03  0.47000000000E+01 0. -1.
          5    1    4    4  503    0 -0.14522443047E+02 -0.11049502828E+03 -0.42867724560E+02  0.11949805202E+03  0.47000000000E+01 0. -1.
         -5    1    4    4    0  503  0.80266532775E+00  0.74383338239E+01 -0.90119634937E+02  0.90551707233E+02  0.47000000000E+01 0. -1.
<mgrwt>
<rscale>  0 0.16258756E+03</rscale>
<asrwt>0</asrwt>
<pdfrwt beam="2">  1        5 0.44508118E-01 0.16258925E+03</pdfrwt>
<pdfrwt beam="1">  1       -5 0.14559395E-01 0.16258925E+03</pdfrwt>
<totfact> 0.15318572E+02</totfact>
</mgrwt>
</event>
<event>
 8    1  0.3488953E-007  0.1374089E+03  0.7546771E-02  0.1216859E+00
          5   -1    0    0  501    0  0.00000000000E+00  0.00000000000E+00  0.22252817249E+02  0.22743743657E+02  0.47000000000E+01 0.  1.
         -5   -1    0    0    0  501 -0.00000000000E+00 -0.00000000000E+00 -0.95623308498E+03  0.95624463544E+03  0.47000000000E+01 0.  1.
         25    2    1    2    0    0 -0.54787719188E+02  0.15965496555E+02 -0.63853486433E+03  0.65315234129E+03  0.12499846685E+03 0.  0.
         25    2    1    2    0    0  0.54787719188E+02 -0.15965496555E+02 -0.29544540340E+03  0.32583603781E+03  0.12499818354E+03 0.  0.
          5    1    3    3  502    0 -0.22833397481E+02 -0.51768230920E+02 -0.18714378878E+03  0.19556636073E+03  0.47000000000E+01 0. -1.
         -5    1    3    3    0  502 -0.31954321708E+02  0.67733727475E+02 -0.45139107555E+03  0.45758598056E+03  0.47000000000E+01 0. -1.
          5    1    4    4  503    0  0.53049785129E+02  0.38355954026E+02 -0.23686020344E+03  0.24578507865E+03  0.47000000000E+01 0.  1.
         -5    1    4    4    0  503  0.17379340589E+01 -0.54321450581E+02 -0.58585199957E+02  0.80050959157E+02  0.47000000000E+01 0.  1.
<mgrwt>
<rscale>  0 0.13740884E+03</rscale>
<asrwt>0</asrwt>
<pdfrwt beam="1">  1        5 0.34621631E-02 0.13740891E+03</pdfrwt>
<pdfrwt beam="2">  1       -5 0.14715140E+00 0.13740891E+03</pdfrwt>
<totfact> 0.10201360E+02</totfact>
</mgrwt>
</event>
<event>
 8    1  0.3488953E-007  0.1356991E+03  0.7546771E-02  0.1219237E+00
         -5   -1    0    0    0  501 -0.00000000000E+00  0.00000000000E+00  0.17324975408E+02  0.17951177479E+02  0.47000000000E+01 0.  1.
          5   -1    0    0  501    0  0.00000000000E+00 -0.00000000000E+00 -0.10464798386E+04  0.10464903929E+04  0.47000000000E+01 0.  1.
         25    2    1    2    0    0 -0.34297558366E+02 -0.40163340505E+02 -0.48553751802E+03  0.50414338630E+03  0.12499782443E+03 0.  0.
         25    2    1    2    0    0  0.34297558366E+02  0.40163340505E+02 -0.54361734514E+03  0.56029818413E+03  0.12499928307E+03 0.  0.
          5    1    3    3  502    0  0.10604494354E+02 -0.74412240750E+02 -0.21715519725E+03  0.22984365679E+03  0.47000000000E+01 0. -1.
         -5    1    3    3    0  502 -0.44902052720E+02  0.34248900245E+02 -0.26838232077E+03  0.27429972950E+03  0.47000000000E+01 0. -1.
          5    1    4    4  503    0 -0.27324530859E+02  0.41967424356E+02 -0.40995166137E+03  0.41302584587E+03  0.47000000000E+01 0.  1.
         -5    1    4    4    0  503  0.61622089225E+02 -0.18040838511E+01 -0.13366568377E+03  0.14727233826E+03  0.47000000000E+01 0.  1.
<mgrwt>
<rscale>  0 0.13569873E+03</rscale>
<asrwt>0</asrwt>
<pdfrwt beam="2">  1        5 0.16104583E+00 0.13569907E+03</pdfrwt>
<pdfrwt beam="1">  1       -5 0.27143629E-02 0.13569907E+03</pdfrwt>
<totfact> 0.11744827E+02</totfact>
</mgrwt>
</event>
<event>
 8    1  0.3488953E-007  0.1328099E+03  0.7546771E-02  0.1223347E+00
          5   -1    0    0  501    0  0.00000000000E+00  0.00000000000E+00  0.42506546158E+02  0.42765599099E+02  0.47000000000E+01 0. -1.
         -5   -1    0    0    0  501 -0.00000000000E+00 -0.00000000000E+00 -0.49760345792E+03  0.49762565381E+03  0.47000000000E+01 0. -1.
         25    2    1    2    0    0  0.40006798600E+02 -0.20294375015E+02 -0.33865564072E+03  0.36376438038E+03  0.12499790339E+03 0.  0.
         25    2    1    2    0    0 -0.40006798600E+02  0.20294375015E+02 -0.11644127104E+03  0.17662687253E+03  0.12500430755E+03 0.  0.
          5    1    3    3  502    0  0.58636335543E+02 -0.61601137104E+02 -0.18851731023E+03  0.20686659033E+03  0.47000000000E+01 0.  1.
         -5    1    3    3    0  502 -0.18629536943E+02  0.41306762089E+02 -0.15013833049E+03  0.15689779005E+03  0.47000000000E+01 0.  1.
          5    1    4    4  503    0  0.34270056059E+02 -0.27357336057E+02 -0.32950729978E+02  0.55051804553E+02  0.47000000000E+01 0.  1.
         -5    1    4    4    0  503 -0.74276854660E+02  0.47651711072E+02 -0.83490541060E+02  0.12157506797E+03  0.47000000000E+01 0.  1.
<mgrwt>
<rscale>  0 0.13280844E+03</rscale>
<asrwt>0</asrwt>
<pdfrwt beam="1">  1        5 0.65611035E-02 0.13280995E+03</pdfrwt>
<pdfrwt beam="2">  1       -5 0.76576008E-01 0.13280995E+03</pdfrwt>
<totfact> 0.17642560E+02</totfact>
</mgrwt>
</event>
<event>
 8    1  0.3488953E-007  0.2103970E+03  0.7546771E-02  0.1141253E+00
         -5   -1    0    0    0  501 -0.00000000000E+00  0.00000000000E+00  0.16811184091E+03  0.16817752839E+03  0.47000000000E+01 0. -1.
          5   -1    0    0  501    0  0.00000000000E+00 -0.00000000000E+00 -0.39067066320E+03  0.39069893407E+03  0.47000000000E+01 0. -1.
         25    2    1    2    0    0  0.13316678018E+03  0.10443150012E+03  0.48338168267E+02  0.21587196851E+03  0.12499919486E+03 0.  0.
         25    2    1    2    0    0 -0.13316678018E+03 -0.10443150012E+03 -0.27089699055E+03  0.34300449395E+03  0.12501029485E+03 0.  0.
          5    1    3    3  502    0  0.39861467081E+02  0.10970396005E+03  0.27320055729E+02  0.11996820768E+03  0.47000000000E+01 0. -1.
         -5    1    3    3    0  502  0.93305313099E+02 -0.52724599310E+01  0.21018112538E+02  0.95903760828E+02  0.47000000000E+01 0. -1.
          5    1    4    4  503    0 -0.68127259199E+02 -0.11482522843E+03 -0.22801223208E+03  0.26426847051E+03  0.47000000000E+01 0. -1.
         -5    1    4    4    0  503 -0.65039520981E+02  0.10393728308E+02 -0.42884758480E+02  0.78736023442E+02  0.47000000000E+01 0. -1.
<mgrwt>
<rscale>  0 0.21039536E+03</rscale>
<asrwt>0</asrwt>
<pdfrwt beam="2">  1        5 0.60110406E-01 0.21039701E+03</pdfrwt>
<pdfrwt beam="1">  1       -5 0.25870588E-01 0.21039701E+03</pdfrwt>
<totfact> 0.29455219E+01</totfact>
</mgrwt>
</event>
<event>
 8    1  0.3488953E-007  0.1676840E+03  0.7546771E-02  0.1180289E+00
          5   -1    0    0  501    0  0.00000000000E+00  0.00000000000E+00  0.12276252375E+03  0.12285246126E+03  0.47000000000E+01 0. -1.
         -5   -1    0    0    0  501 -0.00000000000E+00 -0.00000000000E+00 -0.23030254625E+03  0.23035049991E+03  0.47000000000E+01 0. -1.
         25    2    1    2    0    0  0.29557266073E+02 -0.10779214105E+03 -0.39623444313E+02  0.17230186486E+03  0.12500055058E+03 0.  0.
         25    2    1    2    0    0 -0.29557266073E+02  0.10779214105E+03 -0.67916578183E+02  0.18090109630E+03  0.12497906785E+03 0.  0.
          5    1    4    4  502    0 -0.28877388394E+02  0.10051344618E+03  0.75301408789E+01  0.10495546411E+03  0.47000000000E+01 0. -1.
         -5    1    4    4    0  502 -0.67987767892E+00  0.72786948678E+01 -0.75446719062E+02  0.75945632197E+02  0.47000000000E+01 0. -1.
          5    1    3    3  503    0  0.19714748939E+02  0.23092868864E+02 -0.26016132539E+02  0.40260167292E+02  0.47000000000E+01 0.  1.
         -5    1    3    3    0  503  0.98425171338E+01 -0.13088500992E+03 -0.13607311774E+02  0.13204169757E+03  0.47000000000E+01 0.  1.
<mgrwt>
<rscale>  0 0.16767997E+03</rscale>
<asrwt>0</asrwt>
<pdfrwt beam="1">  1        5 0.18897149E-01 0.16768397E+03</pdfrwt>
<pdfrwt beam="2">  1       -5 0.35441768E-01 0.16768397E+03</pdfrwt>
<totfact> 0.15285312E+02</totfact>
</mgrwt>
</event>
<event>
 8    1  0.3488953E-007  0.3538297E+03  0.7546771E-02  0.1061054E+00
         -5   -1    0    0    0  501 -0.00000000000E+00  0.00000000000E+00  0.26704174416E+03  0.26708310153E+03  0.47000000000E+01 0.  1.
          5   -1    0    0  501    0  0.00000000000E+00 -0.00000000000E+00 -0.49796463035E+03  0.49798681015E+03  0.47000000000E+01 0.  1.
         25    2    1    2    0    0  0.26531443551E+03  0.19793653695E+03 -0.22786288170E+02  0.35456264555E+03  0.12499932936E+03 0.  0.
         25    2    1    2    0    0 -0.26531443551E+03 -0.19793653695E+03 -0.20813659803E+03  0.41050726613E+03  0.12499899899E+03 0.  0.
          5    1    4    4  502    0 -0.11605059467E+03 -0.11313977497E+03 -0.33479471413E+02  0.16556362586E+03  0.47000000000E+01 0.  1.
         -5    1    4    4    0  502 -0.14926384085E+03 -0.84796761983E+02 -0.17465712662E+03  0.24494364026E+03  0.47000000000E+01 0.  1.
          5    1    3    3  503    0  0.16762980600E+03  0.95655376723E+02  0.44111352155E+02  0.19803435143E+03  0.47000000000E+01 0.  1.
         -5    1    3    3    0  503  0.97684629515E+02  0.10228116023E+03 -0.66897640325E+02  0.15652829413E+03  0.47000000000E+01 0.  1.
<mgrwt>
<rscale>  0 0.35382967E+03</rscale>
<asrwt>0</asrwt>
<pdfrwt beam="2">  1        5 0.76614831E-01 0.35382970E+03</pdfrwt>
<pdfrwt beam="1">  1       -5 0.41088233E-01 0.35382970E+03</pdfrwt>
<totfact> 0.74677601E+00</totfact>
</mgrwt>
</event>
<event>
 8    1  0.3488953E-007  0.1371841E+03  0.7546771E-02  0.1217174E+00
          5   -1    0    0  501    0  0.00000000000E+00  0.00000000000E+00  0.23670699838E+02  0.24132799896E+02  0.47000000000E+01 0.  1.
         -5   -1    0    0    0  501 -0.00000000000E+00 -0.00000000000E+00 -0.79845429415E+03  0.79846812701E+03  0.47000000000E+01 0.  1.
         25    2    1    2    0    0 -0.56247117778E+02  0.51953055039E+01 -0.43700044343E+03  0.45802317934E+03  0.12500046320E+03 0.  0.
         25    2    1    2    0    0  0.56247117778E+02 -0.51953055039E+01 -0.33778315088E+03  0.36457774756E+03  0.12501498925E+03 0.  0.
          5    1    4    4  502    0 -0.30011287240E+02 -0.88824272085E+01 -0.19578001846E+03  0.19832165919E+03  0.47000000000E+01 0. -1.
         -5    1    4    4    0  502  0.86258405018E+02  0.36871217046E+01 -0.14200313242E+03  0.16625608837E+03  0.47000000000E+01 0. -1.
          5    1    3    3  503    0 -0.68550179098E+02  0.28323382966E+02 -0.12901771402E+03  0.14889258413E+03  0.47000000000E+01 0.  1.
         -5    1    3    3    0  503  0.12303061319E+02 -0.23128077462E+02 -0.30798272941E+03  0.30913059521E+03  0.47000000000E+01 0.  1.
<mgrwt>
<rscale>  0 0.13718079E+03</rscale>
<asrwt>0</asrwt>
<pdfrwt beam="1">  1        5 0.36782570E-02 0.13718410E+03</pdfrwt>
<pdfrwt beam="2">  1       -5 0.12287571E+00 0.13718410E+03</pdfrwt>
<totfact> 0.14851562E+02</totfact>
</mgrwt>
</event>
<event>
 8    1  0.3488953E-007  0.1295969E+03  0.7546771E-02  0.1228062E+00
          5   -1    0    0  501    0  0.00000000000E+00  0.00000000000E+00  0.31019471517E+03  0.31023031980E+03  0.47000000000E+01 0. -1.
         -5   -1    0    0    0  501 -0.00000000000E+00 -0.00000000000E+00 -0.57797545377E+02  0.57988328580E+02  0.47000000000E+01 0. -1.
         25    2    1    2    0    0  0.30673895376E+02 -0.14969361356E+02  0.79069508218E+02  0.15179816402E+03  0.12500290330E+03 0.  0.
         25    2    1    2    0    0 -0.30673895376E+02  0.14969361356E+02  0.17332766158E+03  0.21642048436E+03  0.12502151073E+03 0.  0.
          5    1    3    3  502    0  0.43957275111E+02 -0.64342674801E+02  0.51460906936E+02  0.93501533561E+02  0.47000000000E+01 0.  1.
         -5    1    3    3    0  502 -0.13283379735E+02  0.49373313445E+02  0.27608601282E+02  0.58296630456E+02  0.47000000000E+01 0.  1.
          5    1    4    4  503    0 -0.10774144625E+01 -0.15739330884E+01 -0.19719805772E+02  0.20361700002E+02  0.47000000000E+01 0. -1.
         -5    1    4    4    0  503 -0.29596480914E+02  0.16543294444E+02  0.19304746735E+03  0.19605878436E+03  0.47000000000E+01 0. -1.
<mgrwt>
<rscale>  0 0.12959238E+03</rscale>
<asrwt>0</asrwt>
<pdfrwt beam="1">  1        5 0.47739678E-01 0.12959687E+03</pdfrwt>
<pdfrwt beam="2">  1       -5 0.89093446E-02 0.12959687E+03</pdfrwt>
<totfact> 0.29214770E+02</totfact>
</mgrwt>
</event>
<event>
 8    1  0.3488953E-007  0.1326500E+03  0.7546771E-02  0.1223588E+00
          5   -1    0    0  501    0  0.00000000000E+00  0.00000000000E+00  0.43595223229E+03  0.43597756690E+03  0.47000000000E+01 0.  1.
         -5   -1    0    0    0  501 -0.00000000000E+00 -0.00000000000E+00 -0.51105389821E+02  0.51321056777E+02  0.47000000000E+01 0.  1.
         25    2    1    2    0    0  0.15319972651E+02 -0.41668039558E+02  0.80088259501E+02  0.15492262619E+03  0.12496384962E+03 0.  0.
         25    2    1    2    0    0 -0.15319972651E+02  0.41668039558E+02  0.30475858297E+03  0.33237599749E+03  0.12500033092E+03 0.  0.
          5    1    3    3  502    0  0.31333995929E+02 -0.82498198509E+02  0.56662689119E+02  0.10497867591E+03  0.47000000000E+01 0. -1.
         -5    1    3    3    0  502 -0.16014023278E+02  0.40830158951E+02  0.23425570382E+02  0.49943950276E+02  0.47000000000E+01 0. -1.
          5    1    4    4  503    0 -0.27305365036E+02  0.76897560066E+02  0.12941703385E+03  0.15306755487E+03  0.47000000000E+01 0.  1.
         -5    1    4    4    0  503  0.11985392385E+02 -0.35229520507E+02  0.17534154912E+03  0.17930844262E+03  0.47000000000E+01 0.  1.
<mgrwt>
<rscale>  0 0.13264136E+03</rscale>
<asrwt>0</asrwt>
<pdfrwt beam="1">  1        5 0.67088111E-01 0.13264995E+03</pdfrwt>
<pdfrwt beam="2">  1       -5 0.78809064E-02 0.13264995E+03</pdfrwt>
<totfact> 0.17416149E+02</totfact>
</mgrwt>
</event>
<event>
 8    1  0.3488953E-007  0.1330456E+03  0.7546771E-02  0.1223006E+00
         -5   -1    0    0    0  501 -0.00000000000E+00  0.00000000000E+00  0.83346815239E+02  0.83479228617E+02  0.47000000000E+01 0. -1.
          5   -1    0    0  501    0  0.00000000000E+00 -0.00000000000E+00 -0.21998979884E+03  0.22003999999E+03  0.47000000000E+01 0. -1.
         25    2    1    2    0    0  0.57519865843E+01  0.45199702740E+02 -0.39501965147E+02  0.13878590120E+03  0.12500009058E+03 0.  0.
         25    2    1    2    0    0 -0.57519865843E+01 -0.45199702740E+02 -0.97141018458E+02  0.16473332740E+03  0.12499837284E+03 0.  0.
          5    1    4    4  502    0  0.89225325277E+01  0.17950675217E+02  0.21301589216E+02  0.29625766328E+02  0.47000000000E+01 0.  1.
         -5    1    4    4    0  502 -0.14674519112E+02 -0.63150377956E+02 -0.11844260767E+03  0.13510756107E+03  0.47000000000E+01 0.  1.
          5    1    3    3  503    0 -0.58921586591E+02  0.18073403462E+02 -0.26745037554E+02  0.67348261395E+02  0.47000000000E+01 0.  1.
         -5    1    3    3    0  503  0.64673573175E+02  0.27126299277E+02 -0.12756927592E+02  0.71437639808E+02  0.47000000000E+01 0.  1.
<mgrwt>
<rscale>  0 0.13304516E+03</rscale>
<asrwt>0</asrwt>
<pdfrwt beam="2">  1        5 0.33858632E-01 0.13304556E+03</pdfrwt>
<pdfrwt beam="1">  1       -5 0.12836634E-01 0.13304556E+03</pdfrwt>
<totfact> 0.31389987E+02</totfact>
</mgrwt>
</event>
<event>
 8    1  0.3488953E-007  0.1530315E+03  0.7546771E-02  0.1196800E+00
         -5   -1    0    0    0  501 -0.00000000000E+00  0.00000000000E+00  0.30840024789E+02  0.31196107594E+02  0.47000000000E+01 0.  1.
          5   -1    0    0  501    0  0.00000000000E+00 -0.00000000000E+00 -0.76983937133E+03  0.76985371834E+03  0.47000000000E+01 0.  1.
         25    2    1    2    0    0  0.70291479158E+02 -0.53437921895E+02 -0.31315164768E+03  0.34854351177E+03  0.12498848593E+03 0.  0.
         25    2    1    2    0    0 -0.70291479158E+02  0.53437921895E+02 -0.42584769886E+03  0.45250631416E+03  0.12497679063E+03 0.  0.
          5    1    4    4  502    0 -0.73754063662E+02  0.57072906357E+02 -0.15077452717E+03  0.17734719222E+03  0.47000000000E+01 0. -1.
         -5    1    4    4    0  502  0.34625845038E+01 -0.36349844620E+01 -0.27507317169E+03  0.27515912194E+03  0.47000000000E+01 0. -1.
          5    1    3    3  503    0  0.37008745166E+02 -0.52654587907E+02 -0.30780779190E+03  0.31449941113E+03  0.47000000000E+01 0. -1.
         -5    1    3    3    0  503  0.33282733992E+02 -0.78333398805E+00 -0.53438557834E+01  0.34044100646E+02  0.47000000000E+01 0. -1.
<mgrwt>
<rscale>  0 0.15302906E+03</rscale>
<asrwt>0</asrwt>
<pdfrwt beam="2">  1        5 0.11846531E+00 0.15303145E+03</pdfrwt>
<pdfrwt beam="1">  1       -5 0.47731144E-02 0.15303145E+03</pdfrwt>
<totfact> 0.10993950E+02</totfact>
</mgrwt>
</event>
<event>
 8    1  0.3488953E-007  0.1409955E+03  0.7546771E-02  0.1211999E+00
          5   -1    0    0  501    0  0.00000000000E+00  0.00000000000E+00  0.92599670387E+01  0.10384459040E+02  0.47000000000E+01 0.  1.
         -5   -1    0    0    0  501 -0.00000000000E+00 -0.00000000000E+00 -0.20699039178E+04  0.20699092538E+04  0.47000000000E+01 0.  1.
         25    2    1    2    0    0  0.17452667286E+02 -0.62817955353E+02 -0.11873493732E+04  0.11956903253E+04  0.12500451506E+03 0.  0.
         25    2    1    2    0    0 -0.17452667286E+02  0.62817955353E+02 -0.87329457758E+03  0.88460338759E+03  0.12501617088E+03 0.  0.
          5    1    3    3  502    0 -0.41614852369E+02 -0.68845621799E+02 -0.74619303893E+03  0.75053158290E+03  0.47000000000E+01 0.  1.
         -5    1    3    3    0  502  0.59067519655E+02  0.60276664455E+01 -0.44115633427E+03  0.44515874236E+03  0.47000000000E+01 0.  1.
          5    1    4    4  503    0  0.36838792563E+02  0.50486696421E+02 -0.69352926106E+03  0.69635546174E+03  0.47000000000E+01 0. -1.
         -5    1    4    4    0  503 -0.54291459849E+02  0.12331258932E+02 -0.17976531653E+03  0.18824792584E+03  0.47000000000E+01 0. -1.
<mgrwt>
<rscale>  0 0.14099293E+03</rscale>
<asrwt>0</asrwt>
<pdfrwt beam="1">  1        5 0.15115218E-02 0.14099551E+03</pdfrwt>
<pdfrwt beam="2">  1       -5 0.31853332E+00 0.14099551E+03</pdfrwt>
<totfact> 0.27722260E+01</totfact>
</mgrwt>
</event>
<event>
 8    1  0.3488953E-007  0.1257055E+03  0.7546771E-02  0.1233995E+00
          5   -1    0    0  501    0  0.00000000000E+00  0.00000000000E+00  0.57860403928E+02  0.58050980549E+02  0.47000000000E+01 0.  1.
         -5   -1    0    0    0  501 -0.00000000000E+00 -0.00000000000E+00 -0.28467537527E+03  0.28471417121E+03  0.47000000000E+01 0.  1.
         25    2    1    2    0    0 -0.12427975122E+02 -0.26667759968E+01 -0.14913705746E+03  0.19504800140E+03  0.12506116377E+03 0.  0.
         25    2    1    2    0    0  0.12427975122E+02  0.26667759968E+01 -0.77677913878E+02  0.14771715035E+03  0.12499972778E+03 0.  0.
          5    1    3    3  502    0  0.19325473926E+02 -0.46023698943E+02 -0.18037625495E+02  0.53283212557E+02  0.47000000000E+01 0. -1.
         -5    1    3    3    0  502 -0.31753449048E+02  0.43356922946E+02 -0.13109943197E+03  0.14176478885E+03  0.47000000000E+01 0. -1.
          5    1    4    4  503    0  0.37397462228E+02  0.54449693986E+02 -0.53668326881E+02  0.85239185041E+02  0.47000000000E+01 0.  1.
         -5    1    4    4    0  503 -0.24969487105E+02 -0.51782917989E+02 -0.24009586998E+02  0.62477965313E+02  0.47000000000E+01 0.  1.
<mgrwt>
<rscale>  0 0.12569017E+03</rscale>
<asrwt>0</asrwt>
<pdfrwt beam="1">  1        5 0.89192448E-02 0.12570545E+03</pdfrwt>
<pdfrwt beam="2">  1       -5 0.43813855E-01 0.12570545E+03</pdfrwt>
<totfact> 0.34487182E+02</totfact>
</mgrwt>
</event>
<event>
 8    1  0.3488953E-007  0.1295116E+03  0.7546771E-02  0.1228184E+00
          5   -1    0    0  501    0  0.00000000000E+00  0.00000000000E+00  0.18155395464E+02  0.18753889849E+02  0.47000000000E+01 0. -1.
         -5   -1    0    0    0  501 -0.00000000000E+00 -0.00000000000E+00 -0.91631610869E+03  0.91632816231E+03  0.47000000000E+01 0. -1.
         25    2    1    2    0    0  0.27101891319E+02  0.20339039049E+02 -0.49290797345E+03  0.50963863237E+03  0.12500030515E+03 0.  0.
         25    2    1    2    0    0 -0.27101891319E+02 -0.20339039049E+02 -0.40525273977E+03  0.42544341979E+03  0.12499652526E+03 0.  0.
          5    1    4    4  502    0 -0.73603424415E+02 -0.32314620411E+02 -0.27479133452E+03  0.28634606040E+03  0.47000000000E+01 0.  1.
         -5    1    4    4    0  502  0.46501533096E+02  0.11975581362E+02 -0.13046140525E+03  0.13909735939E+03  0.47000000000E+01 0.  1.
          5    1    3    3  503    0 -0.94952094566E+01  0.13403024809E+02 -0.18917957924E+01  0.17189210801E+02  0.47000000000E+01 0.  1.
         -5    1    3    3    0  503  0.36597100775E+02  0.69360142399E+01 -0.49101617766E+03  0.49244942157E+03  0.47000000000E+01 0.  1.
<mgrwt>
<rscale>  0 0.12951073E+03</rscale>
<asrwt>0</asrwt>
<pdfrwt beam="1">  1        5 0.28401037E-02 0.12951164E+03</pdfrwt>
<pdfrwt beam="2">  1       -5 0.14101864E+00 0.12951164E+03</pdfrwt>
<totfact> 0.15463125E+02</totfact>
</mgrwt>
</event>
<event>
 8    1  0.3488953E-007  0.1398169E+03  0.7546771E-02  0.1213578E+00
          5   -1    0    0  501    0  0.00000000000E+00  0.00000000000E+00  0.92599004065E+02  0.92718205083E+02  0.47000000000E+01 0. -1.
         -5   -1    0    0    0  501 -0.00000000000E+00 -0.00000000000E+00 -0.21094348784E+03  0.21099584134E+03  0.47000000000E+01 0. -1.
         25    2    1    2    0    0  0.32911759178E+02 -0.53270695445E+02 -0.62869740513E+02  0.15329392172E+03  0.12500188510E+03 0.  0.
         25    2    1    2    0    0 -0.32911759178E+02  0.53270695445E+02 -0.55474743260E+02  0.15042012470E+03  0.12501126305E+03 0.  0.
          5    1    3    3  502    0  0.27061556691E+02 -0.97963803329E+01 -0.94573012565E+02  0.98966871345E+02  0.47000000000E+01 0.  1.
         -5    1    3    3    0  502  0.58502024868E+01 -0.43474315112E+02  0.31703272052E+02  0.54327050375E+02  0.47000000000E+01 0.  1.
          5    1    4    4  503    0 -0.20318732154E+02 -0.93447899052E+01  0.33647334119E+02  0.40674427692E+02  0.47000000000E+01 0. -1.
         -5    1    4    4    0  503 -0.12593027024E+02  0.62615485350E+02 -0.89122077379E+02  0.10974569701E+03  0.47000000000E+01 0. -1.
<mgrwt>
<rscale>  0 0.13981481E+03</rscale>
<asrwt>0</asrwt>
<pdfrwt beam="1">  1        5 0.14259197E-01 0.13981690E+03</pdfrwt>
<pdfrwt beam="2">  1       -5 0.32466041E-01 0.13981690E+03</pdfrwt>
<totfact> 0.28751733E+02</totfact>
</mgrwt>
</event>
<event>
 8    1  0.3488953E-007  0.1612789E+03  0.7546771E-02  0.1187261E+00
         -5   -1    0    0    0  501 -0.00000000000E+00  0.00000000000E+00  0.17239319639E+03  0.17245725315E+03  0.47000000000E+01 0.  1.
          5   -1    0    0  501    0  0.00000000000E+00 -0.00000000000E+00 -0.15713110516E+03  0.15720138106E+03  0.47000000000E+01 0.  1.
         25    2    1    2    0    0 -0.62920755959E+01 -0.10171592531E+03  0.40830558865E+02  0.16636711601E+03  0.12500065230E+03 0.  0.
         25    2    1    2    0    0  0.62920755959E+01  0.10171592531E+03 -0.25568467629E+02  0.16329151820E+03  0.12499861480E+03 0.  0.
          5    1    4    4  502    0 -0.58637910871E+02  0.45525913420E+02 -0.32945690092E+01  0.74457756943E+02  0.47000000000E+01 0.  1.
         -5    1    4    4    0  502  0.64929986467E+02  0.56190011892E+02 -0.22273898620E+02  0.88833761256E+02  0.47000000000E+01 0.  1.
          5    1    3    3  503    0 -0.12054183023E+02 -0.12804164196E+03  0.49172305618E+02  0.13776781570E+03  0.47000000000E+01 0.  1.
         -5    1    3    3    0  503  0.57621074268E+01  0.26325716648E+02 -0.83417467530E+01  0.28599300304E+02  0.47000000000E+01 0.  1.
<mgrwt>
<rscale>  0 0.16127850E+03</rscale>
<asrwt>0</asrwt>
<pdfrwt beam="2">  1        5 0.24184350E-01 0.16127890E+03</pdfrwt>
<pdfrwt beam="1">  1       -5 0.26532363E-01 0.16127890E+03</pdfrwt>
<totfact> 0.16800160E+02</totfact>
</mgrwt>
</event>
<event>
 8    1  0.3488953E-007  0.1334558E+03  0.7546771E-02  0.1222417E+00
         -5   -1    0    0    0  501 -0.00000000000E+00  0.00000000000E+00  0.58879493172E+03  0.58881369008E+03  0.47000000000E+01 0.  1.
          5   -1    0    0  501    0  0.00000000000E+00 -0.00000000000E+00 -0.32373968353E+02  0.32713358539E+02  0.47000000000E+01 0.  1.
         25    2    1    2    0    0 -0.76408568806E+01  0.46119271890E+02  0.36105947251E+03  0.38493428222E+03  0.12500035602E+03 0.  0.
         25    2    1    2    0    0  0.76408568806E+01 -0.46119271890E+02  0.19536149086E+03  0.23659276640E+03  0.12499862026E+03 0.  0.
          5    1    3    3  502    0 -0.23057359954E+02  0.82858728594E+02  0.29796266382E+03  0.31016294070E+03  0.47000000000E+01 0. -1.
         -5    1    3    3    0  502  0.15416503074E+02 -0.36739456705E+02  0.63096808692E+02  0.74771341523E+02  0.47000000000E+01 0. -1.
          5    1    4    4  503    0  0.11653949089E+02  0.41654390294E+02  0.84618202146E+02  0.95148478151E+02  0.47000000000E+01 0. -1.
         -5    1    4    4    0  503 -0.40130922081E+01 -0.87773662183E+02  0.11074328871E+03  0.14144428825E+03  0.47000000000E+01 0. -1.
<mgrwt>
<rscale>  0 0.13345542E+03</rscale>
<asrwt>0</asrwt>
<pdfrwt beam="2">  1        5 0.50081608E-02 0.13345583E+03</pdfrwt>
<pdfrwt beam="1">  1       -5 0.90611379E-01 0.13345583E+03</pdfrwt>
<totfact> 0.18761560E+02</totfact>
</mgrwt>
</event>
<event>
 8    1  0.3488953E-007  0.1389350E+03  0.7546771E-02  0.1214770E+00
         -5   -1    0    0    0  501 -0.00000000000E+00  0.00000000000E+00  0.14908552064E+03  0.14915958723E+03  0.47000000000E+01 0. -1.
          5   -1    0    0  501    0  0.00000000000E+00 -0.00000000000E+00 -0.13257078499E+03  0.13265407281E+03  0.47000000000E+01 0. -1.
         25    2    1    2    0    0 -0.52311258631E+02  0.30667954759E+02  0.30290658953E+02  0.14219740331E+03  0.12500234501E+03 0.  0.
         25    2    1    2    0    0  0.52311258631E+02 -0.30667954759E+02 -0.13775923306E+02  0.13961625673E+03  0.12500372735E+03 0.  0.
          5    1    3    3  502    0 -0.93651140461E+02  0.18997036988E+02  0.19138860754E+02  0.97569511195E+02  0.47000000000E+01 0.  1.
         -5    1    3    3    0  502  0.41339881830E+02  0.11670917771E+02  0.11151798199E+02  0.44627892113E+02  0.47000000000E+01 0.  1.
          5    1    4    4  503    0  0.92204814274E+02 -0.32782589650E+02 -0.16270602033E+02  0.99313888505E+02  0.47000000000E+01 0. -1.
         -5    1    4    4    0  503 -0.39893555644E+02  0.21146348909E+01  0.24946787271E+01  0.40302368225E+02  0.47000000000E+01 0. -1.
<mgrwt>
<rscale>  0 0.13893465E+03</rscale>
<asrwt>0</asrwt>
<pdfrwt beam="2">  1        5 0.20407609E-01 0.13893496E+03</pdfrwt>
<pdfrwt beam="1">  1       -5 0.22948338E-01 0.13893496E+03</pdfrwt>
<totfact> 0.29117966E+02</totfact>
</mgrwt>
</event>
<event>
 8    1  0.3488953E-007  0.1403712E+03  0.7546771E-02  0.1212840E+00
          5   -1    0    0  501    0  0.00000000000E+00  0.00000000000E+00  0.27998758740E+02  0.28390500013E+02  0.47000000000E+01 0.  1.
         -5   -1    0    0    0  501 -0.00000000000E+00 -0.00000000000E+00 -0.71150577008E+03  0.71152129332E+03  0.47000000000E+01 0.  1.
         25    2    1    2    0    0 -0.26922886284E+01  0.63757577537E+02 -0.39212960123E+03  0.41649693550E+03  0.12502718108E+03 0.  0.
         25    2    1    2    0    0  0.26922886284E+01 -0.63757577537E+02 -0.29137741011E+03  0.32341485784E+03  0.12499639210E+03 0.  0.
          5    1    4    4  502    0 -0.14120945609E+02 -0.73062419930E+02 -0.29413703767E+03  0.30344061238E+03  0.47000000000E+01 0. -1.
         -5    1    4    4    0  502  0.16813234238E+02  0.93048423927E+01  0.27596275612E+01  0.19974245462E+02  0.47000000000E+01 0. -1.
          5    1    3    3  503    0 -0.14587254641E+02 -0.19073041131E+02 -0.12026863238E+02  0.27263608259E+02  0.47000000000E+01 0.  1.
         -5    1    3    3    0  503  0.11894966012E+02  0.82830618669E+02 -0.38010273799E+03  0.38923332724E+03  0.47000000000E+01 0.  1.
<mgrwt>
<rscale>  0 0.14036434E+03</rscale>
<asrwt>0</asrwt>
<pdfrwt beam="1">  1        5 0.43388299E-02 0.14037120E+03</pdfrwt>
<pdfrwt beam="2">  1       -5 0.10949374E+00 0.14037120E+03</pdfrwt>
<totfact> 0.15261441E+02</totfact>
</mgrwt>
</event>
<event>
 8    1  0.3488953E-007  0.1274037E+03  0.7546771E-02  0.1231361E+00
         -5   -1    0    0    0  501 -0.00000000000E+00  0.00000000000E+00  0.40346667542E+03  0.40349404974E+03  0.47000000000E+01 0.  1.
          5   -1    0    0  501    0  0.00000000000E+00 -0.00000000000E+00 -0.40235254869E+02  0.40508835263E+02  0.47000000000E+01 0.  1.
         25    2    1    2    0    0  0.20579295711E+02 -0.13548032077E+02  0.19605700461E+03  0.23381492973E+03  0.12499606283E+03 0.  0.
         25    2    1    2    0    0 -0.20579295711E+02  0.13548032077E+02  0.16717441594E+03  0.21018795527E+03  0.12499853843E+03 0.  0.
          5    1    3    3  502    0  0.70607237213E+02 -0.89231267008E+01  0.79507511037E+02  0.10681075998E+03  0.47000000000E+01 0. -1.
         -5    1    3    3    0  502 -0.50027941502E+02 -0.46249053767E+01  0.11654949357E+03  0.12700416975E+03  0.47000000000E+01 0. -1.
          5    1    4    4  503    0 -0.31169163545E+02  0.64900744811E+01 -0.90587773597E+01  0.33433355651E+02  0.47000000000E+01 0.  1.
         -5    1    4    4    0  503  0.10589867834E+02  0.70579575963E+01  0.17623319330E+03  0.17675459962E+03  0.47000000000E+01 0.  1.
<mgrwt>
<rscale>  0 0.12740305E+03</rscale>
<asrwt>0</asrwt>
<pdfrwt beam="2">  1        5 0.62131895E-02 0.12740365E+03</pdfrwt>
<pdfrwt beam="1">  1       -5 0.62094947E-01 0.12740365E+03</pdfrwt>
<totfact> 0.30500833E+02</totfact>
</mgrwt>
</event>
<event>
 8    1  0.3488953E-007  0.1911089E+03  0.7546771E-02  0.1157471E+00
          5   -1    0    0  501    0  0.00000000000E+00  0.00000000000E+00  0.17140666904E+03  0.17147109433E+03  0.47000000000E+01 0.  1.
         -5   -1    0    0    0  501 -0.00000000000E+00 -0.00000000000E+00 -0.28995977848E+03  0.28999786747E+03  0.47000000000E+01 0.  1.
         25    2    1    2    0    0  0.22245661145E+01  0.14454433810E+03 -0.17819551799E+03  0.26129724899E+03  0.12499838130E+03 0.  0.
         25    2    1    2    0    0 -0.22245661145E+01 -0.14454433810E+03  0.59642408551E+02  0.20017171280E+03  0.12495392486E+03 0.  0.
          5    1    3    3  502    0  0.29081507690E+02  0.15297892896E+03 -0.17205120154E+03  0.23210340960E+03  0.47000000000E+01 0.  1.
         -5    1    3    3    0  502 -0.26856941576E+02 -0.84345908682E+01 -0.61443164540E+01  0.29193839395E+02  0.47000000000E+01 0.  1.
          5    1    4    4  503    0  0.24758564665E+02 -0.15405307295E+02 -0.28814827627E+02  0.41263716608E+02  0.47000000000E+01 0.  1.
         -5    1    4    4    0  503 -0.26983130780E+02 -0.12913903080E+03  0.88457236178E+02  0.15890799620E+03  0.47000000000E+01 0.  1.
<mgrwt>
<rscale>  0 0.19110163E+03</rscale>
<asrwt>0</asrwt>
<pdfrwt beam="1">  1        5 0.26378142E-01 0.19110889E+03</pdfrwt>
<pdfrwt beam="2">  1       -5 0.44617082E-01 0.19110889E+03</pdfrwt>
<totfact> 0.52506652E+01</totfact>
</mgrwt>
</event>
<event>
 8    1  0.3488953E-007  0.1485365E+03  0.7546771E-02  0.1202286E+00
          5   -1    0    0  501    0  0.00000000000E+00  0.00000000000E+00  0.97899377681E+02  0.98012132669E+02  0.47000000000E+01 0.  1.
         -5   -1    0    0    0  501 -0.00000000000E+00 -0.00000000000E+00 -0.27280497842E+03  0.27284546221E+03  0.47000000000E+01 0.  1.
         25    2    1    2    0    0  0.16788176376E+02 -0.78448490614E+02 -0.16498646860E+03  0.22199916654E+03  0.12500834603E+03 0.  0.
         25    2    1    2    0    0 -0.16788176376E+02  0.78448490614E+02 -0.99191321430E+01  0.14885842835E+03  0.12499773583E+03 0.  0.
          5    1    4    4  502    0 -0.37047519883E+02  0.17264557881E+02  0.47197955424E+02  0.62612464290E+02  0.47000000000E+01 0. -1.
         -5    1    4    4    0  502  0.20259343507E+02  0.61183932733E+02 -0.57117087567E+02  0.86245964057E+02  0.47000000000E+01 0. -1.
          5    1    3    3  503    0  0.41206944714E-01 -0.11023305991E+03 -0.13871881051E+03  0.17724651643E+03  0.47000000000E+01 0. -1.
         -5    1    3    3    0  503  0.16746969431E+02  0.31784569298E+02 -0.26267658087E+02  0.44752650111E+02  0.47000000000E+01 0. -1.
<mgrwt>
<rscale>  0 0.14853428E+03</rscale>
<asrwt>0</asrwt>
<pdfrwt beam="1">  1        5 0.15073231E-01 0.14853651E+03</pdfrwt>
<pdfrwt beam="2">  1       -5 0.41981784E-01 0.14853651E+03</pdfrwt>
<totfact> 0.15777175E+02</totfact>
</mgrwt>
</event>
<event>
 8    1  0.3488953E-007  0.1965212E+03  0.7546771E-02  0.1152708E+00
          5   -1    0    0  501    0  0.00000000000E+00  0.00000000000E+00  0.38762426067E+03  0.38765275371E+03  0.47000000000E+01 0. -1.
         -5   -1    0    0    0  501 -0.00000000000E+00 -0.00000000000E+00 -0.10508380606E+03  0.10518886014E+03  0.47000000000E+01 0. -1.
         25    2    1    2    0    0 -0.51594633853E+02 -0.14259292903E+03  0.84732407017E+02  0.21400727122E+03  0.12499912674E+03 0.  0.
         25    2    1    2    0    0  0.51594633853E+02  0.14259292903E+03  0.19780804759E+03  0.27883434263E+03  0.12500326910E+03 0.  0.
          5    1    4    4  502    0 -0.37292306646E+02  0.32862934338E+02  0.25687770748E+02  0.56148376239E+02  0.47000000000E+01 0. -1.
         -5    1    4    4    0  502  0.88886940499E+02  0.10972999469E+03  0.17212027684E+03  0.22268596639E+03  0.47000000000E+01 0. -1.
          5    1    3    3  503    0  0.40429353082E+02 -0.44863834587E+02  0.39326491069E+02  0.72221597492E+02  0.47000000000E+01 0. -1.
         -5    1    3    3    0  503 -0.92023986935E+02 -0.97729094439E+02  0.45405915948E+02  0.14178567373E+03  0.47000000000E+01 0. -1.
<mgrwt>
<rscale>  0 0.19652050E+03</rscale>
<asrwt>0</asrwt>
<pdfrwt beam="1">  1        5 0.59644776E-01 0.19652116E+03</pdfrwt>
<pdfrwt beam="2">  1       -5 0.16177012E-01 0.19652116E+03</pdfrwt>
<totfact> 0.71350521E+01</totfact>
</mgrwt>
</event>
<event>
 8    1  0.3488953E-007  0.1277559E+03  0.7546771E-02  0.1230828E+00
         -5   -1    0    0    0  501 -0.00000000000E+00  0.00000000000E+00  0.79996767364E+03  0.79998148033E+03  0.47000000000E+01 0.  1.
          5   -1    0    0  501    0  0.00000000000E+00 -0.00000000000E+00 -0.21422215809E+02  0.21931742525E+02  0.47000000000E+01 0.  1.
         25    2    1    2    0    0  0.14016805373E+01 -0.26318059030E+02  0.48950516636E+03  0.50590204627E+03  0.12500787010E+03 0.  0.
         25    2    1    2    0    0 -0.14016805373E+01  0.26318059030E+02  0.28904029147E+03  0.31601117658E+03  0.12499667473E+03 0.  0.
          5    1    3    3  502    0 -0.60821143606E+02 -0.21823902725E+02  0.22887247979E+03  0.23786592073E+03  0.47000000000E+01 0.  1.
         -5    1    3    3    0  502  0.62222824143E+02 -0.44941563042E+01  0.26063268657E+03  0.26803612554E+03  0.47000000000E+01 0.  1.
          5    1    4    4  503    0  0.28520503591E+02  0.67988917104E+02  0.19906029815E+03  0.21232758717E+03  0.47000000000E+01 0.  1.
         -5    1    4    4    0  503 -0.29922184128E+02 -0.41670858074E+02  0.89979993318E+02  0.10368358941E+03  0.47000000000E+01 0.  1.
<mgrwt>
<rscale>  0 0.12775317E+03</rscale>
<asrwt>0</asrwt>
<pdfrwt beam="2">  1        5 0.33359825E-02 0.12775591E+03</pdfrwt>
<pdfrwt beam="1">  1       -5 0.12311219E+00 0.12775591E+03</pdfrwt>
<totfact> 0.16917829E+02</totfact>
</mgrwt>
</event>
<event>
 8    1  0.3488953E-007  0.1390583E+03  0.7546771E-02  0.1214604E+00
          5   -1    0    0  501    0  0.00000000000E+00  0.00000000000E+00  0.14903028224E+03  0.14910437627E+03  0.47000000000E+01 0.  1.
         -5   -1    0    0    0  501 -0.00000000000E+00 -0.00000000000E+00 -0.13297817441E+03  0.13306120723E+03  0.47000000000E+01 0.  1.
         25    2    1    2    0    0 -0.53224438188E+02 -0.29656197816E+02 -0.14448024931E+02  0.13980687033E+03  0.12499953871E+03 0.  0.
         25    2    1    2    0    0  0.53224438188E+02  0.29656197816E+02  0.30500132759E+02  0.14235871317E+03  0.12499365675E+03 0.  0.
          5    1    4    4  502    0 -0.29519515530E+02  0.25152656616E+02 -0.21325570110E+02  0.44507615893E+02  0.47000000000E+01 0. -1.
         -5    1    4    4    0  502  0.82743953717E+02  0.45035412002E+01  0.51825702869E+02  0.97851097275E+02  0.47000000000E+01 0. -1.
          5    1    3    3  503    0 -0.39831550178E+02  0.10216886355E+02 -0.63011255902E+02  0.75388629956E+02  0.47000000000E+01 0. -1.
         -5    1    3    3    0  503 -0.13392888010E+02 -0.39873084171E+02  0.48563230970E+02  0.64418240374E+02  0.47000000000E+01 0. -1.
<mgrwt>
<rscale>  0 0.13905700E+03</rscale>
<asrwt>0</asrwt>
<pdfrwt beam="1">  1        5 0.22939822E-01 0.13905832E+03</pdfrwt>
<pdfrwt beam="2">  1       -5 0.20470267E-01 0.13905832E+03</pdfrwt>
<totfact> 0.28980566E+02</totfact>
</mgrwt>
</event>
<event>
 8    1  0.3488953E-007  0.1424666E+03  0.7546771E-02  0.1210051E+00
          5   -1    0    0  501    0  0.00000000000E+00  0.00000000000E+00  0.68666900878E+03  0.68668509349E+03  0.47000000000E+01 0.  1.
         -5   -1    0    0    0  501 -0.00000000000E+00 -0.00000000000E+00 -0.64473439563E+02  0.64644523427E+02  0.47000000000E+01 0.  1.
         25    2    1    2    0    0  0.67660464754E+02  0.94974003910E+01  0.34448876221E+02  0.14656280339E+03  0.12500316459E+03 0.  0.
         25    2    1    2    0    0 -0.67660464754E+02 -0.94974003910E+01  0.58774669300E+03  0.60476681353E+03  0.12501433724E+03 0.  0.
          5    1    4    4  502    0 -0.98904003093E+02  0.78662603486E+01  0.33351755282E+03  0.34799414926E+03  0.47000000000E+01 0. -1.
         -5    1    4    4    0  502  0.31243538338E+02 -0.17363660740E+02  0.25422914017E+03  0.25677266427E+03  0.47000000000E+01 0. -1.
          5    1    3    3  503    0  0.54508001848E+02 -0.25158903568E+02  0.71814485450E+02  0.93720344722E+02  0.47000000000E+01 0. -1.
         -5    1    3    3    0  503  0.13152462906E+02  0.34656303959E+02 -0.37365609229E+02  0.52842458664E+02  0.47000000000E+01 0. -1.
<mgrwt>
<rscale>  0 0.14246412E+03</rscale>
<asrwt>0</asrwt>
<pdfrwt beam="1">  1        5 0.10565578E+00 0.14246657E+03</pdfrwt>
<pdfrwt beam="2">  1       -5 0.99333882E-02 0.14246657E+03</pdfrwt>
<totfact> 0.41204876E+01</totfact>
</mgrwt>
</event>
<event>
 8    1  0.3488953E-007  0.1376559E+03  0.7546771E-02  0.1216520E+00
         -5   -1    0    0    0  501 -0.00000000000E+00  0.00000000000E+00  0.28967208047E+03  0.28971020728E+03  0.47000000000E+01 0. -1.
          5   -1    0    0  501    0  0.00000000000E+00 -0.00000000000E+00 -0.75261901282E+02  0.75408512680E+02  0.47000000000E+01 0. -1.
         25    2    1    2    0    0 -0.56222338689E+02  0.12740300165E+02  0.17358129184E+03  0.22153546836E+03  0.12499692895E+03 0.  0.
         25    2    1    2    0    0  0.56222338689E+02 -0.12740300165E+02  0.40828887344E+02  0.14358325161E+03  0.12500354189E+03 0.  0.
          5    1    4    4  502    0  0.55130120256E+02 -0.12624583576E+02  0.83323883098E+02  0.10081502747E+03  0.47000000000E+01 0. -1.
         -5    1    4    4    0  502  0.10922184327E+01 -0.11571658959E+00 -0.42494995753E+02  0.42768224133E+02  0.47000000000E+01 0. -1.
          5    1    3    3  503    0  0.15567142152E+02  0.52481280368E+02  0.60271182404E+02  0.81555662785E+02  0.47000000000E+01 0. -1.
         -5    1    3    3    0  503 -0.71789480841E+02 -0.39740980203E+02  0.11331010944E+03  0.13997980557E+03  0.47000000000E+01 0. -1.
<mgrwt>
<rscale>  0 0.13765442E+03</rscale>
<asrwt>0</asrwt>
<pdfrwt beam="2">  1        5 0.11592965E-01 0.13765592E+03</pdfrwt>
<pdfrwt beam="1">  1       -5 0.44579147E-01 0.13765592E+03</pdfrwt>
<totfact> 0.21734580E+02</totfact>
</mgrwt>
</event>
<event>
 8    1  0.3488953E-007  0.1293286E+03  0.7546771E-02  0.1228463E+00
          5   -1    0    0  501    0  0.00000000000E+00  0.00000000000E+00  0.15081213114E+03  0.15088535018E+03  0.47000000000E+01 0.  1.
         -5   -1    0    0    0  501 -0.00000000000E+00 -0.00000000000E+00 -0.12285838650E+03  0.12294825389E+03  0.47000000000E+01 0.  1.
         25    2    1    2    0    0 -0.32939037720E+02  0.35870420900E+01 -0.28997873052E+02  0.13252057237E+03  0.12499191327E+03 0.  0.
         25    2    1    2    0    0  0.32939037720E+02 -0.35870420900E+01  0.56951617686E+02  0.14131303169E+03  0.12501215578E+03 0.  0.
          5    1    4    4  502    0 -0.80910987073E+01  0.50197145504E+02  0.52683638262E+02  0.73368079132E+02  0.47000000000E+01 0. -1.
         -5    1    4    4    0  502  0.41030136428E+02 -0.53784187594E+02  0.42679794244E+01  0.67944952563E+02  0.47000000000E+01 0. -1.
          5    1    3    3  503    0  0.31570295052E+02 -0.40103682690E+02 -0.11462511910E+02  0.52521120268E+02  0.47000000000E+01 0.  1.
         -5    1    3    3    0  503 -0.64509332772E+02  0.43690724780E+02 -0.17535361142E+02  0.79999452103E+02  0.47000000000E+01 0.  1.
<mgrwt>
<rscale>  0 0.12932371E+03</rscale>
<asrwt>0</asrwt>
<pdfrwt beam="1">  1        5 0.23214411E-01 0.12932860E+03</pdfrwt>
<pdfrwt beam="2">  1       -5 0.18913835E-01 0.12932860E+03</pdfrwt>
<totfact> 0.32004541E+02</totfact>
</mgrwt>
</event>
<event>
 8    1  0.3488953E-007  0.1670187E+03  0.7546771E-02  0.1180994E+00
          5   -1    0    0  501    0  0.00000000000E+00  0.00000000000E+00  0.28381445103E+02  0.28767975704E+02  0.47000000000E+01 0.  1.
         -5   -1    0    0    0  501 -0.00000000000E+00 -0.00000000000E+00 -0.97736861544E+03  0.97737991613E+03  0.47000000000E+01 0.  1.
         25    2    1    2    0    0  0.53545691305E+02  0.96955433621E+02 -0.49462329488E+03  0.52205928176E+03  0.12500477057E+03 0.  0.
         25    2    1    2    0    0 -0.53545691305E+02 -0.96955433621E+02 -0.45436387546E+03  0.48408861007E+03  0.12501101517E+03 0.  0.
          5    1    4    4  502    0 -0.46163790376E+02  0.11920879242E+02 -0.22500487409E+03  0.23004887800E+03  0.47000000000E+01 0. -1.
         -5    1    4    4    0  502 -0.73819009288E+01 -0.10887631286E+03 -0.22935900137E+03  0.25403973207E+03  0.47000000000E+01 0. -1.
          5    1    3    3  503    0 -0.18672790004E+02 -0.96803854554E+01 -0.17276784658E+02  0.27621734870E+02  0.47000000000E+01 0.  1.
         -5    1    3    3    0  503  0.72218481309E+02  0.10663581908E+03 -0.47734651022E+03  0.49443754689E+03  0.47000000000E+01 0.  1.
<mgrwt>
<rscale>  0 0.16701755E+03</rscale>
<asrwt>0</asrwt>
<pdfrwt beam="1">  1        5 0.43969793E-02 0.16701871E+03</pdfrwt>
<pdfrwt beam="2">  1       -5 0.15039498E+00 0.16701871E+03</pdfrwt>
<totfact> 0.68803367E+01</totfact>
</mgrwt>
</event>
<event>
 8    1  0.3488953E-007  0.1295286E+03  0.7546771E-02  0.1228158E+00
          5   -1    0    0  501    0  0.00000000000E+00  0.00000000000E+00  0.63627921165E+03  0.63629657014E+03  0.47000000000E+01 0.  1.
         -5   -1    0    0    0  501 -0.00000000000E+00 -0.00000000000E+00 -0.26146555361E+02  0.26565623600E+02  0.47000000000E+01 0.  1.
         25    2    1    2    0    0  0.33943365353E+02 -0.16536048658E+00  0.29995075750E+03  0.32672332028E+03  0.12500196677E+03 0.  0.
         25    2    1    2    0    0 -0.33943365353E+02  0.16536048658E+00  0.31018189878E+03  0.33613887346E+03  0.12499741006E+03 0.  0.
          5    1    4    4  502    0 -0.45980400381E+02  0.68162354428E+01  0.29874108749E+02  0.55454581942E+02  0.47000000000E+01 0. -1.
         -5    1    4    4    0  502  0.12037035028E+02 -0.66508749562E+01  0.28030779003E+03  0.28068429152E+03  0.47000000000E+01 0. -1.
          5    1    3    3  503    0  0.98543627244E+01  0.51240769662E+02  0.23300167225E+03  0.23881916634E+03  0.47000000000E+01 0. -1.
         -5    1    3    3    0  503  0.24089002628E+02 -0.51406130148E+02  0.66949085250E+02  0.87904153942E+02  0.47000000000E+01 0. -1.
<mgrwt>
<rscale>  0 0.12952755E+03</rscale>
<asrwt>0</asrwt>
<pdfrwt beam="1">  1        5 0.97922684E-01 0.12952865E+03</pdfrwt>
<pdfrwt beam="2">  1       -5 0.40561181E-02 0.12952865E+03</pdfrwt>
<totfact> 0.21834806E+02</totfact>
</mgrwt>
</event>
<event>
 8    1  0.3488953E-007  0.1252205E+03  0.7546771E-02  0.1234729E+00
          5   -1    0    0  501    0  0.00000000000E+00  0.00000000000E+00  0.10914518785E+03  0.10924633647E+03  0.47000000000E+01 0. -1.
         -5   -1    0    0    0  501 -0.00000000000E+00 -0.00000000000E+00 -0.15461030888E+03  0.15468173005E+03  0.47000000000E+01 0. -1.
         25    2    1    2    0    0  0.68547093765E+01  0.27369514569E+01 -0.58171076549E+02  0.13806457705E+03  0.12499390123E+03 0.  0.
         25    2    1    2    0    0 -0.68547093765E+01 -0.27369514569E+01  0.12705955519E+02  0.12586348947E+03  0.12500279490E+03 0.  0.
          5    1    4    4  502    0 -0.37224115102E+01  0.88608716143E+01  0.68126476319E+02  0.68961425224E+02  0.47000000000E+01 0.  1.
         -5    1    4    4    0  502 -0.31322978664E+01 -0.11597823071E+02 -0.55420520800E+02  0.56902064248E+02  0.47000000000E+01 0.  1.
          5    1    3    3  503    0  0.64636771864E+02  0.88506148519E+01 -0.20053035852E+02  0.68413886800E+02  0.47000000000E+01 0. -1.
         -5    1    3    3    0  503 -0.57782062487E+02 -0.61136633951E+01 -0.38118040697E+02  0.69650690247E+02  0.47000000000E+01 0. -1.
<mgrwt>
<rscale>  0 0.12521829E+03</rscale>
<asrwt>0</asrwt>
<pdfrwt beam="1">  1        5 0.16804842E-01 0.12522051E+03</pdfrwt>
<pdfrwt beam="2">  1       -5 0.23799476E-01 0.12522051E+03</pdfrwt>
<totfact> 0.37496142E+02</totfact>
</mgrwt>
</event>
<event>
 8    1  0.3488953E-007  0.1389346E+03  0.7546771E-02  0.1214770E+00
         -5   -1    0    0    0  501 -0.00000000000E+00  0.00000000000E+00  0.13729224952E+03  0.13737267478E+03  0.47000000000E+01 0.  1.
          5   -1    0    0  501    0  0.00000000000E+00 -0.00000000000E+00 -0.14271467397E+03  0.14279204518E+03  0.47000000000E+01 0.  1.
         25    2    1    2    0    0  0.45066774307E+02 -0.40573802618E+02  0.14986720204E+02  0.13973909903E+03  0.12500066563E+03 0.  0.
         25    2    1    2    0    0 -0.45066774307E+02  0.40573802618E+02 -0.20409144663E+02  0.14042562094E+03  0.12500229688E+03 0.  0.
          5    1    3    3  502    0 -0.19389352392E+02  0.30716085512E+02  0.22891126451E+02  0.43191649257E+02  0.47000000000E+01 0.  1.
         -5    1    3    3    0  502  0.64456126699E+02 -0.71289888130E+02 -0.79044062466E+01  0.96547449768E+02  0.47000000000E+01 0.  1.
          5    1    4    4  503    0 -0.22994675387E+02 -0.44630322431E+02 -0.25311074933E+01  0.50488783720E+02  0.47000000000E+01 0. -1.
         -5    1    4    4    0  503 -0.22072098920E+02  0.85204125049E+02 -0.17878037169E+02  0.89936837220E+02  0.47000000000E+01 0. -1.
<mgrwt>
<rscale>  0 0.13893423E+03</rscale>
<asrwt>0</asrwt>
<pdfrwt beam="2">  1        5 0.21968242E-01 0.13893460E+03</pdfrwt>
<pdfrwt beam="1">  1       -5 0.21134023E-01 0.13893460E+03</pdfrwt>
<totfact> 0.29617116E+02</totfact>
</mgrwt>
</event>
<event>
 8    1  0.3488953E-007  0.1353754E+03  0.7546771E-02  0.1219691E+00
          5   -1    0    0  501    0  0.00000000000E+00  0.00000000000E+00  0.38264366218E+03  0.38267252607E+03  0.47000000000E+01 0.  1.
         -5   -1    0    0    0  501 -0.00000000000E+00 -0.00000000000E+00 -0.49092871437E+02  0.49317340012E+02  0.47000000000E+01 0.  1.
         25    2    1    2    0    0  0.51924751748E+02  0.24775445307E+01  0.13112304901E+03  0.18846676489E+03  0.12499659762E+03 0.  0.
         25    2    1    2    0    0 -0.51924751748E+02 -0.24775445307E+01  0.20242774173E+03  0.24352310119E+03  0.12499676843E+03 0.  0.
          5    1    4    4  502    0 -0.29479546037E+02  0.46751550096E+02  0.17316627257E+03  0.18183343759E+03  0.47000000000E+01 0. -1.
         -5    1    4    4    0  502 -0.22445205712E+02 -0.49229094626E+02  0.29261469166E+02  0.61689663599E+02  0.47000000000E+01 0. -1.
          5    1    3    3  503    0  0.57613082448E+02 -0.46632379675E+02  0.39182794955E+02  0.83971587598E+02  0.47000000000E+01 0.  1.
         -5    1    3    3    0  503 -0.56883306992E+01  0.49109924206E+02  0.91940254056E+02  0.10449517729E+03  0.47000000000E+01 0.  1.
<mgrwt>
<rscale>  0 0.13537540E+03</rscale>
<asrwt>0</asrwt>
<pdfrwt beam="1">  1        5 0.58887741E-01 0.13537544E+03</pdfrwt>
<pdfrwt beam="2">  1       -5 0.75722368E-02 0.13537544E+03</pdfrwt>
<totfact> 0.25031765E+02</totfact>
</mgrwt>
</event>
<event>
 8    1  0.3488953E-007  0.1294275E+03  0.7546771E-02  0.1228312E+00
          5   -1    0    0  501    0  0.00000000000E+00  0.00000000000E+00  0.12856933026E+03  0.12865520853E+03  0.47000000000E+01 0. -1.
         -5   -1    0    0    0  501 -0.00000000000E+00 -0.00000000000E+00 -0.19980984812E+03  0.19986511803E+03  0.47000000000E+01 0. -1.
         25    2    1    2    0    0 -0.43927025377E+01  0.33304114427E+02 -0.13259918676E+03  0.18529443365E+03  0.12499209150E+03 0.  0.
         25    2    1    2    0    0  0.43927025377E+01 -0.33304114427E+02  0.61358668900E+02  0.14322589292E+03  0.12498123971E+03 0.  0.
          5    1    4    4  502    0  0.62588059260E+02 -0.33254523551E+02  0.33235882816E+02  0.78420930912E+02  0.47000000000E+01 0.  1.
         -5    1    4    4    0  502 -0.58195356722E+02 -0.49590876370E-01  0.28122786085E+02  0.64804962005E+02  0.47000000000E+01 0.  1.
          5    1    3    3  503    0  0.33428656985E+01 -0.33215467633E+02 -0.10906459471E+03  0.11415611179E+03  0.47000000000E+01 0. -1.
         -5    1    3    3    0  503 -0.77355682361E+01  0.66519582060E+02 -0.23534592056E+02  0.71138321857E+02  0.47000000000E+01 0. -1.
<mgrwt>
<rscale>  0 0.12942490E+03</rscale>
<asrwt>0</asrwt>
<pdfrwt beam="1">  1        5 0.19790754E-01 0.12942752E+03</pdfrwt>
<pdfrwt beam="2">  1       -5 0.30750834E-01 0.12942752E+03</pdfrwt>
<totfact> 0.17101949E+02</totfact>
</mgrwt>
</event>
<event>
 8    1  0.3488953E-007  0.1426388E+03  0.7546771E-02  0.1209822E+00
         -5   -1    0    0    0  501 -0.00000000000E+00  0.00000000000E+00  0.13280430799E+03  0.13288744944E+03  0.47000000000E+01 0.  1.
          5   -1    0    0  501    0  0.00000000000E+00 -0.00000000000E+00 -0.15303842888E+03  0.15311058328E+03  0.47000000000E+01 0.  1.
         25    2    1    2    0    0  0.57981797761E+02  0.36860293221E+02 -0.11041671288E+02  0.14306331998E+03  0.12499849971E+03 0.  0.
         25    2    1    2    0    0 -0.57981797761E+02 -0.36860293221E+02 -0.91924496053E+01  0.14293471275E+03  0.12500104356E+03 0.  0.
          5    1    3    3  502    0 -0.34706915234E+02  0.34062653374E+02 -0.11588608350E+02  0.50211753240E+02  0.47000000000E+01 0. -1.
         -5    1    3    3    0  502  0.92688712994E+02  0.27976398467E+01  0.54693706235E+00  0.92851566736E+02  0.47000000000E+01 0. -1.
          5    1    4    4  503    0 -0.46839652696E+02 -0.82206684001E+02  0.17398622242E+01  0.94747079531E+02  0.47000000000E+01 0.  1.
         -5    1    4    4    0  503 -0.11142145064E+02  0.45346390781E+02 -0.10932311829E+02  0.48187633221E+02  0.47000000000E+01 0.  1.
<mgrwt>
<rscale>  0 0.14263826E+03</rscale>
<asrwt>0</asrwt>
<pdfrwt beam="2">  1        5 0.23556319E-01 0.14263881E+03</pdfrwt>
<pdfrwt beam="1">  1       -5 0.20443378E-01 0.14263881E+03</pdfrwt>
<totfact> 0.27864273E+02</totfact>
</mgrwt>
</event>
<event>
 8    1  0.3488953E-007  0.1339796E+03  0.7546771E-02  0.1221670E+00
         -5   -1    0    0    0  501 -0.00000000000E+00  0.00000000000E+00  0.11216802125E+03  0.11226644642E+03  0.47000000000E+01 0.  1.
          5   -1    0    0  501    0  0.00000000000E+00 -0.00000000000E+00 -0.22804974950E+03  0.22809817677E+03  0.47000000000E+01 0.  1.
         25    2    1    2    0    0  0.42064147879E+02 -0.23572962914E+02  0.35111831080E+02  0.13850406097E+03  0.12500182841E+03 0.  0.
         25    2    1    2    0    0 -0.42064147879E+02  0.23572962914E+02 -0.15099355932E+03  0.20186056221E+03  0.12499421788E+03 0.  0.
          5    1    3    3  502    0  0.17528926406E+01 -0.43100642745E+02  0.69434911060E+02  0.81878171154E+02  0.47000000000E+01 0. -1.
         -5    1    3    3    0  502  0.40311255238E+02  0.19527679832E+02 -0.34323079980E+02  0.56625889819E+02  0.47000000000E+01 0. -1.
          5    1    4    4  503    0 -0.74019174295E+02  0.63005942781E+01 -0.14731074313E+03  0.16504872218E+03  0.47000000000E+01 0. -1.
         -5    1    4    4    0  503  0.31955026416E+02  0.17272368636E+02 -0.36828161894E+01  0.36811840033E+02  0.47000000000E+01 0. -1.
<mgrwt>
<rscale>  0 0.13397783E+03</rscale>
<asrwt>0</asrwt>
<pdfrwt beam="2">  1        5 0.35095873E-01 0.13397960E+03</pdfrwt>
<pdfrwt beam="1">  1       -5 0.17267915E-01 0.13397960E+03</pdfrwt>
<totfact> 0.17130686E+02</totfact>
</mgrwt>
</event>
<event>
 8    1  0.3488953E-007  0.1442279E+03  0.7546771E-02  0.1207751E+00
         -5   -1    0    0    0  501 -0.00000000000E+00  0.00000000000E+00  0.28464752744E+03  0.28468632717E+03  0.47000000000E+01 0.  1.
          5   -1    0    0  501    0  0.00000000000E+00 -0.00000000000E+00 -0.95599466060E+02  0.95714930449E+02  0.47000000000E+01 0.  1.
         25    2    1    2    0    0  0.65554198646E+01 -0.71652098979E+02  0.18700394026E+03  0.23616132502E+03  0.12499880376E+03 0.  0.
         25    2    1    2    0    0 -0.65554198646E+01  0.71652098979E+02  0.20441211145E+01  0.14423993260E+03  0.12499593157E+03 0.  0.
          5    1    4    4  502    0 -0.34756228348E+02 -0.25051370847E+02  0.47573023530E+01  0.43362293712E+02  0.47000000000E+01 0. -1.
         -5    1    4    4    0  502  0.28200808483E+02  0.96703469826E+02 -0.27131812385E+01  0.10087763889E+03  0.47000000000E+01 0. -1.
          5    1    3    3  503    0 -0.13615761697E+02 -0.84384346021E+02  0.19298928684E+03  0.21112333280E+03  0.47000000000E+01 0. -1.
         -5    1    3    3    0  503  0.20171181562E+02  0.12732247042E+02 -0.59853465756E+01  0.25037992211E+02  0.47000000000E+01 0. -1.
<mgrwt>
<rscale>  0 0.14422731E+03</rscale>
<asrwt>0</asrwt>
<pdfrwt beam="2">  1        5 0.14719477E-01 0.14422794E+03</pdfrwt>
<pdfrwt beam="1">  1       -5 0.43803794E-01 0.14422794E+03</pdfrwt>
<totfact> 0.14939996E+02</totfact>
</mgrwt>
</event>
<event>
 8    1  0.3488953E-007  0.1588534E+03  0.7546771E-02  0.1190002E+00
         -5   -1    0    0    0  501 -0.00000000000E+00  0.00000000000E+00  0.11422029103E+03  0.11431694924E+03  0.47000000000E+01 0. -1.
          5   -1    0    0  501    0  0.00000000000E+00 -0.00000000000E+00 -0.27899802600E+03  0.27903761129E+03  0.47000000000E+01 0. -1.
         25    2    1    2    0    0  0.44961701221E+02 -0.87065319884E+02  0.75038905093E+01  0.15901426071E+03  0.12500920859E+03 0.  0.
         25    2    1    2    0    0 -0.44961701221E+02  0.87065319884E+02 -0.17228162548E+03  0.23434029982E+03  0.12502996896E+03 0.  0.
          5    1    4    4  502    0 -0.75845487015E+02  0.20115083644E+02 -0.12142370197E+03  0.14464770960E+03  0.47000000000E+01 0.  1.
         -5    1    4    4    0  502  0.30883785794E+02  0.66950236240E+02 -0.50857923507E+02  0.89692590223E+02  0.47000000000E+01 0.  1.
          5    1    3    3  503    0 -0.20534294042E+01  0.30416897565E+02 -0.67824804206E+01  0.31583164352E+02  0.47000000000E+01 0.  1.
         -5    1    3    3    0  503  0.47015130625E+02 -0.11748221745E+03  0.14286370930E+02  0.12743109636E+03  0.47000000000E+01 0.  1.
<mgrwt>
<rscale>  0 0.15884936E+03</rscale>
<asrwt>0</asrwt>
<pdfrwt beam="2">  1        5 0.42933253E-01 0.15885345E+03</pdfrwt>
<pdfrwt beam="1">  1       -5 0.17582833E-01 0.15885345E+03</pdfrwt>
<totfact> 0.11612823E+02</totfact>
</mgrwt>
</event>
<event>
 8    1  0.3488953E-007  0.1307137E+03  0.7546771E-02  0.1226405E+00
          5   -1    0    0  501    0  0.00000000000E+00  0.00000000000E+00  0.11893629027E+03  0.11902911889E+03  0.47000000000E+01 0.  1.
         -5   -1    0    0    0  501 -0.00000000000E+00 -0.00000000000E+00 -0.15081435871E+03  0.15088757667E+03  0.47000000000E+01 0.  1.
         25    2    1    2    0    0  0.30638387390E+02 -0.22822990797E+02 -0.45730625534E+02  0.13848237343E+03  0.12500591166E+03 0.  0.
         25    2    1    2    0    0 -0.30638387390E+02  0.22822990797E+02  0.13852557100E+02  0.13143432212E+03  0.12499395186E+03 0.  0.
          5    1    3    3  502    0 -0.18335269228E+02 -0.59233356144E+02 -0.45876857533E+02  0.77275795919E+02  0.47000000000E+01 0. -1.
         -5    1    3    3    0  502  0.48973656618E+02  0.36410365347E+02  0.14623199962E+00  0.61206577514E+02  0.47000000000E+01 0. -1.
          5    1    4    4  503    0 -0.63500814292E+02  0.51852246266E+02  0.25204836792E+02  0.85897512515E+02  0.47000000000E+01 0.  1.
         -5    1    4    4    0  503  0.32862426903E+02 -0.29029255469E+02 -0.11352279692E+02  0.45536809607E+02  0.47000000000E+01 0.  1.
<mgrwt>
<rscale>  0 0.13071086E+03</rscale>
<asrwt>0</asrwt>
<pdfrwt beam="1">  1        5 0.18310664E-01 0.13071372E+03</pdfrwt>
<pdfrwt beam="2">  1       -5 0.23214982E-01 0.13071372E+03</pdfrwt>
<totfact> 0.34112459E+02</totfact>
</mgrwt>
</event>
<event>
 8    1  0.3488953E-007  0.1300069E+03  0.7546771E-02  0.1227450E+00
         -5   -1    0    0    0  501 -0.00000000000E+00  0.00000000000E+00  0.10337172074E+03  0.10347851298E+03  0.47000000000E+01 0.  1.
          5   -1    0    0  501    0  0.00000000000E+00 -0.00000000000E+00 -0.17135147516E+03  0.17141592120E+03  0.47000000000E+01 0.  1.
         25    2    1    2    0    0  0.15627582385E+02  0.32118594637E+02 -0.41443512921E+01  0.13006091965E+03  0.12499136658E+03 0.  0.
         25    2    1    2    0    0 -0.15627582385E+02 -0.32118594637E+02 -0.63835403137E+02  0.14483351453E+03  0.12500385108E+03 0.  0.
          5    1    3    3  502    0  0.54852124487E+02  0.44897034622E+02  0.29202337762E+02  0.76807329138E+02  0.47000000000E+01 0.  1.
         -5    1    3    3    0  502 -0.39224542102E+02 -0.12778439984E+02 -0.33346689054E+02  0.53253590512E+02  0.47000000000E+01 0.  1.
          5    1    4    4  503    0 -0.22478230602E+02 -0.70456062105E+02 -0.73564007259E+02  0.10441781793E+03  0.47000000000E+01 0.  1.
         -5    1    4    4    0  503  0.68506482170E+01  0.38337467468E+02  0.97286041221E+01  0.40415696592E+02  0.47000000000E+01 0.  1.
<mgrwt>
<rscale>  0 0.13000388E+03</rscale>
<asrwt>0</asrwt>
<pdfrwt beam="2">  1        5 0.26374938E-01 0.13000688E+03</pdfrwt>
<pdfrwt beam="1">  1       -5 0.15916514E-01 0.13000688E+03</pdfrwt>
<totfact> 0.34482850E+02</totfact>
</mgrwt>
</event>
<event>
 8    1  0.3488953E-007  0.1419322E+03  0.7546771E-02  0.1210756E+00
          5   -1    0    0  501    0  0.00000000000E+00  0.00000000000E+00  0.11133843793E+04  0.11133942995E+04  0.47000000000E+01 0. -1.
         -5   -1    0    0    0  501 -0.00000000000E+00 -0.00000000000E+00 -0.27068400349E+02  0.27473410736E+02  0.47000000000E+01 0. -1.
         25    2    1    2    0    0 -0.67196415323E+02  0.11726649393E+01  0.21208612755E+03  0.25519136562E+03  0.12500149684E+03 0.  0.
         25    2    1    2    0    0  0.67196415323E+02 -0.11726649393E+01  0.87422985142E+03  0.88567634460E+03  0.12501208297E+03 0.  0.
          5    1    4    4  502    0  0.94540855663E+02 -0.80791505730E+01  0.80763110002E+03  0.81319944035E+03  0.47000000000E+01 0.  1.
         -5    1    4    4    0  502 -0.27344440340E+02  0.69064856336E+01  0.66598751397E+02  0.72476904245E+02  0.47000000000E+01 0.  1.
          5    1    3    3  503    0 -0.73018242637E+02  0.52496894433E+02  0.13386227109E+03  0.16133438971E+03  0.47000000000E+01 0. -1.
         -5    1    3    3    0  503  0.58218273139E+01 -0.51324229494E+02  0.78223856462E+02  0.93856975906E+02  0.47000000000E+01 0. -1.
<mgrwt>
<rscale>  0 0.14192989E+03</rscale>
<asrwt>0</asrwt>
<pdfrwt beam="1">  1        5 0.17132183E+00 0.14193222E+03</pdfrwt>
<pdfrwt beam="2">  1       -5 0.41962869E-02 0.14193222E+03</pdfrwt>
<totfact> 0.49189001E+01</totfact>
</mgrwt>
</event>
<event>
 8    1  0.3488953E-007  0.1340810E+03  0.7546771E-02  0.1221524E+00
          5   -1    0    0  501    0  0.00000000000E+00  0.00000000000E+00  0.14927294866E+03  0.14934692231E+03  0.47000000000E+01 0.  1.
         -5   -1    0    0    0  501 -0.00000000000E+00 -0.00000000000E+00 -0.12220539740E+03  0.12229574463E+03  0.47000000000E+01 0.  1.
         25    2    1    2    0    0 -0.47839326285E+02 -0.79560200528E+01 -0.34860026960E+01  0.13412456727E+03  0.12500139173E+03 0.  0.
         25    2    1    2    0    0  0.47839326285E+02  0.79560200528E+01  0.30553553958E+02  0.13751809966E+03  0.12500323468E+03 0.  0.
          5    1    3    3  502    0  0.41417379960E+02 -0.54725695506E+01  0.11210615943E+02  0.43509956218E+02  0.47000000000E+01 0.  1.
         -5    1    3    3    0  502 -0.89256706245E+02 -0.24834505022E+01 -0.14696618639E+02  0.90614611049E+02  0.47000000000E+01 0.  1.
          5    1    4    4  503    0  0.13621707425E+02  0.17805640733E+02 -0.46871030538E+02  0.52168719160E+02  0.47000000000E+01 0. -1.
         -5    1    4    4    0  503  0.34217618860E+02 -0.98496206801E+01  0.77424584496E+02  0.85349380504E+02  0.47000000000E+01 0. -1.
<mgrwt>
<rscale>  0 0.13408055E+03</rscale>
<asrwt>0</asrwt>
<pdfrwt beam="1">  1        5 0.22977709E-01 0.13408098E+03</pdfrwt>
<pdfrwt beam="2">  1       -5 0.18813470E-01 0.13408098E+03</pdfrwt>
<totfact> 0.33386050E+02</totfact>
</mgrwt>
</event>
<event>
 8    1  0.3488953E-007  0.1564235E+03  0.7546771E-02  0.1192796E+00
         -5   -1    0    0    0  501 -0.00000000000E+00  0.00000000000E+00  0.78127184608E+03  0.78128598316E+03  0.47000000000E+01 0.  1.
          5   -1    0    0  501    0  0.00000000000E+00 -0.00000000000E+00 -0.34165574013E+02  0.34487337497E+02  0.47000000000E+01 0.  1.
         25    2    1    2    0    0 -0.62037546734E+02  0.70666782481E+02  0.49457857124E+03  0.51872563500E+03  0.12500347967E+03 0.  0.
         25    2    1    2    0    0  0.62037546734E+02 -0.70666782481E+02  0.25252770083E+03  0.29704768565E+03  0.12499854605E+03 0.  0.
          5    1    4    4  502    0  0.88643653882E+02 -0.67214436068E+02  0.24448772945E+03  0.26864812979E+03  0.47000000000E+01 0. -1.
         -5    1    4    4    0  502 -0.26606107148E+02 -0.34523464128E+01  0.80399713817E+01  0.28399555862E+02  0.47000000000E+01 0. -1.
          5    1    3    3  503    0 -0.44551511826E+01 -0.32988437362E+02  0.66659276671E+02  0.74656778245E+02  0.47000000000E+01 0.  1.
         -5    1    3    3    0  503 -0.57582395551E+02  0.10365521984E+03  0.42791929457E+03  0.44406885675E+03  0.47000000000E+01 0.  1.
<mgrwt>
<rscale>  0 0.15642255E+03</rscale>
<asrwt>0</asrwt>
<pdfrwt beam="2">  1        5 0.52820806E-02 0.15642353E+03</pdfrwt>
<pdfrwt beam="1">  1       -5 0.12022151E+00 0.15642353E+03</pdfrwt>
<totfact> 0.90045300E+01</totfact>
</mgrwt>
</event>
<event>
 8    1  0.3488953E-007  0.1752884E+03  0.7546771E-02  0.1172443E+00
          5   -1    0    0  501    0  0.00000000000E+00  0.00000000000E+00  0.44853215652E+03  0.44855678061E+03  0.47000000000E+01 0. -1.
         -5   -1    0    0    0  501 -0.00000000000E+00 -0.00000000000E+00 -0.68395587035E+02  0.68556883869E+02  0.47000000000E+01 0. -1.
         25    2    1    2    0    0 -0.91548599600E+02 -0.81974322381E+02  0.18971594501E+03  0.25829706375E+03  0.12499719090E+03 0.  0.
         25    2    1    2    0    0  0.91548599600E+02  0.81974322381E+02  0.19042062447E+03  0.25881660073E+03  0.12500033188E+03 0.  0.
          5    1    3    3  502    0  0.10176911117E+02  0.17087269617E+02  0.68695839538E+02  0.71671142537E+02  0.47000000000E+01 0.  1.
         -5    1    3    3    0  502 -0.10172551072E+03 -0.99061591998E+02  0.12102010547E+03  0.18662592121E+03  0.47000000000E+01 0.  1.
          5    1    4    4  503    0  0.11942371481E+03  0.76142474047E+02  0.13204449668E+03  0.19369444782E+03  0.47000000000E+01 0. -1.
         -5    1    4    4    0  503 -0.27875115212E+02  0.58318483340E+01  0.58376127796E+02  0.65122152909E+02  0.47000000000E+01 0. -1.
<mgrwt>
<rscale>  0 0.17528783E+03</rscale>
<asrwt>0</asrwt>
<pdfrwt beam="1">  1        5 0.69019249E-01 0.17528839E+03</pdfrwt>
<pdfrwt beam="2">  1       -5 0.10536700E-01 0.17528839E+03</pdfrwt>
<totfact> 0.10776761E+02</totfact>
</mgrwt>
</event>
<event>
 8    1  0.3488953E-007  0.1315797E+03  0.7546771E-02  0.1225131E+00
          5   -1    0    0  501    0  0.00000000000E+00  0.00000000000E+00  0.76742807131E+03  0.76744246341E+03  0.47000000000E+01 0.  1.
         -5   -1    0    0    0  501 -0.00000000000E+00 -0.00000000000E+00 -0.22334987985E+02  0.22824147044E+02  0.47000000000E+01 0.  1.
         25    2    1    2    0    0 -0.29041160064E+02  0.29059152867E+02  0.38796768034E+03  0.40967264375E+03  0.12499972282E+03 0.  0.
         25    2    1    2    0    0  0.29041160064E+02 -0.29059152867E+02  0.35712540299E+03  0.38059396670E+03  0.12500156274E+03 0.  0.
          5    1    4    4  502    0  0.60873209169E+02 -0.29491761556E+02  0.33438427664E+03  0.34118945772E+03  0.47000000000E+01 0. -1.
         -5    1    4    4    0  502 -0.31832049104E+02  0.43260868818E+00  0.22741126345E+02  0.39404508979E+02  0.47000000000E+01 0. -1.
          5    1    3    3  503    0 -0.47311476037E+02  0.63220093828E+02  0.16109511450E+03  0.17946833131E+03  0.47000000000E+01 0.  1.
         -5    1    3    3    0  503  0.18270315973E+02 -0.34160940961E+02  0.22687256584E+03  0.23020431244E+03  0.47000000000E+01 0.  1.
<mgrwt>
<rscale>  0 0.13157925E+03</rscale>
<asrwt>0</asrwt>
<pdfrwt beam="1">  1        5 0.11810459E+00 0.13157969E+03</pdfrwt>
<pdfrwt beam="2">  1       -5 0.34748868E-02 0.13157969E+03</pdfrwt>
<totfact> 0.17782851E+02</totfact>
</mgrwt>
</event>
<event>
 8    1  0.3488953E-007  0.1645930E+03  0.7546771E-02  0.1183607E+00
          5   -1    0    0  501    0  0.00000000000E+00  0.00000000000E+00  0.96414871112E+02  0.96529360153E+02  0.47000000000E+01 0. -1.
         -5   -1    0    0    0  501 -0.00000000000E+00 -0.00000000000E+00 -0.29822820512E+03  0.29826523821E+03  0.47000000000E+01 0. -1.
         25    2    1    2    0    0  0.10132916104E+03 -0.34625401656E+02 -0.14877629188E+03  0.22186761539E+03  0.12499734563E+03 0.  0.
         25    2    1    2    0    0 -0.10132916104E+03  0.34625401656E+02 -0.53037042125E+02  0.17292698298E+03  0.12499718512E+03 0.  0.
          5    1    4    4  502    0 -0.99221291947E+02  0.67154106482E+02 -0.12284504524E+02  0.12053023623E+03  0.47000000000E+01 0.  1.
         -5    1    4    4    0  502 -0.21078690948E+01 -0.32528704826E+02 -0.40752537601E+02  0.52396746756E+02  0.47000000000E+01 0.  1.
          5    1    3    3  503    0 -0.78974952061E+01  0.18102780814E+02 -0.79625181831E+02  0.82172627348E+02  0.47000000000E+01 0. -1.
         -5    1    3    3    0  503  0.10922665625E+03 -0.52728182469E+02 -0.69151110048E+02  0.13969498804E+03  0.47000000000E+01 0. -1.
<mgrwt>
<rscale>  0 0.16459296E+03</rscale>
<asrwt>0</asrwt>
<pdfrwt beam="1">  1        5 0.14844713E-01 0.16459299E+03</pdfrwt>
<pdfrwt beam="2">  1       -5 0.45892917E-01 0.16459299E+03</pdfrwt>
<totfact> 0.13922524E+02</totfact>
</mgrwt>
</event>
<event>
 8    1  0.3488953E-007  0.1424803E+03  0.7546771E-02  0.1210035E+00
          5   -1    0    0  501    0  0.00000000000E+00  0.00000000000E+00  0.26212602451E+03  0.26216815735E+03  0.47000000000E+01 0.  1.
         -5   -1    0    0    0  501 -0.00000000000E+00 -0.00000000000E+00 -0.78958308660E+02  0.79098068917E+02  0.47000000000E+01 0.  1.
         25    2    1    2    0    0  0.33235126200E+02 -0.59754024912E+02  0.67010392174E+02  0.15743709121E+03  0.12498371063E+03 0.  0.
         25    2    1    2    0    0 -0.33235126200E+02  0.59754024912E+02  0.11615732368E+03  0.18382913505E+03  0.12500203976E+03 0.  0.
          5    1    4    4  502    0 -0.29700169174E+02 -0.32979444579E+02  0.16523761588E+02  0.47590634695E+02  0.47000000000E+01 0.  1.
         -5    1    4    4    0  502 -0.35349570263E+01  0.92733469491E+02  0.99633562090E+02  0.13623850036E+03  0.47000000000E+01 0.  1.
          5    1    3    3  503    0  0.15494580382E+02  0.35597445906E+02 -0.60761943536E+00  0.39111627141E+02  0.47000000000E+01 0.  1.
         -5    1    3    3    0  503  0.17740545818E+02 -0.95351470818E+02  0.67618011609E+02  0.11832546407E+03  0.47000000000E+01 0.  1.
<mgrwt>
<rscale>  0 0.14247625E+03</rscale>
<asrwt>0</asrwt>
<pdfrwt beam="1">  1        5 0.40341073E-01 0.14248027E+03</pdfrwt>
<pdfrwt beam="2">  1       -5 0.12161424E-01 0.14248027E+03</pdfrwt>
<totfact> 0.24827162E+02</totfact>
</mgrwt>
</event>
<event>
 8    1  0.3488953E-007  0.2137651E+03  0.7546771E-02  0.1138619E+00
         -5   -1    0    0    0  501 -0.00000000000E+00  0.00000000000E+00  0.25302626684E+03  0.25306991467E+03  0.47000000000E+01 0. -1.
          5   -1    0    0  501    0  0.00000000000E+00 -0.00000000000E+00 -0.18057773457E+03  0.18063888901E+03  0.47000000000E+01 0. -1.
         25    2    1    2    0    0 -0.76169465339E+02  0.15578566312E+03  0.40564442821E+02  0.21757987132E+03  0.12499826439E+03 0.  0.
         25    2    1    2    0    0  0.76169465339E+02 -0.15578566312E+03  0.31884089448E+02  0.21612893237E+03  0.12499663981E+03 0.  0.
          5    1    4    4  502    0  0.94686769354E+02 -0.61491070795E+02 -0.49523537864E+01  0.11310770038E+03  0.47000000000E+01 0.  1.
         -5    1    4    4    0  502 -0.18517304014E+02 -0.94294592321E+02  0.36836443234E+02  0.10302123198E+03  0.47000000000E+01 0.  1.
          5    1    3    3  503    0  0.33288938672E+02  0.56364688474E+02  0.16717405225E+02  0.67725129621E+02  0.47000000000E+01 0. -1.
         -5    1    3    3    0  503 -0.10945840401E+03  0.99420974642E+02  0.23847037595E+02  0.14985474170E+03  0.47000000000E+01 0. -1.
<mgrwt>
<rscale>  0 0.21376488E+03</rscale>
<asrwt>0</asrwt>
<pdfrwt beam="2">  1        5 0.27789252E-01 0.21376512E+03</pdfrwt>
<pdfrwt beam="1">  1       -5 0.38935180E-01 0.21376512E+03</pdfrwt>
<totfact> 0.64787911E+01</totfact>
</mgrwt>
</event>
<event>
 8    1  0.3488953E-007  0.1540116E+03  0.7546771E-02  0.1195630E+00
          5   -1    0    0  501    0  0.00000000000E+00  0.00000000000E+00  0.68780859841E+03  0.68782465647E+03  0.47000000000E+01 0.  1.
         -5   -1    0    0    0  501 -0.00000000000E+00 -0.00000000000E+00 -0.34530535323E+02  0.34848929247E+02  0.47000000000E+01 0.  1.
         25    2    1    2    0    0  0.89322627849E+02  0.10733658941E+02  0.35550094075E+03  0.38742804427E+03  0.12500330930E+03 0.  0.
         25    2    1    2    0    0 -0.89322627849E+02 -0.10733658941E+02  0.29777712234E+03  0.33524554145E+03  0.12499846075E+03 0.  0.
          5    1    4    4  502    0 -0.61159421062E+02 -0.64228074677E+02  0.21511220676E+03  0.23272531418E+03  0.47000000000E+01 0. -1.
         -5    1    4    4    0  502 -0.28163206787E+02  0.53494415736E+02  0.82664915578E+02  0.10252022727E+03  0.47000000000E+01 0. -1.
          5    1    3    3  503    0  0.90999172955E+02 -0.36068973713E+02  0.17172556629E+03  0.19772096616E+03  0.47000000000E+01 0.  1.
         -5    1    3    3    0  503 -0.16765451054E+01  0.46802632654E+02  0.18377537446E+03  0.18970707811E+03  0.47000000000E+01 0.  1.
<mgrwt>
<rscale>  0 0.15401061E+03</rscale>
<asrwt>0</asrwt>
<pdfrwt beam="1">  1        5 0.10584243E+00 0.15401159E+03</pdfrwt>
<pdfrwt beam="2">  1       -5 0.53381175E-02 0.15401159E+03</pdfrwt>
<totfact> 0.12121259E+02</totfact>
</mgrwt>
</event>
<event>
 8    1  0.3488953E-007  0.1354236E+03  0.7546771E-02  0.1219643E+00
         -5   -1    0    0    0  501 -0.00000000000E+00  0.00000000000E+00  0.42619736333E+03  0.42622327777E+03  0.47000000000E+01 0.  1.
          5   -1    0    0  501    0  0.00000000000E+00 -0.00000000000E+00 -0.52082117729E+02  0.52293756675E+02  0.47000000000E+01 0.  1.
         25    2    1    2    0    0 -0.32111863178E+02  0.41021143603E+02  0.28753591955E+03  0.31783084298E+03  0.12500253493E+03 0.  0.
         25    2    1    2    0    0  0.32111863178E+02 -0.41021143603E+02  0.86579326053E+02  0.16068619146E+03  0.12494065170E+03 0.  0.
          5    1    3    3  502    0 -0.78773836931E+01  0.76765179677E-01 -0.11661749375E+02  0.14837299796E+02  0.47000000000E+01 0. -1.
         -5    1    3    3    0  502 -0.24234479485E+02  0.40944378423E+02  0.29919766892E+03  0.30299354318E+03  0.47000000000E+01 0. -1.
          5    1    4    4  503    0  0.18443124623E+02 -0.81746829776E+02  0.81812376143E+02  0.11720941905E+03  0.47000000000E+01 0.  1.
         -5    1    4    4    0  503  0.13668738555E+02  0.40725686173E+02  0.47669499101E+01  0.43476772412E+02  0.47000000000E+01 0.  1.
<mgrwt>
<rscale>  0 0.13540927E+03</rscale>
<asrwt>0</asrwt>
<pdfrwt beam="2">  1        5 0.80309072E-02 0.13542356E+03</pdfrwt>
<pdfrwt beam="1">  1       -5 0.65587095E-01 0.13542356E+03</pdfrwt>
<totfact> 0.17857070E+02</totfact>
</mgrwt>
</event>
<event>
 8    1  0.3488953E-007  0.1357012E+03  0.7546771E-02  0.1219234E+00
         -5   -1    0    0    0  501 -0.00000000000E+00  0.00000000000E+00  0.19921789053E+03  0.19927332463E+03  0.47000000000E+01 0. -1.
          5   -1    0    0  501    0  0.00000000000E+00 -0.00000000000E+00 -0.11624008187E+03  0.11633506192E+03  0.47000000000E+01 0. -1.
         25    2    1    2    0    0 -0.43701933082E+02 -0.29657036601E+02  0.11304592315E+03  0.17661878898E+03  0.12500166840E+03 0.  0.
         25    2    1    2    0    0  0.43701933082E+02  0.29657036601E+02 -0.30068114486E+02  0.13898959758E+03  0.12499847179E+03 0.  0.
          5    1    4    4  502    0  0.48583581035E+02  0.75196025424E+02 -0.20627202844E+02  0.91991184811E+02  0.47000000000E+01 0. -1.
         -5    1    4    4    0  502 -0.48816479528E+01 -0.45538988823E+02 -0.94409116423E+01  0.46998412765E+02  0.47000000000E+01 0. -1.
          5    1    3    3  503    0 -0.65630916538E+02 -0.56616619242E+01  0.79604213485E+01  0.66520146793E+02  0.47000000000E+01 0. -1.
         -5    1    3    3    0  503  0.21928983456E+02 -0.23995374677E+02  0.10508550180E+03  0.11009864218E+03  0.47000000000E+01 0. -1.
<mgrwt>
<rscale>  0 0.13570046E+03</rscale>
<asrwt>0</asrwt>
<pdfrwt beam="2">  1        5 0.17894660E-01 0.13570120E+03</pdfrwt>
<pdfrwt beam="1">  1       -5 0.30660476E-01 0.13570120E+03</pdfrwt>
<totfact> 0.21070818E+02</totfact>
</mgrwt>
</event>
<event>
 8    1  0.3488953E-007  0.1331986E+03  0.7546771E-02  0.1222799E+00
         -5   -1    0    0    0  501 -0.00000000000E+00  0.00000000000E+00  0.11762503551E+04  0.11762597451E+04  0.47000000000E+01 0.  1.
          5   -1    0    0  501    0  0.00000000000E+00 -0.00000000000E+00 -0.17767781167E+02  0.18378902241E+02  0.47000000000E+01 0.  1.
         25    2    1    2    0    0  0.36455274691E+02 -0.27875993263E+02  0.82262082671E+03  0.83332855849E+03  0.12500161518E+03 0.  0.
         25    2    1    2    0    0 -0.36455274691E+02  0.27875993263E+02  0.33586174726E+03  0.36131008887E+03  0.12504322848E+03 0.  0.
          5    1    4    4  502    0 -0.73353053538E+02  0.24330987720E+02  0.12406357570E+03  0.14624133562E+03  0.47000000000E+01 0.  1.
         -5    1    4    4    0  502  0.36897778846E+02  0.35450055432E+01  0.21179817156E+03  0.21506875325E+03  0.47000000000E+01 0.  1.
          5    1    3    3  503    0  0.75945377524E+02 -0.13702094833E+02  0.68573874335E+03  0.69008344561E+03  0.47000000000E+01 0.  1.
         -5    1    3    3    0  503 -0.39490102833E+02 -0.14173898430E+02  0.13688208336E+03  0.14324511288E+03  0.47000000000E+01 0.  1.
<mgrwt>
<rscale>  0 0.13318883E+03</rscale>
<asrwt>0</asrwt>
<pdfrwt beam="2">  1        5 0.27812374E-02 0.13319860E+03</pdfrwt>
<pdfrwt beam="1">  1       -5 0.18100926E+00 0.13319860E+03</pdfrwt>
<totfact> 0.80270453E+01</totfact>
</mgrwt>
</event>
<event>
 8    1  0.3488953E-007  0.1255937E+03  0.7546771E-02  0.1234157E+00
          5   -1    0    0  501    0  0.00000000000E+00  0.00000000000E+00  0.39211948789E+03  0.39214765431E+03  0.47000000000E+01 0.  1.
         -5   -1    0    0    0  501 -0.00000000000E+00 -0.00000000000E+00 -0.55867239216E+02  0.56064591479E+02  0.47000000000E+01 0.  1.
         25    2    1    2    0    0 -0.72026845693E+01  0.97400323676E+01  0.49143284879E+02  0.13483493655E+03  0.12497460050E+03 0.  0.
         25    2    1    2    0    0  0.72026845693E+01 -0.97400323676E+01  0.28710896380E+03  0.31337730924E+03  0.12500813558E+03 0.  0.
          5    1    3    3  502    0  0.11135125603E+02  0.19206549584E+01 -0.40796463876E+02  0.42592504064E+02  0.47000000000E+01 0.  1.
         -5    1    3    3    0  502 -0.18337810172E+02  0.78193774092E+01  0.89939748755E+02  0.92242432486E+02  0.47000000000E+01 0.  1.
          5    1    4    4  503    0 -0.79378954301E+01 -0.38473814418E+02  0.20133562202E+02  0.44392509578E+02  0.47000000000E+01 0.  1.
         -5    1    4    4    0  503  0.15140579999E+02  0.28733782050E+02  0.26697540160E+03  0.26898479966E+03  0.47000000000E+01 0.  1.
<mgrwt>
<rscale>  0 0.12558537E+03</rscale>
<asrwt>0</asrwt>
<pdfrwt beam="1">  1        5 0.60343420E-01 0.12559371E+03</pdfrwt>
<pdfrwt beam="2">  1       -5 0.86123078E-02 0.12559371E+03</pdfrwt>
<totfact> 0.18538745E+02</totfact>
</mgrwt>
</event>
<event>
 8    1  0.3488953E-007  0.1280091E+03  0.7546771E-02  0.1230442E+00
          5   -1    0    0  501    0  0.00000000000E+00  0.00000000000E+00  0.70708716895E+03  0.70710278920E+03  0.47000000000E+01 0. -1.
         -5   -1    0    0    0  501 -0.00000000000E+00 -0.00000000000E+00 -0.31353755157E+02  0.31704068547E+02  0.47000000000E+01 0. -1.
         25    2    1    2    0    0 -0.22605111114E+02  0.15806622377E+02  0.14756524985E+03  0.19534762696E+03  0.12499740813E+03 0.  0.
         25    2    1    2    0    0  0.22605111114E+02 -0.15806622377E+02  0.52816816394E+03  0.54345923078E+03  0.12500194300E+03 0.  0.
          5    1    3    3  502    0 -0.22773708292E+02 -0.44538760612E+02  0.11744100430E+03  0.12773731826E+03  0.47000000000E+01 0.  1.
         -5    1    3    3    0  502  0.16859717817E+00  0.60345382988E+02  0.30124245546E+02  0.67610308702E+02  0.47000000000E+01 0.  1.
          5    1    4    4  503    0  0.46733691154E+02 -0.17863754605E+02  0.51085812445E+03  0.51332374281E+03  0.47000000000E+01 0. -1.
         -5    1    4    4    0  503 -0.24128580040E+02  0.20571322282E+01  0.17310039496E+02  0.30135487969E+02  0.47000000000E+01 0. -1.
<mgrwt>
<rscale>  0 0.12800798E+03</rscale>
<asrwt>0</asrwt>
<pdfrwt beam="1">  1        5 0.10881077E+00 0.12800909E+03</pdfrwt>
<pdfrwt beam="2">  1       -5 0.48518041E-02 0.12800909E+03</pdfrwt>
<totfact> 0.12502085E+02</totfact>
</mgrwt>
</event>
<event>
 8    1  0.3488953E-007  0.1306511E+03  0.7546771E-02  0.1226496E+00
         -5   -1    0    0    0  501 -0.00000000000E+00  0.00000000000E+00  0.52232146002E+03  0.52234260557E+03  0.47000000000E+01 0. -1.
          5   -1    0    0  501    0  0.00000000000E+00 -0.00000000000E+00 -0.48987841845E+02  0.49212789482E+02  0.47000000000E+01 0. -1.
         25    2    1    2    0    0  0.24852593227E+01  0.37924475694E+02  0.40201723335E+03  0.42271451692E+03  0.12500105815E+03 0.  0.
         25    2    1    2    0    0 -0.24852593227E+01 -0.37924475694E+02  0.71316384828E+02  0.14884087813E+03  0.12499255133E+03 0.  0.
          5    1    4    4  502    0 -0.46816762809E+02 -0.96371170565E+01  0.81946441757E+02  0.94984170375E+02  0.47000000000E+01 0. -1.
         -5    1    4    4    0  502  0.44331503487E+02 -0.28287358638E+02 -0.10630056929E+02  0.53856707757E+02  0.47000000000E+01 0. -1.
          5    1    3    3  503    0  0.26958551763E+02  0.41882339934E+02  0.53360588115E+02  0.73145992887E+02  0.47000000000E+01 0.  1.
         -5    1    3    3    0  503 -0.24473292441E+02 -0.39578642399E+01  0.34865664523E+03  0.34956852404E+03  0.47000000000E+01 0.  1.
<mgrwt>
<rscale>  0 0.13064905E+03</rscale>
<asrwt>0</asrwt>
<pdfrwt beam="2">  1        5 0.75555212E-02 0.13065109E+03</pdfrwt>
<pdfrwt beam="1">  1       -5 0.80376079E-01 0.13065109E+03</pdfrwt>
<totfact> 0.12349150E+02</totfact>
</mgrwt>
</event>
<event>
 8    1  0.3488953E-007  0.1254880E+03  0.7546771E-02  0.1234312E+00
          5   -1    0    0  501    0  0.00000000000E+00  0.00000000000E+00  0.10986752939E+03  0.10996801360E+03  0.47000000000E+01 0.  1.
         -5   -1    0    0    0  501 -0.00000000000E+00 -0.00000000000E+00 -0.17114986135E+03  0.17121438327E+03  0.47000000000E+01 0.  1.
         25    2    1    2    0    0 -0.98624413369E+01 -0.49096812438E+01 -0.87512365849E+02  0.15298229972E+03  0.12499518843E+03 0.  0.
         25    2    1    2    0    0  0.98624413369E+01  0.49096812438E+01  0.26230033899E+02  0.12820009716E+03  0.12500351000E+03 0.  0.
          5    1    3    3  502    0 -0.24480336230E+02 -0.43294372036E+02 -0.98291009855E+02  0.11025834268E+03  0.47000000000E+01 0. -1.
         -5    1    3    3    0  502  0.14617894893E+02  0.38384690792E+02  0.10778644006E+02  0.42723957037E+02  0.47000000000E+01 0. -1.
          5    1    4    4  503    0  0.55979776205E+02  0.36694576080E+02  0.23765540828E+01  0.67141382671E+02  0.47000000000E+01 0. -1.
         -5    1    4    4    0  503 -0.46117334869E+02 -0.31784894836E+02  0.23853479816E+02  0.61058714484E+02  0.47000000000E+01 0. -1.
<mgrwt>
<rscale>  0 0.12548598E+03</rscale>
<asrwt>0</asrwt>
<pdfrwt beam="1">  1        5 0.16915390E-01 0.12548805E+03</pdfrwt>
<pdfrwt beam="2">  1       -5 0.26343441E-01 0.12548805E+03</pdfrwt>
<totfact> 0.30531301E+02</totfact>
</mgrwt>
</event>
<event>
 8    1  0.3488953E-007  0.1321389E+03  0.7546771E-02  0.1224321E+00
          5   -1    0    0  501    0  0.00000000000E+00  0.00000000000E+00  0.56675093635E+03  0.56677042429E+03  0.47000000000E+01 0.  1.
         -5   -1    0    0    0  501 -0.00000000000E+00 -0.00000000000E+00 -0.33056014936E+02  0.33388472913E+02  0.47000000000E+01 0.  1.
         25    2    1    2    0    0  0.35786459561E+02  0.23507378542E+02  0.18561153516E+03  0.22784275761E+03  0.12500965035E+03 0.  0.
         25    2    1    2    0    0 -0.35786459561E+02 -0.23507378542E+02  0.34808338625E+03  0.37231613959E+03  0.12499598585E+03 0.  0.
          5    1    3    3  502    0  0.32931264503E+02 -0.22195045470E+02  0.36579394937E+01  0.40156677483E+02  0.47000000000E+01 0. -1.
         -5    1    3    3    0  502  0.28551950577E+01  0.45702424012E+02  0.18195359567E+03  0.18768608013E+03  0.47000000000E+01 0. -1.
          5    1    4    4  503    0  0.46453384415E+02 -0.14728964385E+02  0.11687356451E+03  0.12671376956E+03  0.47000000000E+01 0.  1.
         -5    1    4    4    0  503 -0.82239843976E+02 -0.87784141570E+01  0.23120982174E+03  0.24560237003E+03  0.47000000000E+01 0.  1.
<mgrwt>
<rscale>  0 0.13213564E+03</rscale>
<asrwt>0</asrwt>
<pdfrwt beam="1">  1        5 0.87219526E-01 0.13213887E+03</pdfrwt>
<pdfrwt beam="2">  1       -5 0.51126135E-02 0.13213887E+03</pdfrwt>
<totfact> 0.19773393E+02</totfact>
</mgrwt>
</event>
<event>
 8    1  0.3488953E-007  0.2288124E+03  0.7546771E-02  0.1127482E+00
          5   -1    0    0  501    0  0.00000000000E+00  0.00000000000E+00  0.51808532090E+03  0.51810663934E+03  0.47000000000E+01 0. -1.
         -5   -1    0    0    0  501 -0.00000000000E+00 -0.00000000000E+00 -0.15996168245E+03  0.16003071534E+03  0.47000000000E+01 0. -1.
         25    2    1    2    0    0  0.65164434776E+02  0.18020648357E+03 -0.26783467838E+02  0.23035549523E+03  0.12500207900E+03 0.  0.
         25    2    1    2    0    0 -0.65164434776E+02 -0.18020648357E+03  0.38490710628E+03  0.44778185946E+03  0.12503732607E+03 0.  0.
          5    1    3    3  502    0 -0.10265858576E+02 -0.85635265541E+01 -0.22961883298E+02  0.26982585568E+02  0.47000000000E+01 0.  1.
         -5    1    3    3    0  502  0.75430293353E+02  0.18877001012E+03 -0.38215845402E+01  0.20337290966E+03  0.47000000000E+01 0.  1.
          5    1    4    4  503    0  0.35672366954E+02 -0.66625539461E+02  0.10764473146E+03  0.13160911247E+03  0.47000000000E+01 0. -1.
         -5    1    4    4    0  503 -0.10083680173E+03 -0.11358094411E+03  0.27726237482E+03  0.31617274699E+03  0.47000000000E+01 0. -1.
<mgrwt>
<rscale>  0 0.22880758E+03</rscale>
<asrwt>0</asrwt>
<pdfrwt beam="1">  1        5 0.79712386E-01 0.22881240E+03</pdfrwt>
<pdfrwt beam="2">  1       -5 0.24616439E-01 0.22881240E+03</pdfrwt>
<totfact> 0.17436317E+01</totfact>
</mgrwt>
</event>
<event>
 8    1  0.3488953E-007  0.1386264E+03  0.7546771E-02  0.1215195E+00
          5   -1    0    0  501    0  0.00000000000E+00  0.00000000000E+00  0.83801163976E+02  0.83932860571E+02  0.47000000000E+01 0. -1.
         -5   -1    0    0    0  501 -0.00000000000E+00 -0.00000000000E+00 -0.23127092141E+03  0.23131867432E+03  0.47000000000E+01 0. -1.
         25    2    1    2    0    0 -0.58170819669E+02  0.14376462203E+02 -0.89497511326E+02  0.16500634243E+03  0.12500704614E+03 0.  0.
         25    2    1    2    0    0  0.58170819669E+02 -0.14376462203E+02 -0.57972246108E+02  0.15024519246E+03  0.12498923798E+03 0.  0.
          5    1    4    4  502    0  0.44009842889E+02 -0.34959401715E+02  0.26292805261E+02  0.62228832930E+02  0.47000000000E+01 0.  1.
         -5    1    4    4    0  502  0.14160976780E+02  0.20582939512E+02 -0.84265051369E+02  0.88016359527E+02  0.47000000000E+01 0.  1.
          5    1    3    3  503    0 -0.84701105099E+02 -0.25882324874E+02 -0.69151609557E+02  0.11246424788E+03  0.47000000000E+01 0.  1.
         -5    1    3    3    0  503  0.26530285430E+02  0.40258787076E+02 -0.20345901769E+02  0.52542094559E+02  0.47000000000E+01 0.  1.
<mgrwt>
<rscale>  0 0.13862242E+03</rscale>
<asrwt>0</asrwt>
<pdfrwt beam="1">  1        5 0.12906291E-01 0.13862644E+03</pdfrwt>
<pdfrwt beam="2">  1       -5 0.35593945E-01 0.13862644E+03</pdfrwt>
<totfact> 0.28527840E+02</totfact>
</mgrwt>
</event>
<event>
 8    1  0.3488953E-007  0.1370820E+03  0.7546771E-02  0.1217311E+00
          5   -1    0    0  501    0  0.00000000000E+00  0.00000000000E+00  0.20691255749E+03  0.20696593065E+03  0.47000000000E+01 0. -1.
         -5   -1    0    0    0  501 -0.00000000000E+00 -0.00000000000E+00 -0.92629493817E+02  0.92748655650E+02  0.47000000000E+01 0. -1.
         25    2    1    2    0    0  0.56356965066E+01 -0.55988062082E+02  0.35486030252E+02  0.14159932050E+03  0.12499874020E+03 0.  0.
         25    2    1    2    0    0 -0.56356965066E+01  0.55988062082E+02  0.78797033425E+02  0.15811526580E+03  0.12500016252E+03 0.  0.
          5    1    3    3  502    0  0.12056337253E+02 -0.31079956261E+02 -0.45440619504E+02  0.56553150664E+02  0.47000000000E+01 0. -1.
         -5    1    3    3    0  502 -0.64206407467E+01 -0.24908105821E+02  0.80926649756E+02  0.85046169837E+02  0.47000000000E+01 0. -1.
          5    1    4    4  503    0 -0.18820450615E+02 -0.19378567931E+02  0.76675239667E+02  0.81430465026E+02  0.47000000000E+01 0. -1.
         -5    1    4    4    0  503  0.13184754108E+02  0.75366630013E+02  0.21217937582E+01  0.76684800770E+02  0.47000000000E+01 0. -1.
<mgrwt>
<rscale>  0 0.13708164E+03</rscale>
<asrwt>0</asrwt>
<pdfrwt beam="1">  1        5 0.31845973E-01 0.13708196E+03</pdfrwt>
<pdfrwt beam="2">  1       -5 0.14263963E-01 0.13708196E+03</pdfrwt>
<totfact> 0.29652738E+02</totfact>
</mgrwt>
</event>
<event>
 8    1  0.3488953E-007  0.1574960E+03  0.7546771E-02  0.1191555E+00
          5   -1    0    0  501    0  0.00000000000E+00  0.00000000000E+00  0.44343033440E+02  0.44591418622E+02  0.47000000000E+01 0.  1.
         -5   -1    0    0    0  501 -0.00000000000E+00 -0.00000000000E+00 -0.57652051691E+03  0.57653967463E+03  0.47000000000E+01 0.  1.
         25    2    1    2    0    0 -0.68430643736E+02  0.67049094733E+02 -0.32241506677E+03  0.35882349666E+03  0.12499796946E+03 0.  0.
         25    2    1    2    0    0  0.68430643736E+02 -0.67049094733E+02 -0.20976241670E+03  0.26230759659E+03  0.12500667847E+03 0.  0.
          5    1    4    4  502    0  0.57050768764E+01 -0.89101056514E+02 -0.10242169050E+03  0.13595528257E+03  0.47000000000E+01 0. -1.
         -5    1    4    4    0  502  0.62725566859E+02  0.22051961781E+02 -0.10734072620E+03  0.12635231402E+03  0.47000000000E+01 0. -1.
          5    1    3    3  503    0  0.79821873345E+01  0.10653936901E+02  0.71431200807E+01  0.15822005266E+02  0.47000000000E+01 0. -1.
         -5    1    3    3    0  503 -0.76412831070E+02  0.56395157832E+02 -0.32955818685E+03  0.34300149139E+03  0.47000000000E+01 0. -1.
<mgrwt>
<rscale>  0 0.15749432E+03</rscale>
<asrwt>0</asrwt>
<pdfrwt beam="1">  1        5 0.68425858E-02 0.15749604E+03</pdfrwt>
<pdfrwt beam="2">  1       -5 0.88716039E-01 0.15749604E+03</pdfrwt>
<totfact> 0.12319897E+02</totfact>
</mgrwt>
</event>
<event>
 8    1  0.3488953E-007  0.1439998E+03  0.7546771E-02  0.1208048E+00
          5   -1    0    0  501    0  0.00000000000E+00  0.00000000000E+00  0.16432326682E+03  0.16439046815E+03  0.47000000000E+01 0.  1.
         -5   -1    0    0    0  501 -0.00000000000E+00 -0.00000000000E+00 -0.12608172895E+03  0.12616930045E+03  0.47000000000E+01 0.  1.
         25    2    1    2    0    0 -0.69861779011E+02 -0.15219260931E+02  0.16757188876E+02  0.14497158104E+03  0.12499464733E+03 0.  0.
         25    2    1    2    0    0  0.69861779011E+02  0.15219260931E+02  0.21484348992E+02  0.14558818756E+03  0.12498819559E+03 0.  0.
          5    1    3    3  502    0 -0.76924824402E+01 -0.32037373992E+02 -0.44764816274E+02  0.55781236939E+02  0.47000000000E+01 0.  1.
         -5    1    3    3    0  502 -0.62169296571E+02  0.16818113061E+02  0.61522005150E+02  0.89190344100E+02  0.47000000000E+01 0.  1.
          5    1    4    4  503    0  0.76419863265E+02  0.35561372595E+02 -0.30043075252E+02  0.89606267040E+02  0.47000000000E+01 0.  1.
         -5    1    4    4    0  503 -0.65580842545E+01 -0.20342111664E+02  0.51527424244E+02  0.55981920521E+02  0.47000000000E+01 0.  1.
<mgrwt>
<rscale>  0 0.14399845E+03</rscale>
<asrwt>0</asrwt>
<pdfrwt beam="1">  1        5 0.25292408E-01 0.14399985E+03</pdfrwt>
<pdfrwt beam="2">  1       -5 0.19409095E-01 0.14399985E+03</pdfrwt>
<totfact> 0.26884116E+02</totfact>
</mgrwt>
</event>
<event>
 8    1  0.3488953E-007  0.1678722E+03  0.7546771E-02  0.1180085E+00
         -5   -1    0    0    0  501 -0.00000000000E+00  0.00000000000E+00  0.13004185281E+03  0.13012675929E+03  0.47000000000E+01 0.  1.
          5   -1    0    0  501    0  0.00000000000E+00 -0.00000000000E+00 -0.22647137410E+03  0.22652013882E+03  0.47000000000E+01 0.  1.
         25    2    1    2    0    0 -0.53311505329E+01 -0.11192681984E+03 -0.10855033943E+02  0.16822165090E+03  0.12499863161E+03 0.  0.
         25    2    1    2    0    0  0.53311505329E+01  0.11192681984E+03 -0.85574487352E+02  0.18842524720E+03  0.12500018692E+03 0.  0.
          5    1    3    3  502    0  0.29878811714E+02 -0.17816930854E+02 -0.49311715825E+02  0.60530337287E+02  0.47000000000E+01 0. -1.
         -5    1    3    3    0  502 -0.35209962246E+02 -0.94109888989E+02  0.38456681882E+02  0.10769131362E+03  0.47000000000E+01 0. -1.
          5    1    4    4  503    0  0.34199877225E+02  0.50356153761E+02 -0.10147944194E+03  0.11842947673E+03  0.47000000000E+01 0.  1.
         -5    1    4    4    0  503 -0.28868726692E+02  0.61570666081E+02  0.15904954585E+02  0.69995770464E+02  0.47000000000E+01 0.  1.
<mgrwt>
<rscale>  0 0.16787193E+03</rscale>
<asrwt>0</asrwt>
<pdfrwt beam="2">  1        5 0.34852032E-01 0.16787222E+03</pdfrwt>
<pdfrwt beam="1">  1       -5 0.20016721E-01 0.16787222E+03</pdfrwt>
<totfact> 0.14204201E+02</totfact>
</mgrwt>
</event>
<event>
 8    1  0.3488953E-007  0.1567423E+03  0.7546771E-02  0.1192426E+00
          5   -1    0    0  501    0  0.00000000000E+00  0.00000000000E+00  0.37175726045E+03  0.37178696951E+03  0.47000000000E+01 0. -1.
         -5   -1    0    0    0  501 -0.00000000000E+00 -0.00000000000E+00 -0.69218271930E+02  0.69377656122E+02  0.47000000000E+01 0. -1.
         25    2    1    2    0    0  0.42100926729E+02  0.84656133632E+02  0.10353823791E+03  0.18785181877E+03  0.12501595943E+03 0.  0.
         25    2    1    2    0    0 -0.42100926729E+02 -0.84656133632E+02  0.19900075061E+03  0.25331280687E+03  0.12500772130E+03 0.  0.
          5    1    4    4  502    0  0.67249702219E+01  0.14566515376E+02  0.11005605133E+03  0.11131861044E+03  0.47000000000E+01 0.  1.
         -5    1    4    4    0  502 -0.48825896951E+02 -0.99222649009E+02  0.88944699281E+02  0.14199419643E+03  0.47000000000E+01 0.  1.
          5    1    3    3  503    0 -0.83434948309E+01 -0.15417789620E+02 -0.15807663805E+02  0.24068535014E+02  0.47000000000E+01 0. -1.
         -5    1    3    3    0  503  0.50444421560E+02  0.10007392325E+03  0.11934590171E+03  0.16378328375E+03  0.47000000000E+01 0. -1.
<mgrwt>
<rscale>  0 0.15674063E+03</rscale>
<asrwt>0</asrwt>
<pdfrwt beam="1">  1        5 0.57207969E-01 0.15674227E+03</pdfrwt>
<pdfrwt beam="2">  1       -5 0.10663511E-01 0.15674227E+03</pdfrwt>
<totfact> 0.15464077E+02</totfact>
</mgrwt>
</event>
<event>
 8    1  0.3488953E-007  0.1303433E+03  0.7546771E-02  0.1226949E+00
         -5   -1    0    0    0  501 -0.00000000000E+00  0.00000000000E+00  0.32945347482E+03  0.32948699834E+03  0.47000000000E+01 0. -1.
          5   -1    0    0  501    0  0.00000000000E+00 -0.00000000000E+00 -0.56890028637E+02  0.57083844985E+02  0.47000000000E+01 0. -1.
         25    2    1    2    0    0  0.54407181303E+01  0.36564424586E+02  0.19607266619E+03  0.23544105842E+03  0.12498577121E+03 0.  0.
         25    2    1    2    0    0 -0.54407181303E+01 -0.36564424586E+02  0.76490779995E+02  0.15112978490E+03  0.12499125529E+03 0.  0.
          5    1    4    4  502    0 -0.57549027742E+02  0.11712726361E+02  0.30121498713E+02  0.66170032776E+02  0.47000000000E+01 0.  1.
         -5    1    4    4    0  502  0.52108309612E+02 -0.48277150947E+02  0.46369281282E+02  0.84959752122E+02  0.47000000000E+01 0.  1.
          5    1    3    3  503    0 -0.14467031619E+02 -0.28739333853E+02  0.14869450024E+03  0.15220837268E+03  0.47000000000E+01 0. -1.
         -5    1    3    3    0  503  0.19907749749E+02  0.65303758439E+02  0.47378165956E+02  0.83232685741E+02  0.47000000000E+01 0. -1.
<mgrwt>
<rscale>  0 0.13034197E+03</rscale>
<asrwt>0</asrwt>
<pdfrwt beam="2">  1        5 0.87697999E-02 0.13034329E+03</pdfrwt>
<pdfrwt beam="1">  1       -5 0.50702637E-01 0.13034329E+03</pdfrwt>
<totfact> 0.26492308E+02</totfact>
</mgrwt>
</event>
<event>
 8    1  0.3488953E-007  0.1351635E+03  0.7546771E-02  0.1219989E+00
          5   -1    0    0  501    0  0.00000000000E+00  0.00000000000E+00  0.63064900114E+03  0.63066651460E+03  0.47000000000E+01 0. -1.
         -5   -1    0    0    0  501 -0.00000000000E+00 -0.00000000000E+00 -0.29711582939E+02  0.30081026591E+02  0.47000000000E+01 0. -1.
         25    2    1    2    0    0 -0.98941813769E+01  0.50459935638E+02  0.24173358908E+03  0.27695518748E+03  0.12499979140E+03 0.  0.
         25    2    1    2    0    0  0.98941813769E+01 -0.50459935638E+02  0.35920382912E+03  0.38379235371E+03  0.12500031995E+03 0.  0.
          5    1    4    4  502    0  0.30687384180E+02  0.30885841363E+02  0.69637512951E+02  0.82262530684E+02  0.47000000000E+01 0. -1.
         -5    1    4    4    0  502 -0.20793202803E+02 -0.81345777001E+02  0.28956631617E+03  0.30152982303E+03  0.47000000000E+01 0. -1.
          5    1    3    3  503    0 -0.82653125658E+01  0.27489549462E+02  0.25026661247E+03  0.25195130092E+03  0.47000000000E+01 0. -1.
         -5    1    3    3    0  503 -0.16288688111E+01  0.22970386175E+02 -0.85330233849E+01  0.25003886553E+02  0.47000000000E+01 0. -1.
<mgrwt>
<rscale>  0 0.13516341E+03</rscale>
<asrwt>0</asrwt>
<pdfrwt beam="1">  1        5 0.97052681E-01 0.13516353E+03</pdfrwt>
<pdfrwt beam="2">  1       -5 0.46007791E-02 0.13516353E+03</pdfrwt>
<totfact> 0.18397842E+02</totfact>
</mgrwt>
</event>
<event>
 8    1  0.3488953E-007  0.1251309E+03  0.7546771E-02  0.1234876E+00
          5   -1    0    0  501    0  0.00000000000E+00  0.00000000000E+00  0.18081510273E+02  0.18682371738E+02  0.47000000000E+01 0.  1.
         -5   -1    0    0    0  501 -0.00000000000E+00 -0.00000000000E+00 -0.10995246149E+04  0.10995346601E+04  0.47000000000E+01 0.  1.
         25    2    1    2    0    0  0.32464902380E+01 -0.38204611202E+01 -0.80651639654E+03  0.81616569994E+03  0.12503046125E+03 0.  0.
         25    2    1    2    0    0 -0.32464902380E+01  0.38204611202E+01 -0.27492670808E+03  0.30205133190E+03  0.12500070666E+03 0.  0.
          5    1    3    3  502    0 -0.58041291577E+02 -0.17121304890E+02 -0.33236563586E+03  0.33786230406E+03  0.47000000000E+01 0.  1.
         -5    1    3    3    0  502  0.61287781815E+02  0.13300843770E+02 -0.47415076069E+03  0.47830339587E+03  0.47000000000E+01 0.  1.
          5    1    4    4  503    0  0.88265013614E+01  0.54799404894E+02 -0.64849965926E+02  0.85489706887E+02  0.47000000000E+01 0. -1.
         -5    1    4    4    0  503 -0.12072991599E+02 -0.50978943774E+02 -0.21007674215E+03  0.21656162501E+03  0.47000000000E+01 0. -1.
<mgrwt>
<rscale>  0 0.12512351E+03</rscale>
<asrwt>0</asrwt>
<pdfrwt beam="1">  1        5 0.28287645E-02 0.12513094E+03</pdfrwt>
<pdfrwt beam="2">  1       -5 0.16920457E+00 0.12513094E+03</pdfrwt>
<totfact> 0.93122350E+01</totfact>
</mgrwt>
</event>
<event>
 8    1  0.3488953E-007  0.1331245E+03  0.7546771E-02  0.1222897E+00
          5   -1    0    0  501    0  0.00000000000E+00  0.00000000000E+00  0.20989467887E+02  0.21509248294E+02  0.47000000000E+01 0.  1.
         -5   -1    0    0    0  501 -0.00000000000E+00 -0.00000000000E+00 -0.10812744884E+04  0.10812847031E+04  0.47000000000E+01 0.  1.
         25    2    1    2    0    0  0.19251066333E+02  0.41540597828E+02 -0.79406341743E+03  0.80514304085E+03  0.12498952158E+03 0.  0.
         25    2    1    2    0    0 -0.19251066333E+02 -0.41540597828E+02 -0.26622160306E+03  0.29765091058E+03  0.12500359117E+03 0.  0.
          5    1    3    3  502    0  0.42423672309E+00  0.84514635324E+02 -0.45364288812E+03  0.46147249485E+03  0.47000000000E+01 0.  1.
         -5    1    3    3    0  502  0.18826829610E+02 -0.42974037495E+02 -0.34042052931E+03  0.34367054600E+03  0.47000000000E+01 0.  1.
          5    1    4    4  503    0 -0.62513585716E+02  0.64731434677E+01 -0.89829464425E+02  0.10973273288E+03  0.47000000000E+01 0.  1.
         -5    1    4    4    0  503  0.43262519383E+02 -0.48013741296E+02 -0.17639213864E+03  0.18791817770E+03  0.47000000000E+01 0.  1.
<mgrwt>
<rscale>  0 0.13312116E+03</rscale>
<asrwt>0</asrwt>
<pdfrwt beam="1">  1        5 0.32699186E-02 0.13312446E+03</pdfrwt>
<pdfrwt beam="2">  1       -5 0.16639065E+00 0.13312446E+03</pdfrwt>
<totfact> 0.78846911E+01</totfact>
</mgrwt>
</event>
<event>
 8    1  0.3488953E-007  0.1313441E+03  0.7546771E-02  0.1225475E+00
          5   -1    0    0  501    0  0.00000000000E+00  0.00000000000E+00  0.14799129792E+03  0.14806591187E+03  0.47000000000E+01 0.  1.
         -5   -1    0    0    0  501 -0.00000000000E+00 -0.00000000000E+00 -0.13566088568E+03  0.13574227751E+03  0.47000000000E+01 0.  1.
         25    2    1    2    0    0 -0.29657804701E+02  0.27330509968E+02 -0.47247473011E+02  0.13958367151E+03  0.12499894196E+03 0.  0.
         25    2    1    2    0    0  0.29657804701E+02 -0.27330509968E+02  0.59577885252E+02  0.14422451787E+03  0.12499857994E+03 0.  0.
          5    1    3    3  502    0 -0.15502203325E+02  0.76286303661E+02 -0.40760200682E+02  0.87996604445E+02  0.47000000000E+01 0. -1.
         -5    1    3    3    0  502 -0.14155601376E+02 -0.48955793693E+02 -0.64872723298E+01  0.51587067068E+02  0.47000000000E+01 0. -1.
          5    1    4    4  503    0 -0.37682442297E+02  0.23693683627E+02  0.90416096257E+01  0.45663966165E+02  0.47000000000E+01 0. -1.
         -5    1    4    4    0  503  0.67340246998E+02 -0.51024193595E+02  0.50536275626E+02  0.98560551703E+02  0.47000000000E+01 0. -1.
<mgrwt>
<rscale>  0 0.13134403E+03</rscale>
<asrwt>0</asrwt>
<pdfrwt beam="1">  1        5 0.22779893E-01 0.13134412E+03</pdfrwt>
<pdfrwt beam="2">  1       -5 0.20882906E-01 0.13134412E+03</pdfrwt>
<totfact> 0.27737316E+02</totfact>
</mgrwt>
</event>
<event>
 8    1  0.3488953E-007  0.1532967E+03  0.7546771E-02  0.1196481E+00
          5   -1    0    0  501    0  0.00000000000E+00  0.00000000000E+00  0.54726546733E+03  0.54728564911E+03  0.47000000000E+01 0.  1.
         -5   -1    0    0    0  501 -0.00000000000E+00 -0.00000000000E+00 -0.48184627864E+02  0.48413307700E+02  0.47000000000E+01 0.  1.
         25    2    1    2    0    0  0.85597999308E+02 -0.23396735642E+02  0.15015170000E+03  0.21458195592E+03  0.12500183227E+03 0.  0.
         25    2    1    2    0    0 -0.85597999308E+02  0.23396735642E+02  0.34892913946E+03  0.38111700089E+03  0.12499679708E+03 0.  0.
          5    1    4    4  502    0 -0.26344553378E+02 -0.13502016073E+02  0.53006309278E+01  0.30438899766E+02  0.47000000000E+01 0. -1.
         -5    1    4    4    0  502 -0.59253445929E+02  0.36898751715E+02  0.34362850853E+03  0.35067810112E+03  0.47000000000E+01 0. -1.
          5    1    3    3  503    0  0.35328586564E+02 -0.65626697089E+02  0.36211300805E+02  0.82995907763E+02  0.47000000000E+01 0.  1.
         -5    1    3    3    0  503  0.50269412744E+02  0.42229961447E+02  0.11394039920E+03  0.13158604816E+03  0.47000000000E+01 0.  1.
<mgrwt>
<rscale>  0 0.15329569E+03</rscale>
<asrwt>0</asrwt>
<pdfrwt beam="1">  1        5 0.84213832E-01 0.15329671E+03</pdfrwt>
<pdfrwt beam="2">  1       -5 0.74321627E-02 0.15329671E+03</pdfrwt>
<totfact> 0.11996776E+02</totfact>
</mgrwt>
</event>
<event>
 8    1  0.3488953E-007  0.1301924E+03  0.7546771E-02  0.1227172E+00
         -5   -1    0    0    0  501 -0.00000000000E+00  0.00000000000E+00  0.17345438863E+02  0.17970927893E+02  0.47000000000E+01 0. -1.
          5   -1    0    0  501    0  0.00000000000E+00 -0.00000000000E+00 -0.97960171731E+03  0.97961299224E+03  0.47000000000E+01 0. -1.
         25    2    1    2    0    0 -0.27759505585E+02  0.23507840815E+02 -0.40925635707E+03  0.42946575909E+03  0.12500745457E+03 0.  0.
         25    2    1    2    0    0  0.27759505585E+02 -0.23507840815E+02 -0.55299992138E+03  0.56811816104E+03  0.12500449243E+03 0.  0.
          5    1    3    3  502    0 -0.27859993135E+02  0.36661007838E+02 -0.41253067320E+03  0.41511908538E+03  0.47000000000E+01 0.  1.
         -5    1    3    3    0  502  0.10048754997E+00 -0.13153167022E+02  0.32743161314E+01  0.14346673712E+02  0.47000000000E+01 0.  1.
          5    1    4    4  503    0 -0.36272380946E+02 -0.48580979746E+02 -0.28295388447E+03  0.28941456071E+03  0.47000000000E+01 0. -1.
         -5    1    4    4    0  503  0.64031886531E+02  0.25073138931E+02 -0.27004603691E+03  0.27870360033E+03  0.47000000000E+01 0. -1.
<mgrwt>
<rscale>  0 0.13019173E+03</rscale>
<asrwt>0</asrwt>
<pdfrwt beam="2">  1        5 0.15075690E+00 0.13019244E+03</pdfrwt>
<pdfrwt beam="1">  1       -5 0.27175117E-02 0.13019244E+03</pdfrwt>
<totfact> 0.13886527E+02</totfact>
</mgrwt>
</event>
<event>
 8    1  0.3488953E-007  0.1554625E+03  0.7546771E-02  0.1193918E+00
          5   -1    0    0  501    0  0.00000000000E+00  0.00000000000E+00  0.54182984871E+03  0.54185023296E+03  0.47000000000E+01 0.  1.
         -5   -1    0    0    0  501 -0.00000000000E+00 -0.00000000000E+00 -0.52124290437E+02  0.52335758842E+02  0.47000000000E+01 0.  1.
         25    2    1    2    0    0  0.30841083125E+02  0.87138686100E+02  0.13119583533E+03  0.20342030118E+03  0.12499259458E+03 0.  0.
         25    2    1    2    0    0 -0.30841083125E+02 -0.87138686100E+02  0.35850972294E+03  0.39076569062E+03  0.12499712196E+03 0.  0.
          5    1    3    3  502    0 -0.37082366463E+02 -0.45279412637E+01  0.15060332747E+02  0.40552531081E+02  0.47000000000E+01 0.  1.
         -5    1    3    3    0  502  0.67923449588E+02  0.91666627364E+02  0.11613550259E+03  0.16286777010E+03  0.47000000000E+01 0.  1.
          5    1    4    4  503    0 -0.68090488017E+02 -0.91094727466E+01  0.16130523893E+03  0.17538747720E+03  0.47000000000E+01 0.  1.
         -5    1    4    4    0  503  0.37249404892E+02 -0.78029213353E+02  0.19720448401E+03  0.21537821342E+03  0.47000000000E+01 0.  1.
<mgrwt>
<rscale>  0 0.15546164E+03</rscale>
<asrwt>0</asrwt>
<pdfrwt beam="1">  1        5 0.83376272E-01 0.15546255E+03</pdfrwt>
<pdfrwt beam="2">  1       -5 0.80369565E-02 0.15546255E+03</pdfrwt>
<totfact> 0.10787385E+02</totfact>
</mgrwt>
</event>
<event>
 8    1  0.3488953E-007  0.1341172E+03  0.7546771E-02  0.1221472E+00
          5   -1    0    0  501    0  0.00000000000E+00  0.00000000000E+00  0.33680669497E+03  0.33683948666E+03  0.47000000000E+01 0.  1.
         -5   -1    0    0    0  501 -0.00000000000E+00 -0.00000000000E+00 -0.54897863067E+02  0.55098687546E+02  0.47000000000E+01 0.  1.
         25    2    1    2    0    0 -0.13074364083E+02 -0.46810185447E+02  0.10724514495E+03  0.17172278223E+03  0.12500024145E+03 0.  0.
         25    2    1    2    0    0  0.13074364083E+02  0.46810185447E+02  0.17466368694E+03  0.22021539197E+03  0.12500113147E+03 0.  0.
          5    1    3    3  502    0 -0.14270205045E+02  0.37337626749E+02  0.71685254827E+01  0.40880495115E+02  0.47000000000E+01 0. -1.
         -5    1    3    3    0  502  0.11958409620E+01 -0.84147812196E+02  0.10007661947E+03  0.13084228712E+03  0.47000000000E+01 0. -1.
          5    1    4    4  503    0  0.14472057420E+02  0.23787556904E+02 -0.12996149466E+02  0.31085015850E+02  0.47000000000E+01 0.  1.
         -5    1    4    4    0  503 -0.13976933374E+01  0.23022628543E+02  0.18765983641E+03  0.18913037612E+03  0.47000000000E+01 0.  1.
<mgrwt>
<rscale>  0 0.13411696E+03</rscale>
<asrwt>0</asrwt>
<pdfrwt beam="1">  1        5 0.51834383E-01 0.13411717E+03</pdfrwt>
<pdfrwt beam="2">  1       -5 0.84637959E-02 0.13411717E+03</pdfrwt>
<totfact> 0.27144060E+02</totfact>
</mgrwt>
</event>
<event>
 8    1  0.3488953E-007  0.1360862E+03  0.7546771E-02  0.1218697E+00
          5   -1    0    0  501    0  0.00000000000E+00  0.00000000000E+00  0.77187931794E+01  0.90371327392E+01  0.47000000000E+01 0.  1.
         -5   -1    0    0    0  501 -0.00000000000E+00 -0.00000000000E+00 -0.22553023797E+04  0.22553072770E+04  0.47000000000E+01 0.  1.
         25    2    1    2    0    0  0.46369508366E+02 -0.27255324629E+02 -0.12858059159E+04  0.12929867336E+04  0.12499942348E+03 0.  0.
         25    2    1    2    0    0 -0.46369508366E+02  0.27255324629E+02 -0.96177767066E+03  0.97135767623E+03  0.12500585327E+03 0.  0.
          5    1    4    4  502    0 -0.83576716735E+02  0.35249738376E+02 -0.79792957848E+03  0.80308238298E+03  0.47000000000E+01 0.  1.
         -5    1    4    4    0  502  0.37207208370E+02 -0.79944137471E+01 -0.16384809218E+03  0.16827529325E+03  0.47000000000E+01 0.  1.
          5    1    3    3  503    0  0.17550567138E+02 -0.52189536272E+02 -0.11631319616E+04  0.11644439961E+04  0.47000000000E+01 0.  1.
         -5    1    3    3    0  503  0.28818941228E+02  0.24934211643E+02 -0.12267395430E+03  0.12854273743E+03  0.47000000000E+01 0.  1.
<mgrwt>
<rscale>  0 0.13608470E+03</rscale>
<asrwt>0</asrwt>
<pdfrwt beam="1">  1        5 0.12892959E-02 0.13608618E+03</pdfrwt>
<pdfrwt beam="2">  1       -5 0.34707090E+00 0.13608618E+03</pdfrwt>
<totfact> 0.23036981E+01</totfact>
</mgrwt>
</event>
<event>
 8    1  0.3488953E-007  0.1254292E+03  0.7546771E-02  0.1234405E+00
         -5   -1    0    0    0  501 -0.00000000000E+00  0.00000000000E+00  0.14004669079E+03  0.14012553515E+03  0.47000000000E+01 0. -1.
          5   -1    0    0  501    0  0.00000000000E+00 -0.00000000000E+00 -0.12009343649E+03  0.12018537136E+03  0.47000000000E+01 0. -1.
         25    2    1    2    0    0  0.56570256444E+01 -0.85470932067E+01  0.43393393090E+02  0.13271024768E+03  0.12499587407E+03 0.  0.
         25    2    1    2    0    0 -0.56570256444E+01  0.85470932067E+01 -0.23440138789E+02  0.12760065884E+03  0.12500973277E+03 0.  0.
          5    1    3    3  502    0 -0.85409186959E+01 -0.65018900112E+02  0.13618436373E+02  0.67141317184E+02  0.47000000000E+01 0. -1.
         -5    1    3    3    0  502  0.14197944340E+02  0.56471806905E+02  0.29774956717E+02  0.65568930494E+02  0.47000000000E+01 0. -1.
          5    1    4    4  503    0 -0.12045550260E+02  0.50747908768E+02  0.28968667745E+02  0.59847466415E+02  0.47000000000E+01 0. -1.
         -5    1    4    4    0  503  0.63885246153E+01 -0.42200815562E+02 -0.52408806534E+02  0.67753192420E+02  0.47000000000E+01 0. -1.
<mgrwt>
<rscale>  0 0.12542576E+03</rscale>
<asrwt>0</asrwt>
<pdfrwt beam="2">  1        5 0.18489050E-01 0.12542922E+03</pdfrwt>
<pdfrwt beam="1">  1       -5 0.21558782E-01 0.12542922E+03</pdfrwt>
<totfact> 0.37950644E+02</totfact>
</mgrwt>
</event>
<event>
 8    1  0.3488953E-007  0.1533653E+03  0.7546771E-02  0.1196401E+00
          5   -1    0    0  501    0  0.00000000000E+00  0.00000000000E+00  0.21636976212E+02  0.22141561363E+02  0.47000000000E+01 0.  1.
         -5   -1    0    0    0  501 -0.00000000000E+00 -0.00000000000E+00 -0.16335373615E+04  0.16335441228E+04  0.47000000000E+01 0.  1.
         25    2    1    2    0    0  0.44789248466E+02  0.76738321389E+02 -0.12904123303E+04  0.12994940875E+04  0.12500421790E+03 0.  0.
         25    2    1    2    0    0 -0.44789248466E+02 -0.76738321389E+02 -0.32148805498E+03  0.35619159675E+03  0.12499214916E+03 0.  0.
          5    1    3    3  502    0  0.22638875376E+02  0.33532281545E+02 -0.98570362356E+02  0.10665429630E+03  0.47000000000E+01 0. -1.
         -5    1    3    3    0  502  0.22150373090E+02  0.43206039844E+02 -0.11918419679E+04  0.11928397912E+04  0.47000000000E+01 0. -1.
          5    1    4    4  503    0  0.39910237812E+02 -0.34559721220E+02 -0.72649964422E+02  0.89929465380E+02  0.47000000000E+01 0. -1.
         -5    1    4    4    0  503 -0.84699486277E+02 -0.42178600169E+02 -0.24883809056E+03  0.26626213137E+03  0.47000000000E+01 0. -1.
<mgrwt>
<rscale>  0 0.15336280E+03</rscale>
<asrwt>0</asrwt>
<pdfrwt beam="1">  1        5 0.33681012E-02 0.15336525E+03</pdfrwt>
<pdfrwt beam="2">  1       -5 0.25135268E+00 0.15336525E+03</pdfrwt>
<totfact> 0.20962848E+01</totfact>
</mgrwt>
</event>
<event>
 8    1  0.3488953E-007  0.1482856E+03  0.7546771E-02  0.1202600E+00
          5   -1    0    0  501    0  0.00000000000E+00  0.00000000000E+00  0.37049307538E+03  0.37052288581E+03  0.47000000000E+01 0. -1.
         -5   -1    0    0    0  501 -0.00000000000E+00 -0.00000000000E+00 -0.60101454984E+02  0.60284947468E+02  0.47000000000E+01 0. -1.
         25    2    1    2    0    0  0.77797137247E+02  0.17604343773E+02  0.12914783591E+03  0.19664125698E+03  0.12500525167E+03 0.  0.
         25    2    1    2    0    0 -0.77797137247E+02 -0.17604343773E+02  0.18124378449E+03  0.23416657629E+03  0.12498947376E+03 0.  0.
          5    1    3    3  502    0  0.45559227390E+02  0.64110556346E+02  0.11272644261E+03  0.13753235074E+03  0.47000000000E+01 0. -1.
         -5    1    3    3    0  502  0.32237909857E+02 -0.46506212573E+02  0.16421393294E+02  0.59108906245E+02  0.47000000000E+01 0. -1.
          5    1    4    4  503    0 -0.28030333927E+02  0.53943959616E+02  0.72751419226E+02  0.94923703039E+02  0.47000000000E+01 0.  1.
         -5    1    4    4    0  503 -0.49766803320E+02 -0.71548303390E+02  0.10849236526E+03  0.13924287325E+03  0.47000000000E+01 0.  1.
<mgrwt>
<rscale>  0 0.14828228E+03</rscale>
<asrwt>0</asrwt>
<pdfrwt beam="1">  1        5 0.57015342E-01 0.14828560E+03</pdfrwt>
<pdfrwt beam="2">  1       -5 0.92627858E-02 0.14828560E+03</pdfrwt>
<totfact> 0.19568490E+02</totfact>
</mgrwt>
</event>
<event>
 8    1  0.3488953E-007  0.1688061E+03  0.7546771E-02  0.1179099E+00
         -5   -1    0    0    0  501 -0.00000000000E+00  0.00000000000E+00  0.31715731193E+03  0.31719213501E+03  0.47000000000E+01 0. -1.
          5   -1    0    0  501    0  0.00000000000E+00 -0.00000000000E+00 -0.10101843344E+03  0.10112771081E+03  0.47000000000E+01 0. -1.
         25    2    1    2    0    0  0.44687102469E+02  0.10427259103E+03  0.17789272016E+03  0.24523529020E+03  0.12499926922E+03 0.  0.
         25    2    1    2    0    0 -0.44687102469E+02 -0.10427259103E+03  0.38246158332E+02  0.17308455563E+03  0.12500313757E+03 0.  0.
          5    1    3    3  502    0  0.86777585995E+02  0.57065791256E+02  0.94743946532E+02  0.14066043995E+03  0.47000000000E+01 0.  1.
         -5    1    3    3    0  502 -0.42090483526E+02  0.47206799776E+02  0.83148773630E+02  0.10457485025E+03  0.47000000000E+01 0.  1.
          5    1    4    4  503    0  0.32288240703E+02 -0.16331365239E+02  0.42534554469E+02  0.56040363151E+02  0.47000000000E+01 0. -1.
         -5    1    4    4    0  503 -0.76975343172E+02 -0.87941225794E+02 -0.42883961367E+01  0.11704419247E+03  0.47000000000E+01 0. -1.
<mgrwt>
<rscale>  0 0.16880537E+03</rscale>
<asrwt>0</asrwt>
<pdfrwt beam="2">  1        5 0.15552382E-01 0.16880609E+03</pdfrwt>
<pdfrwt beam="1">  1       -5 0.48804517E-01 0.16880609E+03</pdfrwt>
<totfact> 0.11321177E+02</totfact>
</mgrwt>
</event>
<event>
 8    1  0.3488953E-007  0.1315678E+03  0.7546771E-02  0.1225161E+00
          5   -1    0    0  501    0  0.00000000000E+00  0.00000000000E+00  0.35456081084E+03  0.35459196069E+03  0.47000000000E+01 0.  1.
         -5   -1    0    0    0  501 -0.00000000000E+00 -0.00000000000E+00 -0.62514666652E+02  0.62691096230E+02  0.47000000000E+01 0.  1.
         25    2    1    2    0    0  0.40757303814E+02  0.39821206973E+01  0.48004634195E+02  0.14005191882E+03  0.12503231567E+03 0.  0.
         25    2    1    2    0    0 -0.40757303814E+02 -0.39821206973E+01  0.24404150999E+03  0.27723113810E+03  0.12499532084E+03 0.  0.
          5    1    4    4  502    0 -0.54308648438E+02  0.23300154643E+02  0.41517079211E+02  0.72374611348E+02  0.47000000000E+01 0. -1.
         -5    1    4    4    0  502  0.13551344624E+02 -0.27282275340E+02  0.20252443078E+03  0.20485652675E+03  0.47000000000E+01 0. -1.
          5    1    3    3  503    0  0.15881003352E+02 -0.60267536455E+02  0.23603896480E+02  0.66810299707E+02  0.47000000000E+01 0.  1.
         -5    1    3    3    0  503  0.24876300462E+02  0.64249657153E+02  0.24400737715E+02  0.73241619110E+02  0.47000000000E+01 0.  1.
<mgrwt>
<rscale>  0 0.13155904E+03</rscale>
<asrwt>0</asrwt>
<pdfrwt beam="1">  1        5 0.54563785E-01 0.13156783E+03</pdfrwt>
<pdfrwt beam="2">  1       -5 0.96336085E-02 0.13156783E+03</pdfrwt>
<totfact> 0.19312732E+02</totfact>
</mgrwt>
</event>
<event>
 8    1  0.3488953E-007  0.1262052E+03  0.7546771E-02  0.1233201E+00
         -5   -1    0    0    0  501 -0.00000000000E+00  0.00000000000E+00  0.15059555966E+04  0.15059629308E+04  0.47000000000E+01 0. -1.
          5   -1    0    0  501    0  0.00000000000E+00 -0.00000000000E+00 -0.10376276465E+02  0.11391097984E+02  0.47000000000E+01 0. -1.
         25    2    1    2    0    0  0.16919915784E+02 -0.37384178155E+01  0.87690727186E+03  0.88594250047E+03  0.12500996511E+03 0.  0.
         25    2    1    2    0    0 -0.16919915784E+02  0.37384178155E+01  0.61867204828E+03  0.63141152832E+03  0.12500062179E+03 0.  0.
          5    1    4    4  502    0  0.19097528775E+02  0.34166008525E+02  0.52460789512E+03  0.52608703212E+03  0.47000000000E+01 0. -1.
         -5    1    4    4    0  502 -0.36017444559E+02 -0.30427590709E+02  0.94064153161E+02  0.10532449620E+03  0.47000000000E+01 0. -1.
          5    1    3    3  503    0  0.54662342415E+02  0.81254414167E+01  0.19127760540E+03  0.19915623717E+03  0.47000000000E+01 0.  1.
         -5    1    3    3    0  503 -0.37742426631E+02 -0.11863859232E+02  0.68562966646E+03  0.68678626329E+03  0.47000000000E+01 0.  1.
<mgrwt>
<rscale>  0 0.12620288E+03</rscale>
<asrwt>0</asrwt>
<pdfrwt beam="2">  1        5 0.16749774E-02 0.12620519E+03</pdfrwt>
<pdfrwt beam="1">  1       -5 0.23176413E+00 0.12620519E+03</pdfrwt>
<totfact> 0.80951352E+01</totfact>
</mgrwt>
</event>
<event>
 8    1  0.3488953E-007  0.1433174E+03  0.7546771E-02  0.1208938E+00
          5   -1    0    0  501    0  0.00000000000E+00  0.00000000000E+00  0.84924584844E+03  0.84925885399E+03  0.47000000000E+01 0.  1.
         -5   -1    0    0    0  501 -0.00000000000E+00 -0.00000000000E+00 -0.23942750391E+02  0.24399698693E+02  0.47000000000E+01 0.  1.
         25    2    1    2    0    0  0.45437976565E+02  0.53361622144E+02  0.41452811165E+03  0.43860395603E+03  0.12501120937E+03 0.  0.
         25    2    1    2    0    0 -0.45437976565E+02 -0.53361622144E+02  0.41077498640E+03  0.43505459666E+03  0.12499736073E+03 0.  0.
          5    1    4    4  502    0 -0.55450421170E+02 -0.89520558205E+02  0.29560745220E+03  0.31383839049E+03  0.47000000000E+01 0. -1.
         -5    1    4    4    0  502  0.10012444604E+02  0.36158936061E+02  0.11516753420E+03  0.12121620617E+03  0.47000000000E+01 0. -1.
          5    1    3    3  503    0  0.69503642453E+02  0.24226611305E+02  0.38035066021E+03  0.38743567173E+03  0.47000000000E+01 0.  1.
         -5    1    3    3    0  503 -0.24065665887E+02  0.29135010838E+02  0.34177451438E+02  0.51168284297E+02  0.47000000000E+01 0.  1.
<mgrwt>
<rscale>  0 0.14331437E+03</rscale>
<asrwt>0</asrwt>
<pdfrwt beam="1">  1        5 0.13068937E+00 0.14331739E+03</pdfrwt>
<pdfrwt beam="2">  1       -5 0.37196501E-02 0.14331739E+03</pdfrwt>
<totfact> 0.12605533E+02</totfact>
</mgrwt>
</event>
<event>
 8    1  0.3488953E-007  0.1765921E+03  0.7546771E-02  0.1171147E+00
         -5   -1    0    0    0  501 -0.00000000000E+00  0.00000000000E+00  0.15605483777E+03  0.15612559813E+03  0.47000000000E+01 0. -1.
          5   -1    0    0  501    0  0.00000000000E+00 -0.00000000000E+00 -0.23064108190E+03  0.23068896519E+03  0.47000000000E+01 0. -1.
         25    2    1    2    0    0 -0.29664909578E+02 -0.12115000664E+03  0.33563390003E+02  0.17975333485E+03  0.12500971671E+03 0.  0.
         25    2    1    2    0    0  0.29664909578E+02  0.12115000664E+03 -0.10814963413E+03  0.20706122848E+03  0.12498271083E+03 0.  0.
          5    1    4    4  502    0 -0.44317810991E+02  0.16281850681E+02 -0.37564166349E+02  0.60517134980E+02  0.47000000000E+01 0. -1.
         -5    1    4    4    0  502  0.73982720569E+02  0.10486815595E+03 -0.70585467784E+02  0.14654409350E+03  0.47000000000E+01 0. -1.
          5    1    3    3  503    0 -0.63641558677E+02 -0.52493975702E+02 -0.21396388696E+02  0.85356668896E+02  0.47000000000E+01 0. -1.
         -5    1    3    3    0  503  0.33976649098E+02 -0.68656030934E+02  0.54959778700E+02  0.94396665949E+02  0.47000000000E+01 0. -1.
<mgrwt>
<rscale>  0 0.17658729E+03</rscale>
<asrwt>0</asrwt>
<pdfrwt beam="2">  1        5 0.35492370E-01 0.17659207E+03</pdfrwt>
<pdfrwt beam="1">  1       -5 0.24017563E-01 0.17659207E+03</pdfrwt>
<totfact> 0.98429119E+01</totfact>
</mgrwt>
</event>
<event>
 8    1  0.3488953E-007  0.1408052E+03  0.7546771E-02  0.1212250E+00
          5   -1    0    0  501    0  0.00000000000E+00  0.00000000000E+00  0.78435590098E+02  0.78576280098E+02  0.47000000000E+01 0. -1.
         -5   -1    0    0    0  501 -0.00000000000E+00 -0.00000000000E+00 -0.28175457438E+03  0.28179377243E+03  0.47000000000E+01 0. -1.
         25    2    1    2    0    0 -0.25530123616E+02  0.59580488456E+02 -0.15982235968E+03  0.21299957296E+03  0.12499603839E+03 0.  0.
         25    2    1    2    0    0  0.25530123616E+02 -0.59580488456E+02 -0.43496624602E+02  0.14737047957E+03  0.12499792031E+03 0.  0.
          5    1    3    3  502    0  0.39480591879E+02  0.27459328276E+02 -0.12169919741E+03  0.13094088931E+03  0.47000000000E+01 0.  1.
         -5    1    3    3    0  502 -0.65010715495E+02  0.32121160180E+02 -0.38123162271E+02  0.82058683648E+02  0.47000000000E+01 0.  1.
          5    1    4    4  503    0  0.17580664745E+02  0.29386646007E+02  0.17857033588E+02  0.38905248810E+02  0.47000000000E+01 0.  1.
         -5    1    4    4    0  503  0.79494588715E+01 -0.88967134463E+02 -0.61353658190E+02  0.10846523076E+03  0.47000000000E+01 0.  1.
<mgrwt>
<rscale>  0 0.14080477E+03</rscale>
<asrwt>0</asrwt>
<pdfrwt beam="1">  1        5 0.12080852E-01 0.14080519E+03</pdfrwt>
<pdfrwt beam="2">  1       -5 0.43360695E-01 0.14080519E+03</pdfrwt>
<totfact> 0.21564136E+02</totfact>
</mgrwt>
</event>
<event>
 8    1  0.3488953E-007  0.1573091E+03  0.7546771E-02  0.1191770E+00
          5   -1    0    0  501    0  0.00000000000E+00  0.00000000000E+00  0.44562837179E+02  0.44810003988E+02  0.47000000000E+01 0. -1.
         -5   -1    0    0    0  501 -0.00000000000E+00 -0.00000000000E+00 -0.59693710612E+03  0.59695560862E+03  0.47000000000E+01 0. -1.
         25    2    1    2    0    0 -0.82544636581E+02  0.48033405070E+02 -0.36273043335E+03  0.39537265291E+03  0.12500136943E+03 0.  0.
         25    2    1    2    0    0  0.82544636581E+02 -0.48033405070E+02 -0.18964383559E+03  0.24639295970E+03  0.12499552464E+03 0.  0.
          5    1    4    4  502    0  0.65933971592E+02 -0.87180191892E+02 -0.10545046666E+03  0.15195251030E+03  0.47000000000E+01 0. -1.
         -5    1    4    4    0  502  0.16610664989E+02  0.39146786822E+02 -0.84193368937E+02  0.94440449400E+02  0.47000000000E+01 0. -1.
          5    1    3    3  503    0  0.16601331572E+02  0.36510269437E+02 -0.20288256651E+03  0.20686234500E+03  0.47000000000E+01 0.  1.
         -5    1    3    3    0  503 -0.99145968153E+02  0.11523135633E+02 -0.15984786683E+03  0.18851030790E+03  0.47000000000E+01 0.  1.
<mgrwt>
<rscale>  0 0.15730798E+03</rscale>
<asrwt>0</asrwt>
<pdfrwt beam="1">  1        5 0.68762576E-02 0.15730915E+03</pdfrwt>
<pdfrwt beam="2">  1       -5 0.91856908E-01 0.15730915E+03</pdfrwt>
<totfact> 0.11242216E+02</totfact>
</mgrwt>
</event>
<event>
 8    1  0.3488953E-007  0.1375424E+03  0.7546771E-02  0.1216684E+00
         -5   -1    0    0    0  501 -0.00000000000E+00  0.00000000000E+00  0.17174369049E+03  0.17180798940E+03  0.47000000000E+01 0. -1.
          5   -1    0    0  501    0  0.00000000000E+00 -0.00000000000E+00 -0.12319976212E+03  0.12328938067E+03  0.47000000000E+01 0. -1.
         25    2    1    2    0    0 -0.45185218835E+02 -0.35375919760E+02  0.72544780376E+02  0.15547660471E+03  0.12496827498E+03 0.  0.
         25    2    1    2    0    0  0.45185218835E+02  0.35375919760E+02 -0.24000852009E+02  0.13962076537E+03  0.12499903010E+03 0.  0.
          5    1    3    3  502    0 -0.45443534917E+02 -0.80275465239E+02  0.49250178788E+02  0.10467538056E+03  0.47000000000E+01 0.  1.
         -5    1    3    3    0  502  0.25831608195E+00  0.44899545479E+02  0.23294601588E+02  0.50801224144E+02  0.47000000000E+01 0.  1.
          5    1    4    4  503    0 -0.20917604529E+02  0.13047295993E+02  0.38415404268E+02  0.45886941465E+02  0.47000000000E+01 0. -1.
         -5    1    4    4    0  503  0.66102823365E+02  0.22328623767E+02 -0.62416256277E+02  0.93733823904E+02  0.47000000000E+01 0. -1.
<mgrwt>
<rscale>  0 0.13753543E+03</rscale>
<asrwt>0</asrwt>
<pdfrwt beam="2">  1        5 0.18965649E-01 0.13754242E+03</pdfrwt>
<pdfrwt beam="1">  1       -5 0.26433946E-01 0.13754242E+03</pdfrwt>
<totfact> 0.25380650E+02</totfact>
</mgrwt>
</event>
<event>
 8    1  0.3488953E-007  0.1946000E+03  0.7546771E-02  0.1154377E+00
         -5   -1    0    0    0  501 -0.00000000000E+00  0.00000000000E+00  0.17071166508E+03  0.17077635256E+03  0.47000000000E+01 0. -1.
          5   -1    0    0  501    0  0.00000000000E+00 -0.00000000000E+00 -0.27141238121E+03  0.27145307270E+03  0.47000000000E+01 0. -1.
         25    2    1    2    0    0 -0.88366518031E+01 -0.14888650879E+03  0.44263970962E+02  0.19957072649E+03  0.12499558725E+03 0.  0.
         25    2    1    2    0    0  0.88366518031E+01  0.14888650879E+03 -0.14496468710E+03  0.24265869877E+03  0.12499281847E+03 0.  0.
          5    1    4    4  502    0  0.46021647623E+02  0.65879825955E+01 -0.44138210462E+02  0.64278030363E+02  0.47000000000E+01 0. -1.
         -5    1    4    4    0  502 -0.37184995820E+02  0.14229852619E+03 -0.10082647663E+03  0.17838066841E+03  0.47000000000E+01 0. -1.
          5    1    3    3  503    0 -0.18014085092E+02 -0.16541324242E+03  0.18808013212E+02  0.16751680331E+03  0.47000000000E+01 0.  1.
         -5    1    3    3    0  503  0.91774332887E+01  0.16526733632E+02  0.25455957749E+02  0.32053923180E+02  0.47000000000E+01 0.  1.
<mgrwt>
<rscale>  0 0.19459960E+03</rscale>
<asrwt>0</asrwt>
<pdfrwt beam="2">  1        5 0.41763857E-01 0.19460004E+03</pdfrwt>
<pdfrwt beam="1">  1       -5 0.26271439E-01 0.19460004E+03</pdfrwt>
<totfact> 0.61028437E+01</totfact>
</mgrwt>
</event>
<event>
 8    1  0.3488953E-007  0.1329178E+03  0.7546771E-02  0.1223191E+00
         -5   -1    0    0    0  501 -0.00000000000E+00  0.00000000000E+00  0.49476673962E+02  0.49699409114E+02  0.47000000000E+01 0.  1.
          5   -1    0    0  501    0  0.00000000000E+00 -0.00000000000E+00 -0.36005178666E+03  0.36008246150E+03  0.47000000000E+01 0.  1.
         25    2    1    2    0    0 -0.31929651947E+02 -0.31974715799E+02 -0.13362914780E+03  0.18847785634E+03  0.12500107224E+03 0.  0.
         25    2    1    2    0    0  0.31929651947E+02  0.31974715799E+02 -0.17694596490E+03  0.22130401428E+03  0.12499482836E+03 0.  0.
          5    1    3    3  502    0  0.15934450885E+02  0.20156924756E+02  0.10254753145E+02  0.28061687453E+02  0.47000000000E+01 0.  1.
         -5    1    3    3    0  502 -0.47864102831E+02 -0.52131640556E+02 -0.14388390095E+03  0.16041616888E+03  0.47000000000E+01 0.  1.
          5    1    4    4  503    0 -0.17468937772E+02 -0.16876556413E+02  0.60827406149E+01  0.25476885144E+02  0.47000000000E+01 0. -1.
         -5    1    4    4    0  503  0.49398589719E+02  0.48851272213E+02 -0.18302870551E+03  0.19582712913E+03  0.47000000000E+01 0. -1.
<mgrwt>
<rscale>  0 0.13291638E+03</rscale>
<asrwt>0</asrwt>
<pdfrwt beam="2">  1        5 0.55412074E-01 0.13291784E+03</pdfrwt>
<pdfrwt beam="1">  1       -5 0.76312893E-02 0.13291784E+03</pdfrwt>
<totfact> 0.28009013E+02</totfact>
</mgrwt>
</event>
<event>
 8    1  0.3488953E-007  0.1322188E+03  0.7546771E-02  0.1224204E+00
         -5   -1    0    0    0  501 -0.00000000000E+00  0.00000000000E+00  0.11389739461E+04  0.11389836434E+04  0.47000000000E+01 0. -1.
          5   -1    0    0  501    0  0.00000000000E+00 -0.00000000000E+00 -0.14994481031E+02  0.15713830258E+02  0.47000000000E+01 0. -1.
         25    2    1    2    0    0 -0.40569955636E+02 -0.14417485782E+02  0.54299210591E+03  0.55885510201E+03  0.12499925107E+03 0.  0.
         25    2    1    2    0    0  0.40569955636E+02  0.14417485782E+02  0.58098735918E+03  0.59584237165E+03  0.12501213993E+03 0.  0.
          5    1    3    3  502    0 -0.76640649402E+01 -0.67280865373E+02  0.32944082298E+03  0.33636111336E+03  0.47000000000E+01 0.  1.
         -5    1    3    3    0  502 -0.32905890696E+02  0.52863379591E+02  0.21355128293E+03  0.22249398865E+03  0.47000000000E+01 0.  1.
          5    1    4    4  503    0  0.61790912004E+02 -0.34051744438E+02  0.22317519444E+03  0.23410872585E+03  0.47000000000E+01 0.  1.
         -5    1    4    4    0  503 -0.21220956369E+02  0.48469230220E+02  0.35781216475E+03  0.36173364581E+03  0.47000000000E+01 0.  1.
<mgrwt>
<rscale>  0 0.13221579E+03</rscale>
<asrwt>0</asrwt>
<pdfrwt beam="2">  1        5 0.23629241E-02 0.13221883E+03</pdfrwt>
<pdfrwt beam="1">  1       -5 0.17528282E+00 0.13221883E+03</pdfrwt>
<totfact> 0.11424760E+02</totfact>
</mgrwt>
</event>
<event>
 8    1  0.3488953E-007  0.1302703E+03  0.7546771E-02  0.1227060E+00
          5   -1    0    0  501    0  0.00000000000E+00  0.00000000000E+00  0.47221063987E+03  0.47223402927E+03  0.47000000000E+01 0. -1.
         -5   -1    0    0    0  501 -0.00000000000E+00 -0.00000000000E+00 -0.35759766582E+02  0.36067310768E+02  0.47000000000E+01 0. -1.
         25    2    1    2    0    0 -0.36545604080E+02  0.25430734556E+01  0.22065903931E+03  0.25623695084E+03  0.12499965977E+03 0.  0.
         25    2    1    2    0    0  0.36545604080E+02 -0.25430734556E+01  0.21579183397E+03  0.25206438920E+03  0.12501316849E+03 0.  0.
          5    1    4    4  502    0 -0.57310347424E+01 -0.20350765286E+02  0.20307799544E+03  0.20422967619E+03  0.47000000000E+01 0. -1.
         -5    1    4    4    0  502  0.42276638822E+02  0.17807691831E+02  0.12713838531E+02  0.47834713009E+02  0.47000000000E+01 0. -1.
          5    1    3    3  503    0 -0.53087484190E+02 -0.40226457382E+02  0.62363523462E+02  0.91366010692E+02  0.47000000000E+01 0. -1.
         -5    1    3    3    0  503  0.16541880110E+02  0.42769530838E+02  0.15829551585E+03  0.16487094015E+03  0.47000000000E+01 0. -1.
<mgrwt>
<rscale>  0 0.13026702E+03</rscale>
<asrwt>0</asrwt>
<pdfrwt beam="1">  1        5 0.72673239E-01 0.13027026E+03</pdfrwt>
<pdfrwt beam="2">  1       -5 0.55269596E-02 0.13027026E+03</pdfrwt>
<totfact> 0.26331912E+02</totfact>
</mgrwt>
</event>
<event>
 8    1  0.3488953E-007  0.1332873E+03  0.7546771E-02  0.1222659E+00
         -5   -1    0    0    0  501 -0.00000000000E+00  0.00000000000E+00  0.14627556499E+03  0.14635105368E+03  0.47000000000E+01 0.  1.
          5   -1    0    0  501    0  0.00000000000E+00 -0.00000000000E+00 -0.12987448832E+03  0.12995950414E+03  0.47000000000E+01 0.  1.
         25    2    1    2    0    0 -0.16031945852E+02  0.43383175152E+02  0.43680233819E+02  0.14026216345E+03  0.12500555385E+03 0.  0.
         25    2    1    2    0    0  0.16031945852E+02 -0.43383175152E+02 -0.27279157147E+02  0.13604839437E+03  0.12500356003E+03 0.  0.
          5    1    3    3  502    0  0.28642870852E+02  0.30460870206E+02  0.73589576169E+02  0.84769065024E+02  0.47000000000E+01 0. -1.
         -5    1    3    3    0  502 -0.44674816705E+02  0.12922304946E+02 -0.29909342350E+02  0.55493098422E+02  0.47000000000E+01 0. -1.
          5    1    4    4  503    0  0.17710924536E+01 -0.22919853329E+02  0.49717550963E+02  0.54976188653E+02  0.47000000000E+01 0.  1.
         -5    1    4    4    0  503  0.14260853399E+02 -0.20463321824E+02 -0.76996708109E+02  0.81072205714E+02  0.47000000000E+01 0.  1.
<mgrwt>
<rscale>  0 0.13328686E+03</rscale>
<asrwt>0</asrwt>
<pdfrwt beam="2">  1        5 0.19993037E-01 0.13328733E+03</pdfrwt>
<pdfrwt beam="1">  1       -5 0.22516280E-01 0.13328733E+03</pdfrwt>
<totfact> 0.30921195E+02</totfact>
</mgrwt>
</event>
<event>
 8    1  0.3488953E-007  0.1893772E+03  0.7546771E-02  0.1159027E+00
          5   -1    0    0  501    0  0.00000000000E+00  0.00000000000E+00  0.81423307495E+03  0.81424663974E+03  0.47000000000E+01 0. -1.
         -5   -1    0    0    0  501 -0.00000000000E+00 -0.00000000000E+00 -0.44008776271E+02  0.44259037370E+02  0.47000000000E+01 0. -1.
         25    2    1    2    0    0 -0.14067212447E+03  0.21211802866E+02  0.36426561858E+03  0.41055225772E+03  0.12500051303E+03 0.  0.
         25    2    1    2    0    0  0.14067212447E+03 -0.21211802866E+02  0.40595868009E+03  0.44795341939E+03  0.12498491438E+03 0.  0.
          5    1    4    4  502    0 -0.16685929342E+02  0.19897110371E+02  0.48767295581E+02  0.55449565890E+02  0.47000000000E+01 0. -1.
         -5    1    4    4    0  502  0.15735805381E+03 -0.41108913237E+02  0.35719138451E+03  0.39250385350E+03  0.47000000000E+01 0. -1.
          5    1    3    3  503    0 -0.61841191101E+02  0.77821999493E+01  0.30386657860E+03  0.31022875938E+03  0.47000000000E+01 0. -1.
         -5    1    3    3    0  503 -0.78830933364E+02  0.13429602917E+02  0.60399039979E+02  0.10032349834E+03  0.47000000000E+01 0. -1.
<mgrwt>
<rscale>  0 0.18937460E+03</rscale>
<asrwt>0</asrwt>
<pdfrwt beam="1">  1        5 0.12528691E+00 0.18937718E+03</pdfrwt>
<pdfrwt beam="2">  1       -5 0.67908756E-02 0.18937718E+03</pdfrwt>
<totfact> 0.55895078E+01</totfact>
</mgrwt>
</event>
<event>
 8    1  0.3488953E-007  0.1337233E+03  0.7546771E-02  0.1222034E+00
          5   -1    0    0  501    0  0.00000000000E+00  0.00000000000E+00  0.19703688083E+03  0.19709292835E+03  0.47000000000E+01 0. -1.
         -5   -1    0    0    0  501 -0.00000000000E+00 -0.00000000000E+00 -0.10925904808E+03  0.10936009139E+03  0.47000000000E+01 0. -1.
         25    2    1    2    0    0 -0.47444457051E+02  0.22273083887E+01 -0.19346287216E+02  0.13511275796E+03  0.12500096451E+03 0.  0.
         25    2    1    2    0    0  0.47444457051E+02 -0.22273083887E+01  0.10712411996E+03  0.17134026177E+03  0.12500388322E+03 0.  0.
          5    1    3    3  502    0 -0.11047703931E+02 -0.40194466185E+02 -0.54605441367E+02  0.68858486049E+02  0.47000000000E+01 0. -1.
         -5    1    3    3    0  502 -0.36396753120E+02  0.42421774574E+02  0.35259154150E+02  0.66254271916E+02  0.47000000000E+01 0. -1.
          5    1    4    4  503    0  0.14088381442E+02 -0.42315790531E+02 -0.73632105429E+01  0.45446842458E+02  0.47000000000E+01 0. -1.
         -5    1    4    4    0  503  0.33356075609E+02  0.40088482142E+02  0.11448733050E+03  0.12589341931E+03  0.47000000000E+01 0. -1.
<mgrwt>
<rscale>  0 0.13372257E+03</rscale>
<asrwt>0</asrwt>
<pdfrwt beam="1">  1        5 0.30325450E-01 0.13372325E+03</pdfrwt>
<pdfrwt beam="2">  1       -5 0.16821168E-01 0.13372325E+03</pdfrwt>
<totfact> 0.24001745E+02</totfact>
</mgrwt>
</event>
<event>
 8    1  0.3488953E-007  0.1512027E+03  0.7546771E-02  0.1199008E+00
          5   -1    0    0  501    0  0.00000000000E+00  0.00000000000E+00  0.26262943909E+03  0.26267149117E+03  0.47000000000E+01 0. -1.
         -5   -1    0    0    0  501 -0.00000000000E+00 -0.00000000000E+00 -0.88033422476E+02  0.88158796911E+02  0.47000000000E+01 0. -1.
         25    2    1    2    0    0  0.70086159458E+02  0.48188811045E+02  0.67676907222E+02  0.16565758226E+03  0.12501215754E+03 0.  0.
         25    2    1    2    0    0 -0.70086159458E+02 -0.48188811045E+02  0.10691910939E+03  0.18517270582E+03  0.12499201483E+03 0.  0.
          5    1    3    3  502    0  0.26392907054E+02 -0.26818235906E+02  0.68979845433E+02  0.78715388557E+02  0.47000000000E+01 0.  1.
         -5    1    3    3    0  502  0.43693252404E+02  0.75007046951E+02 -0.13029382104E+01  0.86942193703E+02  0.47000000000E+01 0.  1.
          5    1    4    4  503    0  0.21716312548E+02 -0.51322368714E+02  0.59629159920E+02  0.81751516645E+02  0.47000000000E+01 0.  1.
         -5    1    4    4    0  503 -0.91802472006E+02  0.31335576686E+01  0.47289949468E+02  0.10342118918E+03  0.47000000000E+01 0.  1.
<mgrwt>
<rscale>  0 0.15119858E+03</rscale>
<asrwt>0</asrwt>
<pdfrwt beam="1">  1        5 0.40417408E-01 0.15120275E+03</pdfrwt>
<pdfrwt beam="2">  1       -5 0.13556483E-01 0.15120275E+03</pdfrwt>
<totfact> 0.20778886E+02</totfact>
</mgrwt>
</event>
<event>
 8    1  0.3488953E-007  0.2290739E+03  0.7546771E-02  0.1127294E+00
          5   -1    0    0  501    0  0.00000000000E+00  0.00000000000E+00  0.15378326804E+03  0.15385507314E+03  0.47000000000E+01 0.  1.
         -5   -1    0    0    0  501 -0.00000000000E+00 -0.00000000000E+00 -0.34208406264E+03  0.34211634850E+03  0.47000000000E+01 0.  1.
         25    2    1    2    0    0 -0.12528292540E+03 -0.14544106484E+03 -0.80527054706E+02  0.24281570275E+03  0.12500377683E+03 0.  0.
         25    2    1    2    0    0  0.12528292540E+03  0.14544106484E+03 -0.10777373989E+03  0.25315571889E+03  0.12499489693E+03 0.  0.
          5    1    4    4  502    0  0.13787141061E+03  0.82591974892E+02 -0.97589141644E+02  0.18808426502E+03  0.47000000000E+01 0.  1.
         -5    1    4    4    0  502 -0.12588485213E+02  0.62849089950E+02 -0.10184598247E+02  0.65071453872E+02  0.47000000000E+01 0.  1.
          5    1    3    3  503    0 -0.12130030069E+03 -0.87758855613E+02 -0.80852997406E+01  0.15000947223E+03  0.47000000000E+01 0. -1.
         -5    1    3    3    0  503 -0.39826247124E+01 -0.57682209228E+02 -0.72441754965E+02  0.92806230521E+02  0.47000000000E+01 0. -1.
<mgrwt>
<rscale>  0 0.22907270E+03</rscale>
<asrwt>0</asrwt>
<pdfrwt beam="1">  1        5 0.23666971E-01 0.22907392E+03</pdfrwt>
<pdfrwt beam="2">  1       -5 0.52636324E-01 0.22907392E+03</pdfrwt>
<totfact> 0.47733211E+01</totfact>
</mgrwt>
</event>
<event>
 8    1  0.3488953E-007  0.1747992E+03  0.7546771E-02  0.1172936E+00
          5   -1    0    0  501    0  0.00000000000E+00  0.00000000000E+00  0.21470330166E+03  0.21475473858E+03  0.47000000000E+01 0.  1.
         -5   -1    0    0    0  501 -0.00000000000E+00 -0.00000000000E+00 -0.14258841262E+03  0.14266585230E+03  0.47000000000E+01 0.  1.
         25    2    1    2    0    0 -0.60268757123E+02  0.10628775188E+03  0.26687567239E+02  0.17682473838E+03  0.12500141029E+03 0.  0.
         25    2    1    2    0    0  0.60268757123E+02 -0.10628775188E+03  0.45427321801E+02  0.18059585250E+03  0.12498724370E+03 0.  0.
          5    1    4    4  502    0 -0.92113597685E+01  0.14491255932E+02 -0.19841112925E+02  0.26657183073E+02  0.47000000000E+01 0.  1.
         -5    1    4    4    0  502  0.69480116891E+02 -0.12077900782E+03  0.65268434726E+02  0.15393866942E+03  0.47000000000E+01 0.  1.
          5    1    3    3  503    0  0.15431011782E+02  0.29222053355E+02  0.55643202325E+02  0.64886828339E+02  0.47000000000E+01 0. -1.
         -5    1    3    3    0  503 -0.75699768905E+02  0.77065698530E+02 -0.28955635086E+02  0.11193791005E+03  0.47000000000E+01 0. -1.
<mgrwt>
<rscale>  0 0.17479667E+03</rscale>
<asrwt>0</asrwt>
<pdfrwt beam="1">  1        5 0.33041191E-01 0.17479920E+03</pdfrwt>
<pdfrwt beam="2">  1       -5 0.21946593E-01 0.17479920E+03</pdfrwt>
<totfact> 0.13452524E+02</totfact>
</mgrwt>
</event>
<event>
 8    1  0.3488953E-007  0.1261749E+03  0.7546771E-02  0.1233245E+00
          5   -1    0    0  501    0  0.00000000000E+00  0.00000000000E+00  0.24133910073E+02  0.24587305981E+02  0.47000000000E+01 0. -1.
         -5   -1    0    0    0  501 -0.00000000000E+00 -0.00000000000E+00 -0.66065617056E+03  0.66067288857E+03  0.47000000000E+01 0. -1.
         25    2    1    2    0    0  0.16878615085E+02  0.30253813992E+01 -0.28150348288E+03  0.30848646978E+03  0.12500260231E+03 0.  0.
         25    2    1    2    0    0 -0.16878615085E+02 -0.30253813992E+01 -0.35501877761E+03  0.37677372478E+03  0.12500426652E+03 0.  0.
          5    1    3    3  502    0  0.25708093661E+01 -0.50559320949E+02 -0.53572388639E+02  0.73857598256E+02  0.47000000000E+01 0. -1.
         -5    1    3    3    0  502  0.14307805719E+02  0.53584702349E+02 -0.22793109424E+03  0.23462887152E+03  0.47000000000E+01 0. -1.
          5    1    4    4  503    0  0.39011726691E+01 -0.20357594212E+02 -0.56931637573E+00  0.21261818159E+02  0.47000000000E+01 0.  1.
         -5    1    4    4    0  503 -0.20779787754E+02  0.17332212813E+02 -0.35444946123E+03  0.35551190662E+03  0.47000000000E+01 0.  1.
<mgrwt>
<rscale>  0 0.12617450E+03</rscale>
<asrwt>0</asrwt>
<pdfrwt beam="1">  1        5 0.37490724E-02 0.12617491E+03</pdfrwt>
<pdfrwt beam="2">  1       -5 0.10167556E+00 0.12617491E+03</pdfrwt>
<totfact> 0.22456495E+02</totfact>
</mgrwt>
</event>
<event>
 8    1  0.3488953E-007  0.2445103E+03  0.7546771E-02  0.1116824E+00
         -5   -1    0    0    0  501 -0.00000000000E+00  0.00000000000E+00  0.23986494008E+03  0.23991098240E+03  0.47000000000E+01 0. -1.
          5   -1    0    0  501    0  0.00000000000E+00 -0.00000000000E+00 -0.31079602955E+03  0.31083156529E+03  0.47000000000E+01 0. -1.
         25    2    1    2    0    0 -0.81909185478E+00 -0.21013968643E+03  0.87156289027E+02  0.25957949308E+03  0.12500374309E+03 0.  0.
         25    2    1    2    0    0  0.81909185478E+00  0.21013968643E+03 -0.15808737850E+03  0.29116305462E+03  0.12499978563E+03 0.  0.
          5    1    3    3  502    0 -0.46832907458E+02 -0.17562242839E+03  0.42799392166E+02  0.18678981917E+03  0.47000000000E+01 0.  1.
         -5    1    3    3    0  502  0.46013815603E+02 -0.34517258038E+02  0.44356896861E+02  0.72789673910E+02  0.47000000000E+01 0.  1.
          5    1    4    4  503    0 -0.52656398290E+02  0.41367900446E+02 -0.37339237355E+02  0.76813463106E+02  0.47000000000E+01 0.  1.
         -5    1    4    4    0  503  0.53475490145E+02  0.16877178599E+03 -0.12074814114E+03  0.21434959151E+03  0.47000000000E+01 0.  1.
<mgrwt>
<rscale>  0 0.24450981E+03</rscale>
<asrwt>0</asrwt>
<pdfrwt beam="2">  1        5 0.47821049E-01 0.24451032E+03</pdfrwt>
<pdfrwt beam="1">  1       -5 0.36908574E-01 0.24451032E+03</pdfrwt>
<totfact> 0.24713940E+01</totfact>
</mgrwt>
</event>
<event>
 8    1  0.3488953E-007  0.1285662E+03  0.7546771E-02  0.1229600E+00
          5   -1    0    0  501    0  0.00000000000E+00  0.00000000000E+00  0.42898765329E+03  0.42901339918E+03  0.47000000000E+01 0.  1.
         -5   -1    0    0    0  501 -0.00000000000E+00 -0.00000000000E+00 -0.38726710584E+02  0.39010871724E+02  0.47000000000E+01 0.  1.
         25    2    1    2    0    0 -0.30002612914E+02  0.11885475373E+01  0.17244372641E+03  0.21509424393E+03  0.12500850198E+03 0.  0.
         25    2    1    2    0    0  0.30002612914E+02 -0.11885475373E+01  0.21781721630E+03  0.25293002697E+03  0.12501075714E+03 0.  0.
          5    1    3    3  502    0  0.23425132699E+02 -0.30381489321E+02  0.82773109381E+01  0.39526897319E+02  0.47000000000E+01 0.  1.
         -5    1    3    3    0  502 -0.53427745612E+02  0.31570036859E+02  0.16416641547E+03  0.17556734661E+03  0.47000000000E+01 0.  1.
          5    1    4    4  503    0  0.16972642340E+02  0.51699952553E+02  0.42262645197E+02  0.69059227197E+02  0.47000000000E+01 0.  1.
         -5    1    4    4    0  503  0.13029970574E+02 -0.52888500091E+02  0.17555457110E+03  0.18387079977E+03  0.47000000000E+01 0.  1.
<mgrwt>
<rscale>  0 0.12856562E+03</rscale>
<asrwt>0</asrwt>
<pdfrwt beam="1">  1        5 0.66021940E-01 0.12856617E+03</pdfrwt>
<pdfrwt beam="2">  1       -5 0.59817945E-02 0.12856617E+03</pdfrwt>
<totfact> 0.28479724E+02</totfact>
</mgrwt>
</event>
<event>
 8    1  0.3488953E-007  0.1515944E+03  0.7546771E-02  0.1198532E+00
         -5   -1    0    0    0  501 -0.00000000000E+00  0.00000000000E+00  0.10077952245E+04  0.10078061840E+04  0.47000000000E+01 0.  1.
          5   -1    0    0  501    0  0.00000000000E+00 -0.00000000000E+00 -0.22638315830E+02  0.23121058445E+02  0.47000000000E+01 0.  1.
         25    2    1    2    0    0  0.14326724035E+02  0.84555439897E+02  0.52489393256E+03  0.54634649229E+03  0.12500388697E+03 0.  0.
         25    2    1    2    0    0 -0.14326724035E+02 -0.84555439897E+02  0.46026297606E+03  0.48458075012E+03  0.12498647453E+03 0.  0.
          5    1    4    4  502    0  0.32465389273E+01  0.11360721072E+02  0.27390376911E+03  0.27419877960E+03  0.47000000000E+01 0. -1.
         -5    1    4    4    0  502 -0.17573262962E+02 -0.95916160968E+02  0.18635920695E+03  0.21038197052E+03  0.47000000000E+01 0. -1.
          5    1    3    3  503    0  0.52006533007E+02  0.65511085170E+02  0.17651097834E+03  0.19538320611E+03  0.47000000000E+01 0.  1.
         -5    1    3    3    0  503 -0.37679808972E+02  0.19044354726E+02  0.34838295423E+03  0.35096328618E+03  0.47000000000E+01 0.  1.
<mgrwt>
<rscale>  0 0.15159077E+03</rscale>
<asrwt>0</asrwt>
<pdfrwt beam="2">  1        5 0.35207949E-02 0.15159436E+03</pdfrwt>
<pdfrwt beam="1">  1       -5 0.15508340E+00 0.15159436E+03</pdfrwt>
<totfact> 0.88577090E+01</totfact>
</mgrwt>
</event>
<event>
 8    1  0.3488953E-007  0.1464638E+03  0.7546771E-02  0.1204889E+00
          5   -1    0    0  501    0  0.00000000000E+00  0.00000000000E+00  0.19595395122E+02  0.20151166467E+02  0.47000000000E+01 0.  1.
         -5   -1    0    0    0  501 -0.00000000000E+00 -0.00000000000E+00 -0.10790457814E+04  0.10790560173E+04  0.47000000000E+01 0.  1.
         25    2    1    2    0    0 -0.70426327106E+02  0.29434015470E+02 -0.52163658111E+03  0.54180666535E+03  0.12499404405E+03 0.  0.
         25    2    1    2    0    0  0.70426327106E+02 -0.29434015470E+02 -0.53781380519E+03  0.55740051839E+03  0.12500168011E+03 0.  0.
          5    1    4    4  502    0 -0.23920323874E+02 -0.44242753681E+02 -0.16843785465E+03  0.17584937881E+03  0.47000000000E+01 0.  1.
         -5    1    4    4    0  502  0.94346650979E+02  0.14808738211E+02 -0.36937595053E+03  0.38155113958E+03  0.47000000000E+01 0.  1.
          5    1    3    3  503    0 -0.45353929707E+02  0.60893305844E+02 -0.15215997166E+03  0.17011678521E+03  0.47000000000E+01 0.  1.
         -5    1    3    3    0  503 -0.25072397398E+02 -0.31459290375E+02 -0.36947660946E+03  0.37168988014E+03  0.47000000000E+01 0.  1.
<mgrwt>
<rscale>  0 0.14646218E+03</rscale>
<asrwt>0</asrwt>
<pdfrwt beam="1">  1        5 0.30582160E-02 0.14646381E+03</pdfrwt>
<pdfrwt beam="2">  1       -5 0.16605054E+00 0.14646381E+03</pdfrwt>
<totfact> 0.90952914E+01</totfact>
</mgrwt>
</event>
<event>
 8    1  0.3488953E-007  0.1291553E+03  0.7546771E-02  0.1228724E+00
          5   -1    0    0  501    0  0.00000000000E+00  0.00000000000E+00  0.69376172351E+03  0.69377764378E+03  0.47000000000E+01 0. -1.
         -5   -1    0    0    0  501 -0.00000000000E+00 -0.00000000000E+00 -0.23812135609E+02  0.24271543054E+02  0.47000000000E+01 0. -1.
         25    2    1    2    0    0 -0.10367215697E+02 -0.30789647117E+02  0.34489483250E+03  0.36827542945E+03  0.12497545729E+03 0.  0.
         25    2    1    2    0    0  0.10367215697E+02  0.30789647117E+02  0.32505475541E+03  0.34977375738E+03  0.12500242322E+03 0.  0.
          5    1    4    4  502    0  0.19749196015E+01 -0.23063950732E+02  0.27377303887E+03  0.27479012526E+03  0.47000000000E+01 0. -1.
         -5    1    4    4    0  502  0.83922960951E+01  0.53853597849E+02  0.51281716542E+02  0.74983632124E+02  0.47000000000E+01 0. -1.
          5    1    3    3  503    0 -0.27039240057E+02 -0.59648985303E+01  0.33536660765E+03  0.33654056523E+03  0.47000000000E+01 0.  1.
         -5    1    3    3    0  503  0.16672024361E+02 -0.24824748587E+02  0.95282248489E+01  0.31734864226E+02  0.47000000000E+01 0.  1.
<mgrwt>
<rscale>  0 0.12914876E+03</rscale>
<asrwt>0</asrwt>
<pdfrwt beam="1">  1        5 0.10676914E+00 0.12915528E+03</pdfrwt>
<pdfrwt beam="2">  1       -5 0.36999689E-02 0.12915528E+03</pdfrwt>
<totfact> 0.20514998E+02</totfact>
</mgrwt>
</event>
<event>
 8    1  0.3488953E-007  0.1273772E+03  0.7546771E-02  0.1231402E+00
          5   -1    0    0  501    0  0.00000000000E+00  0.00000000000E+00  0.42762707236E+03  0.42765290016E+03  0.47000000000E+01 0. -1.
         -5   -1    0    0    0  501 -0.00000000000E+00 -0.00000000000E+00 -0.38018331137E+02  0.38307747290E+02  0.47000000000E+01 0. -1.
         25    2    1    2    0    0 -0.13794254085E+02 -0.20227358893E+02  0.17597864481E+03  0.21724047669E+03  0.12500205514E+03 0.  0.
         25    2    1    2    0    0  0.13794254085E+02  0.20227358893E+02  0.21363009641E+03  0.24872017076E+03  0.12499791100E+03 0.  0.
          5    1    3    3  502    0 -0.35754161861E+02 -0.61290837493E+02  0.14386004147E+03  0.16047656646E+03  0.47000000000E+01 0. -1.
         -5    1    3    3    0  502  0.21959907776E+02  0.41063478600E+02  0.32118603342E+02  0.56763910233E+02  0.47000000000E+01 0. -1.
          5    1    4    4  503    0 -0.10009305635E+02  0.41012337353E+01 -0.14526331210E+02  0.18711243033E+02  0.47000000000E+01 0.  1.
         -5    1    4    4    0  503  0.23803559720E+02  0.16126125158E+02  0.22815642762E+03  0.23000892772E+03  0.47000000000E+01 0.  1.
<mgrwt>
<rscale>  0 0.12737614E+03</rscale>
<asrwt>0</asrwt>
<pdfrwt beam="1">  1        5 0.65813032E-01 0.12737716E+03</pdfrwt>
<pdfrwt beam="2">  1       -5 0.58732234E-02 0.12737716E+03</pdfrwt>
<totfact> 0.29476264E+02</totfact>
</mgrwt>
</event>
<event>
 8    1  0.3488953E-007  0.1497466E+03  0.7546771E-02  0.1200785E+00
         -5   -1    0    0    0  501 -0.00000000000E+00  0.00000000000E+00  0.11504849848E+04  0.11504945850E+04  0.47000000000E+01 0.  1.
          5   -1    0    0  501    0  0.00000000000E+00 -0.00000000000E+00 -0.20093122790E+02  0.20635493294E+02  0.47000000000E+01 0.  1.
         25    2    1    2    0    0  0.74330264905E+01 -0.82118079993E+02  0.68711842099E+03  0.70324658253E+03  0.12500160973E+03 0.  0.
         25    2    1    2    0    0 -0.74330264905E+01  0.82118079993E+02  0.44327344100E+03  0.46788349580E+03  0.12499997281E+03 0.  0.
          5    1    4    4  502    0  0.43730681011E+02  0.75404012915E+02  0.18629281209E+03  0.20573098809E+03  0.47000000000E+01 0. -1.
         -5    1    4    4    0  502 -0.51163707501E+02  0.67140670781E+01  0.25698062891E+03  0.26215250771E+03  0.47000000000E+01 0. -1.
          5    1    3    3  503    0  0.61596750255E+02 -0.59766323678E+02  0.49250025825E+03  0.49994476441E+03  0.47000000000E+01 0. -1.
         -5    1    3    3    0  503 -0.54163723765E+02 -0.22351756316E+02  0.19461816274E+03  0.20330181812E+03  0.47000000000E+01 0. -1.
<mgrwt>
<rscale>  0 0.14974622E+03</rscale>
<asrwt>0</asrwt>
<pdfrwt beam="2">  1        5 0.31337080E-02 0.14974656E+03</pdfrwt>
<pdfrwt beam="1">  1       -5 0.17704020E+00 0.14974656E+03</pdfrwt>
<totfact> 0.73141971E+01</totfact>
</mgrwt>
</event>
<event>
 8    1  0.3488953E-007  0.1659505E+03  0.7546771E-02  0.1182139E+00
          5   -1    0    0  501    0  0.00000000000E+00  0.00000000000E+00  0.32943782011E+02  0.33277361271E+02  0.47000000000E+01 0.  1.
         -5   -1    0    0    0  501 -0.00000000000E+00 -0.00000000000E+00 -0.84450354924E+03  0.84451662783E+03  0.47000000000E+01 0.  1.
         25    2    1    2    0    0  0.10911183725E+03 -0.30583567744E+01 -0.46048189278E+03  0.48947230355E+03  0.12499926315E+03 0.  0.
         25    2    1    2    0    0 -0.10911183725E+03  0.30583567744E+01 -0.35107787445E+03  0.38832168555E+03  0.12499324369E+03 0.  0.
          5    1    4    4  502    0 -0.41170114052E+02  0.18794378637E+02 -0.29560384879E+03  0.29908515907E+03  0.47000000000E+01 0. -1.
         -5    1    4    4    0  502 -0.67941723195E+02 -0.15736021863E+02 -0.55474025659E+02  0.89236526477E+02  0.47000000000E+01 0. -1.
          5    1    3    3  503    0 -0.12432315077E+02 -0.37014441927E+02 -0.96575150128E+02  0.10427598473E+03  0.47000000000E+01 0. -1.
         -5    1    3    3    0  503  0.12154415232E+03  0.33956085153E+02 -0.36390674266E+03  0.38519631882E+03  0.47000000000E+01 0. -1.
<mgrwt>
<rscale>  0 0.16594935E+03</rscale>
<asrwt>0</asrwt>
<pdfrwt beam="1">  1        5 0.50949408E-02 0.16595048E+03</pdfrwt>
<pdfrwt beam="2">  1       -5 0.12995027E+00 0.16595048E+03</pdfrwt>
<totfact> 0.79536885E+01</totfact>
</mgrwt>
</event>
<event>
 8    1  0.3488953E-007  0.1345148E+03  0.7546771E-02  0.1220906E+00
          5   -1    0    0  501    0  0.00000000000E+00  0.00000000000E+00  0.43629200504E+03  0.43631731992E+03  0.47000000000E+01 0.  1.
         -5   -1    0    0    0  501 -0.00000000000E+00 -0.00000000000E+00 -0.44947768963E+02  0.45192830568E+02  0.47000000000E+01 0.  1.
         25    2    1    2    0    0 -0.39618858573E+02 -0.30009141220E+02  0.12742123865E+03  0.18528464817E+03  0.12499610505E+03 0.  0.
         25    2    1    2    0    0  0.39618858573E+02  0.30009141220E+02  0.26392299743E+03  0.29622550232E+03  0.12499598849E+03 0.  0.
          5    1    4    4  502    0  0.59526612669E+02  0.87554085005E+01  0.25946671363E+03  0.26639283075E+03  0.47000000000E+01 0.  1.
         -5    1    4    4    0  502 -0.19907754095E+02  0.21253732719E+02  0.44562838042E+01  0.29832671569E+02  0.47000000000E+01 0.  1.
          5    1    3    3  503    0 -0.12126588459E+02 -0.26976125436E+02  0.14767577653E+03  0.15068175226E+03  0.47000000000E+01 0. -1.
         -5    1    3    3    0  503 -0.27492270114E+02 -0.30330157834E+01 -0.20254537879E+02  0.34602895912E+02  0.47000000000E+01 0. -1.
<mgrwt>
<rscale>  0 0.13451476E+03</rscale>
<asrwt>0</asrwt>
<pdfrwt beam="1">  1        5 0.67142645E-01 0.13451479E+03</pdfrwt>
<pdfrwt beam="2">  1       -5 0.69358396E-02 0.13451479E+03</pdfrwt>
<totfact> 0.21713031E+02</totfact>
</mgrwt>
</event>
<event>
 8    1  0.3488953E-007  0.1342696E+03  0.7546771E-02  0.1221280E+00
         -5   -1    0    0    0  501 -0.00000000000E+00  0.00000000000E+00  0.44493202090E+03  0.44495684423E+03  0.47000000000E+01 0. -1.
          5   -1    0    0  501    0  0.00000000000E+00 -0.00000000000E+00 -0.44842230287E+02  0.45087865520E+02  0.47000000000E+01 0. -1.
         25    2    1    2    0    0  0.50394367125E+00  0.48815757357E+02  0.27743209435E+03  0.30818424436E+03  0.12500291744E+03 0.  0.
         25    2    1    2    0    0 -0.50394367125E+00 -0.48815757357E+02  0.12265769626E+03  0.18186046539E+03  0.12508031937E+03 0.  0.
          5    1    4    4  502    0  0.28331525504E+02 -0.59472824781E+02  0.13348578880E+03  0.14893031269E+03  0.47000000000E+01 0.  1.
         -5    1    4    4    0  502 -0.28835469176E+02  0.10657067424E+02 -0.10828092542E+02  0.32930152699E+02  0.47000000000E+01 0.  1.
          5    1    3    3  503    0  0.25701466070E+01 -0.27936989974E+02  0.10390875854E+02  0.30284341885E+02  0.47000000000E+01 0. -1.
         -5    1    3    3    0  503 -0.20662029357E+01  0.76752747331E+02  0.26704121850E+03  0.27789990247E+03  0.47000000000E+01 0. -1.
<mgrwt>
<rscale>  0 0.13425154E+03</rscale>
<asrwt>0</asrwt>
<pdfrwt beam="2">  1        5 0.69196090E-02 0.13426957E+03</pdfrwt>
<pdfrwt beam="1">  1       -5 0.68471886E-01 0.13426957E+03</pdfrwt>
<totfact> 0.20851086E+02</totfact>
</mgrwt>
</event>
<event>
 8    1  0.3488953E-007  0.1271226E+03  0.7546771E-02  0.1231792E+00
          5   -1    0    0  501    0  0.00000000000E+00  0.00000000000E+00  0.54752310629E+02  0.54953667022E+02  0.47000000000E+01 0.  1.
         -5   -1    0    0    0  501 -0.00000000000E+00 -0.00000000000E+00 -0.32530029960E+03  0.32533425107E+03  0.47000000000E+01 0.  1.
         25    2    1    2    0    0 -0.21830261196E+02  0.76411436972E+01 -0.19388204078E+03  0.23183654058E+03  0.12499195346E+03 0.  0.
         25    2    1    2    0    0  0.21830261196E+02 -0.76411436972E+01 -0.76665948192E+02  0.14845137752E+03  0.12500078597E+03 0.  0.
          5    1    4    4  502    0  0.31429433031E+02  0.32119261484E+01 -0.10853059085E+03  0.11313312902E+03  0.47000000000E+01 0.  1.
         -5    1    4    4    0  502 -0.95991718348E+01 -0.10853069846E+02  0.31864642662E+02  0.35318248498E+02  0.47000000000E+01 0.  1.
          5    1    3    3  503    0  0.40060083111E+02  0.30031368423E+02 -0.39502532394E+02  0.63947114195E+02  0.47000000000E+01 0.  1.
         -5    1    3    3    0  503 -0.61890344307E+02 -0.22390224726E+02 -0.15437950838E+03  0.16788942638E+03  0.47000000000E+01 0.  1.
<mgrwt>
<rscale>  0 0.12712038E+03</rscale>
<asrwt>0</asrwt>
<pdfrwt beam="1">  1        5 0.84415331E-02 0.12712255E+03</pdfrwt>
<pdfrwt beam="2">  1       -5 0.50064300E-01 0.12712255E+03</pdfrwt>
<totfact> 0.28798772E+02</totfact>
</mgrwt>
</event>
<event>
 8    1  0.3488953E-007  0.1266253E+03  0.7546771E-02  0.1232555E+00
          5   -1    0    0  501    0  0.00000000000E+00  0.00000000000E+00  0.27344362326E+03  0.27348401251E+03  0.47000000000E+01 0. -1.
         -5   -1    0    0    0  501 -0.00000000000E+00 -0.00000000000E+00 -0.72983787064E+02  0.73134965469E+02  0.47000000000E+01 0. -1.
         25    2    1    2    0    0 -0.18710503081E+02  0.76477798304E+01  0.23111830245E+02  0.12870553159E+03  0.12498954237E+03 0.  0.
         25    2    1    2    0    0  0.18710503081E+02 -0.76477798304E+01  0.17734800595E+03  0.21791344639E+03  0.12500153376E+03 0.  0.
          5    1    4    4  502    0 -0.20486827329E+02  0.49463632051E+01  0.17508699965E+03  0.17641350303E+03  0.47000000000E+01 0.  1.
         -5    1    4    4    0  502  0.39197330409E+02 -0.12594143035E+02  0.22610062987E+01  0.41499943367E+02  0.47000000000E+01 0.  1.
          5    1    3    3  503    0 -0.47073357539E+02 -0.41163908823E+02 -0.93688675980E+01  0.63405315705E+02  0.47000000000E+01 0.  1.
         -5    1    3    3    0  503  0.28362854459E+02  0.48811688653E+02  0.32480697843E+02  0.65300215884E+02  0.47000000000E+01 0.  1.
<mgrwt>
<rscale>  0 0.12662229E+03</rscale>
<asrwt>0</asrwt>
<pdfrwt beam="1">  1        5 0.42082985E-01 0.12662525E+03</pdfrwt>
<pdfrwt beam="2">  1       -5 0.11243011E-01 0.12662525E+03</pdfrwt>
<totfact> 0.25102052E+02</totfact>
</mgrwt>
</event>
<event>
 8    1  0.3488953E-007  0.1350379E+03  0.7546771E-02  0.1220178E+00
         -5   -1    0    0    0  501 -0.00000000000E+00  0.00000000000E+00  0.81251903090E+02  0.81387724847E+02  0.47000000000E+01 0.  1.
          5   -1    0    0  501    0  0.00000000000E+00 -0.00000000000E+00 -0.22921304065E+03  0.22926122220E+03  0.47000000000E+01 0.  1.
         25    2    1    2    0    0  0.47309966705E+02 -0.19294385969E+02 -0.50618311127E+02  0.14418315214E+03  0.12496424153E+03 0.  0.
         25    2    1    2    0    0 -0.47309966705E+02  0.19294385969E+02 -0.97342826438E+02  0.16646579491E+03  0.12499891494E+03 0.  0.
          5    1    3    3  502    0  0.83420257931E+02 -0.22354074605E+02 -0.62694690020E+01  0.86718166068E+02  0.47000000000E+01 0.  1.
         -5    1    3    3    0  502 -0.36110291225E+02  0.30596886357E+01 -0.44348842125E+02  0.57464986076E+02  0.47000000000E+01 0.  1.
          5    1    4    4  503    0 -0.55952635518E+02 -0.21657655823E+01  0.95498952455E+01  0.56997179414E+02  0.47000000000E+01 0. -1.
         -5    1    4    4    0  503  0.86426688124E+01  0.21460151552E+02 -0.10689272168E+03  0.10946861549E+03  0.47000000000E+01 0. -1.
<mgrwt>
<rscale>  0 0.13502988E+03</rscale>
<asrwt>0</asrwt>
<pdfrwt beam="2">  1        5 0.35277699E-01 0.13503790E+03</pdfrwt>
<pdfrwt beam="1">  1       -5 0.12514447E-01 0.13503790E+03</pdfrwt>
<totfact> 0.30409139E+02</totfact>
</mgrwt>
</event>
<event>
 8    1  0.3488953E-007  0.1396364E+03  0.7546771E-02  0.1213821E+00
         -5   -1    0    0    0  501 -0.00000000000E+00  0.00000000000E+00  0.14410429321E+03  0.14418091872E+03  0.47000000000E+01 0.  1.
          5   -1    0    0  501    0  0.00000000000E+00 -0.00000000000E+00 -0.22943704284E+03  0.22948517736E+03  0.47000000000E+01 0.  1.
         25    2    1    2    0    0  0.50904419635E+02  0.35815637820E+02  0.77066901405E+02  0.15949177623E+03  0.12499719813E+03 0.  0.
         25    2    1    2    0    0 -0.50904419635E+02 -0.35815637820E+02 -0.16239965103E+03  0.21417431984E+03  0.12499189084E+03 0.  0.
          5    1    3    3  502    0  0.69886768535E+02  0.92961689651E+01 -0.52216015426E+01  0.70851494666E+02  0.47000000000E+01 0.  1.
         -5    1    3    3    0  502 -0.18982348901E+02  0.26519468855E+02  0.82288502948E+02  0.88640281563E+02  0.47000000000E+01 0.  1.
          5    1    4    4  503    0 -0.56861897048E+02 -0.77940621406E+02 -0.10668181166E+03  0.14391356691E+03  0.47000000000E+01 0. -1.
         -5    1    4    4    0  503  0.59574774136E+01  0.42124983586E+02 -0.55717839373E+02  0.70260752940E+02  0.47000000000E+01 0. -1.
<mgrwt>
<rscale>  0 0.13963520E+03</rscale>
<asrwt>0</asrwt>
<pdfrwt beam="2">  1        5 0.35307603E-01 0.13963638E+03</pdfrwt>
<pdfrwt beam="1">  1       -5 0.22179488E-01 0.13963638E+03</pdfrwt>
<totfact> 0.10765507E+02</totfact>
</mgrwt>
</event>
<event>
 8    1  0.3488953E-007  0.1696056E+03  0.7546771E-02  0.1178261E+00
         -5   -1    0    0    0  501 -0.00000000000E+00  0.00000000000E+00  0.30065262740E+03  0.30068936191E+03  0.47000000000E+01 0. -1.
          5   -1    0    0  501    0  0.00000000000E+00 -0.00000000000E+00 -0.10652250408E+03  0.10662614068E+03  0.47000000000E+01 0. -1.
         25    2    1    2    0    0 -0.15523195413E+02 -0.11357320564E+03  0.16230444694E+03  0.23474976933E+03  0.12499951227E+03 0.  0.
         25    2    1    2    0    0  0.15523195413E+02  0.11357320564E+03  0.31825676380E+02  0.17256573326E+03  0.12500486384E+03 0.  0.
          5    1    3    3  502    0 -0.69599688209E+02 -0.71773094093E+02  0.10870125635E+03  0.14776179062E+03  0.47000000000E+01 0.  1.
         -5    1    3    3    0  502  0.54076492796E+02 -0.41800111544E+02  0.53603190590E+02  0.86987978707E+02  0.47000000000E+01 0.  1.
          5    1    4    4  503    0  0.48304708966E+02  0.12436170370E+03  0.16495798031E+02  0.13451163373E+03  0.47000000000E+01 0.  1.
         -5    1    4    4    0  503 -0.32781513553E+02 -0.10788498062E+02  0.15329878349E+02  0.38054099535E+02  0.47000000000E+01 0.  1.
<mgrwt>
<rscale>  0 0.16960461E+03</rscale>
<asrwt>0</asrwt>
<pdfrwt beam="2">  1        5 0.16398875E-01 0.16960560E+03</pdfrwt>
<pdfrwt beam="1">  1       -5 0.46265048E-01 0.16960560E+03</pdfrwt>
<totfact> 0.11518149E+02</totfact>
</mgrwt>
</event>
<event>
 8    1  0.3488953E-007  0.1401268E+03  0.7546771E-02  0.1213163E+00
         -5   -1    0    0    0  501 -0.00000000000E+00  0.00000000000E+00  0.27199322211E+02  0.27602411647E+02  0.47000000000E+01 0. -1.
          5   -1    0    0  501    0  0.00000000000E+00 -0.00000000000E+00 -0.78418234939E+03  0.78419643400E+03  0.47000000000E+01 0. -1.
         25    2    1    2    0    0 -0.22057105841E+02  0.59330142202E+02 -0.25896002823E+03  0.29444152510E+03  0.12501573417E+03 0.  0.
         25    2    1    2    0    0  0.22057105841E+02 -0.59330142202E+02 -0.49802299895E+03  0.51735732054E+03  0.12500043178E+03 0.  0.
          5    1    4    4  502    0  0.33122571330E+02 -0.54239526272E+02 -0.96628409610E+02  0.11575046646E+03  0.47000000000E+01 0. -1.
         -5    1    4    4    0  502 -0.11065465489E+02 -0.50906159300E+01 -0.40139458934E+03  0.40160685408E+03  0.47000000000E+01 0. -1.
          5    1    3    3  503    0 -0.20998340686E+01 -0.37887289889E+02 -0.99112137254E+02  0.10623164213E+03  0.47000000000E+01 0. -1.
         -5    1    3    3    0  503 -0.19957271773E+02  0.97217432091E+02 -0.15984789098E+03  0.18820988297E+03  0.47000000000E+01 0. -1.
<mgrwt>
<rscale>  0 0.14012337E+03</rscale>
<asrwt>0</asrwt>
<pdfrwt beam="2">  1        5 0.12067551E+00 0.14012678E+03</pdfrwt>
<pdfrwt beam="1">  1       -5 0.42166020E-02 0.14012678E+03</pdfrwt>
<totfact> 0.12520967E+02</totfact>
</mgrwt>
</event>
<event>
 8    1  0.3488953E-007  0.1280299E+03  0.7546771E-02  0.1230414E+00
         -5   -1    0    0    0  501 -0.00000000000E+00  0.00000000000E+00  0.47780511033E+03  0.47782822589E+03  0.47000000000E+01 0. -1.
          5   -1    0    0  501    0  0.00000000000E+00 -0.00000000000E+00 -0.64085627563E+02  0.64257743970E+02  0.47000000000E+01 0. -1.
         25    2    1    2    0    0  0.27166446528E+02  0.50006782788E+01  0.39182447102E+03  0.41221120418E+03  0.12501455178E+03 0.  0.
         25    2    1    2    0    0 -0.27166446528E+02 -0.50006782788E+01  0.21895011750E+02  0.12987476569E+03  0.12500016249E+03 0.  0.
          5    1    3    3  502    0 -0.16340292282E+02 -0.52784789577E+02  0.17749546144E+03  0.18595689822E+03  0.47000000000E+01 0.  1.
         -5    1    3    3    0  502  0.43506738810E+02  0.57785467855E+02  0.21432900958E+03  0.22625430596E+03  0.47000000000E+01 0.  1.
          5    1    4    4  503    0  0.37213751350E+02 -0.12499596237E+02 -0.27573887676E+02  0.48202826444E+02  0.47000000000E+01 0.  1.
         -5    1    4    4    0  503 -0.64380197879E+02  0.74989179583E+01  0.49468899425E+02  0.81671939244E+02  0.47000000000E+01 0.  1.
<mgrwt>
<rscale>  0 0.12802641E+03</rscale>
<asrwt>0</asrwt>
<pdfrwt beam="2">  1        5 0.98743455E-02 0.12802992E+03</pdfrwt>
<pdfrwt beam="1">  1       -5 0.73523494E-01 0.12802992E+03</pdfrwt>
<totfact> 0.94848049E+01</totfact>
</mgrwt>
</event>
<event>
 8    1  0.3488953E-007  0.1387195E+03  0.7546771E-02  0.1215079E+00
         -5   -1    0    0    0  501 -0.00000000000E+00  0.00000000000E+00  0.37372384406E+03  0.37375339679E+03  0.47000000000E+01 0.  1.
          5   -1    0    0  501    0  0.00000000000E+00 -0.00000000000E+00 -0.54737803351E+02  0.54939212915E+02  0.47000000000E+01 0.  1.
         25    2    1    2    0    0 -0.58669195361E+02  0.12722919895E+02  0.21281078669E+03  0.25400349881E+03  0.12500159720E+03 0.  0.
         25    2    1    2    0    0  0.58669195361E+02 -0.12722919895E+02  0.10617525402E+03  0.17468911090E+03  0.12505660209E+03 0.  0.
          5    1    3    3  502    0  0.28348043026E+02  0.27921464849E+02  0.27304697359E+02  0.48485629217E+02  0.47000000000E+01 0.  1.
         -5    1    3    3    0  502 -0.87017238387E+02 -0.15198544953E+02  0.18550608933E+03  0.20551786959E+03  0.47000000000E+01 0.  1.
          5    1    4    4  503    0  0.49224052756E+02 -0.65263608065E+02  0.45261518695E+02  0.93557687989E+02  0.47000000000E+01 0.  1.
         -5    1    4    4    0  503  0.94451426046E+01  0.52540688169E+02  0.60913735324E+02  0.81131422909E+02  0.47000000000E+01 0.  1.
<mgrwt>
<rscale>  0 0.13870711E+03</rscale>
<asrwt>0</asrwt>
<pdfrwt beam="2">  1        5 0.84389669E-02 0.13871950E+03</pdfrwt>
<pdfrwt beam="1">  1       -5 0.57513742E-01 0.13871950E+03</pdfrwt>
<totfact> 0.22064139E+02</totfact>
</mgrwt>
</event>
<event>
 8    1  0.3488953E-007  0.1472459E+03  0.7546771E-02  0.1203899E+00
          5   -1    0    0  501    0  0.00000000000E+00  0.00000000000E+00  0.14995081195E+03  0.15002445136E+03  0.47000000000E+01 0.  1.
         -5   -1    0    0    0  501 -0.00000000000E+00 -0.00000000000E+00 -0.14445728208E+03  0.14453372044E+03  0.47000000000E+01 0.  1.
         25    2    1    2    0    0 -0.47862023562E+02 -0.61360696846E+02  0.42628068222E+01  0.14730757496E+03  0.12500176679E+03 0.  0.
         25    2    1    2    0    0  0.47862023562E+02  0.61360696846E+02  0.12307230534E+01  0.14725059685E+03  0.12500126070E+03 0.  0.
          5    1    3    3  502    0 -0.34323927775E+02  0.28280942143E+02 -0.25860313086E+02  0.51660328099E+02  0.47000000000E+01 0. -1.
         -5    1    3    3    0  502 -0.13538095787E+02 -0.89641638989E+02  0.30123119908E+02  0.95647246856E+02  0.47000000000E+01 0. -1.
          5    1    4    4  503    0  0.52054978067E+02 -0.33180395193E+01 -0.43730051197E+02  0.68228568104E+02  0.47000000000E+01 0.  1.
         -5    1    4    4    0  503 -0.41929545056E+01  0.64678736366E+02  0.44960774250E+02  0.79022028742E+02  0.47000000000E+01 0.  1.
<mgrwt>
<rscale>  0 0.14724578E+03</rscale>
<asrwt>0</asrwt>
<pdfrwt beam="1">  1        5 0.23080900E-01 0.14724588E+03</pdfrwt>
<pdfrwt beam="2">  1       -5 0.22235742E-01 0.14724588E+03</pdfrwt>
<totfact> 0.24994973E+02</totfact>
</mgrwt>
</event>
<event>
 8    1  0.3488953E-007  0.1394829E+03  0.7546771E-02  0.1214029E+00
         -5   -1    0    0    0  501 -0.00000000000E+00  0.00000000000E+00  0.33317061966E+02  0.33646940693E+02  0.47000000000E+01 0.  1.
          5   -1    0    0  501    0  0.00000000000E+00 -0.00000000000E+00 -0.68097091295E+03  0.68098713225E+03  0.47000000000E+01 0.  1.
         25    2    1    2    0    0 -0.34372449663E+02 -0.51477473212E+02 -0.18675899689E+03  0.23309739788E+03  0.12499631370E+03 0.  0.
         25    2    1    2    0    0  0.34372449663E+02  0.51477473212E+02 -0.46089485410E+03  0.48153667505E+03  0.12498842884E+03 0.  0.
          5    1    4    4  502    0 -0.33598477426E+02  0.33882902898E+02 -0.73187580562E+02  0.87495261259E+02  0.47000000000E+01 0. -1.
         -5    1    4    4    0  502  0.67970927089E+02  0.17594570314E+02 -0.38770727354E+03  0.39404141380E+03  0.47000000000E+01 0. -1.
          5    1    3    3  503    0  0.14808562554E+02 -0.11990899310E+02 -0.16507492113E+03  0.16623746502E+03  0.47000000000E+01 0.  1.
         -5    1    3    3    0  503 -0.49181012217E+02 -0.39486573903E+02 -0.21684075761E+02  0.66859932866E+02  0.47000000000E+01 0.  1.
<mgrwt>
<rscale>  0 0.13948111E+03</rscale>
<asrwt>0</asrwt>
<pdfrwt beam="2">  1        5 0.10479137E+00 0.13948288E+03</pdfrwt>
<pdfrwt beam="1">  1       -5 0.51523253E-02 0.13948288E+03</pdfrwt>
<totfact> 0.12773938E+02</totfact>
</mgrwt>
</event>
<event>
 8    1  0.3488953E-007  0.1506131E+03  0.7546771E-02  0.1199723E+00
          5   -1    0    0  501    0  0.00000000000E+00  0.00000000000E+00  0.33511311485E+02  0.33839296645E+02  0.47000000000E+01 0.  1.
         -5   -1    0    0    0  501 -0.00000000000E+00 -0.00000000000E+00 -0.69037564521E+03  0.69039164356E+03  0.47000000000E+01 0.  1.
         25    2    1    2    0    0  0.48376665197E+02  0.68694200678E+02 -0.38542220345E+03  0.41380500573E+03  0.12500045165E+03 0.  0.
         25    2    1    2    0    0 -0.48376665197E+02 -0.68694200678E+02 -0.27144213027E+03  0.31042593447E+03  0.12499694302E+03 0.  0.
          5    1    4    4  502    0  0.10159472561E+02 -0.17612826522E+02 -0.21060942567E+03  0.21164084370E+03  0.47000000000E+01 0.  1.
         -5    1    4    4    0  502 -0.58536137758E+02 -0.51081374156E+02 -0.60832704598E+02  0.98785090768E+02  0.47000000000E+01 0.  1.
          5    1    3    3  503    0  0.80422530447E+01  0.81960939530E+02 -0.34592595603E+03  0.35562498576E+03  0.47000000000E+01 0.  1.
         -5    1    3    3    0  503  0.40334412152E+02 -0.13266738852E+02 -0.39496247421E+02  0.58180019971E+02  0.47000000000E+01 0.  1.
<mgrwt>
<rscale>  0 0.15061238E+03</rscale>
<asrwt>0</asrwt>
<pdfrwt beam="1">  1        5 0.51820472E-02 0.15061311E+03</pdfrwt>
<pdfrwt beam="2">  1       -5 0.10623809E+00 0.15061311E+03</pdfrwt>
<totfact> 0.12531661E+02</totfact>
</mgrwt>
</event>
<event>
 8    1  0.3488953E-007  0.1565969E+03  0.7546771E-02  0.1192595E+00
         -5   -1    0    0    0  501 -0.00000000000E+00  0.00000000000E+00  0.11481700715E+03  0.11491316343E+03  0.47000000000E+01 0. -1.
          5   -1    0    0  501    0  0.00000000000E+00 -0.00000000000E+00 -0.34016804640E+03  0.34020051409E+03  0.47000000000E+01 0. -1.
         25    2    1    2    0    0 -0.89668971730E+02 -0.29303791972E+02  0.26231932715E+02  0.15877879449E+03  0.12499341812E+03 0.  0.
         25    2    1    2    0    0  0.89668971730E+02  0.29303791972E+02 -0.25158297197E+03  0.29633488303E+03  0.12498453665E+03 0.  0.
          5    1    3    3  502    0 -0.23249361104E+02 -0.40872775913E+02 -0.41649058369E+02  0.62990877638E+02  0.47000000000E+01 0.  1.
         -5    1    3    3    0  502 -0.66419610626E+02  0.11568983941E+02  0.67880991084E+02  0.95787916857E+02  0.47000000000E+01 0.  1.
          5    1    4    4  503    0  0.32022097959E+02  0.38262341461E+02 -0.14552043340E+02  0.52184993026E+02  0.47000000000E+01 0. -1.
         -5    1    4    4    0  503  0.57646873771E+02 -0.89585494884E+01 -0.23703092862E+03  0.24414989000E+03  0.47000000000E+01 0. -1.
<mgrwt>
<rscale>  0 0.15659513E+03</rscale>
<asrwt>0</asrwt>
<pdfrwt beam="2">  1        5 0.52343439E-01 0.15659691E+03</pdfrwt>
<pdfrwt beam="1">  1       -5 0.17674049E-01 0.15659691E+03</pdfrwt>
<totfact> 0.75427286E+01</totfact>
</mgrwt>
</event>
<event>
 8    1  0.3488953E-007  0.1279294E+03  0.7546771E-02  0.1230564E+00
         -5   -1    0    0    0  501 -0.00000000000E+00  0.00000000000E+00  0.14875451165E+03  0.14882874298E+03  0.47000000000E+01 0. -1.
          5   -1    0    0  501    0  0.00000000000E+00 -0.00000000000E+00 -0.11897325414E+03  0.11906605394E+03  0.47000000000E+01 0. -1.
         25    2    1    2    0    0  0.15236560635E+02  0.22557298266E+02  0.51933242587E+02  0.13806169857E+03  0.12499194551E+03 0.  0.
         25    2    1    2    0    0 -0.15236560635E+02 -0.22557298266E+02 -0.22151985075E+02  0.12983309835E+03  0.12499975400E+03 0.  0.
          5    1    4    4  502    0  0.36197068328E+02  0.92538244076E+01  0.31314091714E+02  0.48974721659E+02  0.47000000000E+01 0.  1.
         -5    1    4    4    0  502 -0.51433628963E+02 -0.31811122674E+02 -0.53466076789E+02  0.80858376692E+02  0.47000000000E+01 0.  1.
          5    1    3    3  503    0 -0.14924270694E+01  0.12461434973E+02  0.92141409632E+02  0.93110923468E+02  0.47000000000E+01 0.  1.
         -5    1    3    3    0  503  0.16728987704E+02  0.10095863293E+02 -0.40208167045E+02  0.44950775103E+02  0.47000000000E+01 0.  1.
<mgrwt>
<rscale>  0 0.12792746E+03</rscale>
<asrwt>0</asrwt>
<pdfrwt beam="2">  1        5 0.18316426E-01 0.12792937E+03</pdfrwt>
<pdfrwt beam="1">  1       -5 0.22898158E-01 0.12792937E+03</pdfrwt>
<totfact> 0.34716523E+02</totfact>
</mgrwt>
</event>
<event>
 8    1  0.3488953E-007  0.2151578E+03  0.7546771E-02  0.1137546E+00
         -5   -1    0    0    0  501 -0.00000000000E+00  0.00000000000E+00  0.69637137914E+03  0.69638723975E+03  0.47000000000E+01 0. -1.
          5   -1    0    0  501    0  0.00000000000E+00 -0.00000000000E+00 -0.69067483315E+02  0.69227214673E+02  0.47000000000E+01 0. -1.
         25    2    1    2    0    0  0.66377859029E+02  0.16205406192E+03  0.38910212211E+03  0.44462694591E+03  0.12500048180E+03 0.  0.
         25    2    1    2    0    0 -0.66377859029E+02 -0.16205406192E+03  0.23820177372E+03  0.32098750851E+03  0.12500142585E+03 0.  0.
          5    1    4    4  502    0 -0.21168840594E+02 -0.80683224616E+02  0.23285142364E+02  0.86730562096E+02  0.47000000000E+01 0. -1.
         -5    1    4    4    0  502 -0.45209018434E+02 -0.81370837300E+02  0.21491663136E+03  0.23425694642E+03  0.47000000000E+01 0. -1.
          5    1    3    3  503    0  0.63618243849E+02  0.12559564758E+02  0.13283814005E+03  0.14789552078E+03  0.47000000000E+01 0. -1.
         -5    1    3    3    0  503  0.27596151792E+01  0.14949449716E+03  0.25626398206E+03  0.29673142513E+03  0.47000000000E+01 0. -1.
<mgrwt>
<rscale>  0 0.21515770E+03</rscale>
<asrwt>0</asrwt>
<pdfrwt beam="2">  1        5 0.10639274E-01 0.21515784E+03</pdfrwt>
<pdfrwt beam="1">  1       -5 0.10714756E+00 0.21515784E+03</pdfrwt>
<totfact> 0.39448409E+01</totfact>
</mgrwt>
</event>
<event>
 8    1  0.3488953E-007  0.1375289E+03  0.7546771E-02  0.1216693E+00
         -5   -1    0    0    0  501 -0.00000000000E+00  0.00000000000E+00  0.24325284397E+03  0.24329824516E+03  0.47000000000E+01 0.  1.
          5   -1    0    0  501    0  0.00000000000E+00 -0.00000000000E+00 -0.78761788510E+02  0.78901896868E+02  0.47000000000E+01 0.  1.
         25    2    1    2    0    0 -0.44913720504E+02 -0.35668218139E+02  0.10152226246E+03  0.17094123542E+03  0.12499868847E+03 0.  0.
         25    2    1    2    0    0  0.44913720504E+02  0.35668218139E+02  0.62968793002E+02  0.15125890661E+03  0.12499889544E+03 0.  0.
          5    1    4    4  502    0 -0.30723128640E+02 -0.12287767065E+02 -0.10813236344E+02  0.35127139551E+02  0.47000000000E+01 0. -1.
         -5    1    4    4    0  502  0.75636849143E+02  0.47955985203E+02  0.73782029346E+02  0.11613176706E+03  0.47000000000E+01 0. -1.
          5    1    3    3  503    0 -0.97998792213E+01 -0.22269834623E+02 -0.27180367962E+02  0.36781049053E+02  0.47000000000E+01 0. -1.
         -5    1    3    3    0  503 -0.35113841282E+02 -0.13398383515E+02  0.12870263042E+03  0.13416018637E+03  0.47000000000E+01 0. -1.
<mgrwt>
<rscale>  0 0.13752882E+03</rscale>
<asrwt>0</asrwt>
<pdfrwt beam="2">  1        5 0.12131468E-01 0.13752886E+03</pdfrwt>
<pdfrwt beam="1">  1       -5 0.37437784E-01 0.13752886E+03</pdfrwt>
<totfact> 0.28686992E+02</totfact>
</mgrwt>
</event>
<event>
 8    1  0.3488953E-007  0.1998613E+03  0.7546771E-02  0.1149856E+00
         -5   -1    0    0    0  501 -0.00000000000E+00  0.00000000000E+00  0.70180948714E+02  0.70338151543E+02  0.47000000000E+01 0. -1.
          5   -1    0    0  501    0  0.00000000000E+00 -0.00000000000E+00 -0.68862400559E+03  0.68864004464E+03  0.47000000000E+01 0. -1.
         25    2    1    2    0    0 -0.45926007042E+02  0.14903267790E+03 -0.15065075300E+03  0.25027966564E+03  0.12499729776E+03 0.  0.
         25    2    1    2    0    0  0.45926007042E+02 -0.14903267790E+03 -0.46779230387E+03  0.50869853054E+03  0.12499847281E+03 0.  0.
          5    1    4    4  502    0  0.39472774331E+02 -0.17044849554E+03 -0.43338264374E+03  0.46738998217E+03  0.47000000000E+01 0.  1.
         -5    1    4    4    0  502  0.64532327107E+01  0.21415817635E+02 -0.34409660139E+02  0.41308548368E+02  0.47000000000E+01 0.  1.
          5    1    3    3  503    0 -0.32447264542E+00  0.13986957423E+03 -0.14764628828E+03  0.20343332943E+03  0.47000000000E+01 0. -1.
         -5    1    3    3    0  503 -0.45601534397E+02  0.91631036716E+01 -0.30044647201E+01  0.46846336212E+02  0.47000000000E+01 0. -1.
<mgrwt>
<rscale>  0 0.19986116E+03</rscale>
<asrwt>0</asrwt>
<pdfrwt beam="2">  1        5 0.10595548E+00 0.19986134E+03</pdfrwt>
<pdfrwt beam="1">  1       -5 0.10810396E-01 0.19986134E+03</pdfrwt>
<totfact> 0.38725095E+01</totfact>
</mgrwt>
</event>
<event>
 8    1  0.3488953E-007  0.1295323E+03  0.7546771E-02  0.1228154E+00
         -5   -1    0    0    0  501 -0.00000000000E+00  0.00000000000E+00  0.29168653907E+03  0.29172440260E+03  0.47000000000E+01 0. -1.
          5   -1    0    0  501    0  0.00000000000E+00 -0.00000000000E+00 -0.57539394722E+02  0.57731031040E+02  0.47000000000E+01 0. -1.
         25    2    1    2    0    0  0.27275890526E+02  0.20226175641E+02  0.12621019000E+03  0.18085250706E+03  0.12500217945E+03 0.  0.
         25    2    1    2    0    0 -0.27275890526E+02 -0.20226175641E+02  0.10793695435E+03  0.16860292658E+03  0.12499395326E+03 0.  0.
          5    1    4    4  502    0 -0.83561502005E+01 -0.27827616273E+02  0.13284836571E+03  0.13606976058E+03  0.47000000000E+01 0.  1.
         -5    1    4    4    0  502 -0.18919740326E+02  0.76014406323E+01 -0.24911411360E+02  0.32533165995E+02  0.47000000000E+01 0.  1.
          5    1    3    3  503    0  0.77354397361E+02  0.93051781343E+01  0.77043614017E+02  0.10967268389E+03  0.47000000000E+01 0.  1.
         -5    1    3    3    0  503 -0.50078506834E+02  0.10920997507E+02  0.49166575980E+02  0.71179823172E+02  0.47000000000E+01 0.  1.
<mgrwt>
<rscale>  0 0.12953032E+03</rscale>
<asrwt>0</asrwt>
<pdfrwt beam="2">  1        5 0.88698683E-02 0.12953230E+03</pdfrwt>
<pdfrwt beam="1">  1       -5 0.44892506E-01 0.12953230E+03</pdfrwt>
<totfact> 0.33471767E+02</totfact>
</mgrwt>
</event>
<event>
 8    1  0.3488953E-007  0.1350820E+03  0.7546771E-02  0.1220105E+00
         -5   -1    0    0    0  501 -0.00000000000E+00  0.00000000000E+00  0.30973809799E+03  0.30977375510E+03  0.47000000000E+01 0. -1.
          5   -1    0    0  501    0  0.00000000000E+00 -0.00000000000E+00 -0.61599770951E+02  0.61778813369E+02  0.47000000000E+01 0. -1.
         25    2    1    2    0    0  0.38124859025E+02  0.34154888219E+02  0.16376819613E+03  0.21229032000E+03  0.12500838627E+03 0.  0.
         25    2    1    2    0    0 -0.38124859025E+02 -0.34154888219E+02  0.84370130910E+02  0.15926224847E+03  0.12500433405E+03 0.  0.
          5    1    4    4  502    0 -0.29724912259E+02 -0.81335907153E+02  0.58371187484E+02  0.10453891969E+03  0.47000000000E+01 0. -1.
         -5    1    4    4    0  502 -0.83999467660E+01  0.47181018935E+02  0.25998943425E+02  0.54723328779E+02  0.47000000000E+01 0. -1.
          5    1    3    3  503    0  0.28980047837E+02 -0.44600993831E+02  0.47392239418E+02  0.71394720956E+02  0.47000000000E+01 0.  1.
         -5    1    3    3    0  503  0.91448111880E+01  0.78755882050E+02  0.11637595671E+03  0.14089559905E+03  0.47000000000E+01 0.  1.
<mgrwt>
<rscale>  0 0.13508110E+03</rscale>
<asrwt>0</asrwt>
<pdfrwt beam="2">  1        5 0.94934030E-02 0.13508204E+03</pdfrwt>
<pdfrwt beam="1">  1       -5 0.47668531E-01 0.13508204E+03</pdfrwt>
<totfact> 0.26640599E+02</totfact>
</mgrwt>
</event>
<event>
 8    1  0.3488953E-007  0.1366552E+03  0.7546771E-02  0.1217903E+00
         -5   -1    0    0    0  501 -0.00000000000E+00  0.00000000000E+00  0.25642939197E+02  0.26070104155E+02  0.47000000000E+01 0. -1.
          5   -1    0    0  501    0  0.00000000000E+00 -0.00000000000E+00 -0.82942116041E+03  0.82943447682E+03  0.47000000000E+01 0. -1.
         25    2    1    2    0    0  0.10851665699E+02 -0.54157754849E+02 -0.24783097157E+03  0.28300829752E+03  0.12499073940E+03 0.  0.
         25    2    1    2    0    0 -0.10851665699E+02  0.54157754849E+02 -0.55594724964E+03  0.57249628345E+03  0.12499531641E+03 0.  0.
          5    1    4    4  502    0  0.42034836734E+01  0.15014248928E+01  0.54169787291E+01  0.84473197082E+01  0.47000000000E+01 0. -1.
         -5    1    4    4    0  502 -0.15055149373E+02  0.52656329956E+02 -0.56136422837E+03  0.56404896375E+03  0.47000000000E+01 0. -1.
          5    1    3    3  503    0  0.66171340448E+02 -0.19672958374E+02 -0.15204482168E+03  0.16704906282E+03  0.47000000000E+01 0. -1.
         -5    1    3    3    0  503 -0.55319674748E+02 -0.34484796475E+02 -0.95786149886E+02  0.11595923470E+03  0.47000000000E+01 0. -1.
<mgrwt>
<rscale>  0 0.13665418E+03</rscale>
<asrwt>0</asrwt>
<pdfrwt beam="2">  1        5 0.12763712E+00 0.13665522E+03</pdfrwt>
<pdfrwt beam="1">  1       -5 0.39789514E-02 0.13665522E+03</pdfrwt>
<totfact> 0.11826238E+02</totfact>
</mgrwt>
</event>
<event>
 8    1  0.3488953E-007  0.1354957E+03  0.7546771E-02  0.1219522E+00
         -5   -1    0    0    0  501 -0.00000000000E+00  0.00000000000E+00  0.75314664886E+02  0.75461173771E+02  0.47000000000E+01 0. -1.
          5   -1    0    0  501    0  0.00000000000E+00 -0.00000000000E+00 -0.24440493201E+03  0.24445011923E+03  0.47000000000E+01 0. -1.
         25    2    1    2    0    0  0.42389881247E+01  0.52116320292E+02 -0.74078498396E+02  0.15442381907E+03  0.12500004844E+03 0.  0.
         25    2    1    2    0    0 -0.42389881247E+01 -0.52116320292E+02 -0.95011768732E+02  0.16548747393E+03  0.12499915188E+03 0.  0.
          5    1    4    4  502    0 -0.38582010302E+01  0.86693128558E+01 -0.10340359692E+03  0.10394439165E+03  0.47000000000E+01 0. -1.
         -5    1    4    4    0  502 -0.38078709452E+00 -0.60785633148E+02  0.83918281876E+01  0.61543082278E+02  0.47000000000E+01 0. -1.
          5    1    3    3  503    0  0.24544759011E+02 -0.12223298092E+02  0.23009165090E+02  0.36102159067E+02  0.47000000000E+01 0.  1.
         -5    1    3    3    0  503 -0.20305770886E+02  0.64339618384E+02 -0.97087663486E+02  0.11832166000E+03  0.47000000000E+01 0.  1.
<mgrwt>
<rscale>  0 0.13549552E+03</rscale>
<asrwt>0</asrwt>
<pdfrwt beam="2">  1        5 0.37615504E-01 0.13549573E+03</pdfrwt>
<pdfrwt beam="1">  1       -5 0.11601617E-01 0.13549573E+03</pdfrwt>
<totfact> 0.30594263E+02</totfact>
</mgrwt>
</event>
<event>
 8    1  0.3488953E-007  0.1548504E+03  0.7546771E-02  0.1194637E+00
         -5   -1    0    0    0  501 -0.00000000000E+00  0.00000000000E+00  0.57733562226E+03  0.57735475293E+03  0.47000000000E+01 0. -1.
          5   -1    0    0  501    0  0.00000000000E+00 -0.00000000000E+00 -0.42126024267E+02  0.42387402852E+02  0.47000000000E+01 0. -1.
         25    2    1    2    0    0 -0.23455521318E+02 -0.88335959576E+02  0.22649567829E+03  0.27436853194E+03  0.12499758320E+03 0.  0.
         25    2    1    2    0    0  0.23455521318E+02  0.88335959576E+02  0.30871391970E+03  0.34537362383E+03  0.12500101034E+03 0.  0.
          5    1    3    3  502    0 -0.10184073514E+02 -0.81174037652E+02  0.47580149172E+02  0.94757059564E+02  0.47000000000E+01 0.  1.
         -5    1    3    3    0  502 -0.13271447804E+02 -0.71619219240E+01  0.17891552911E+03  0.17961147238E+03  0.47000000000E+01 0.  1.
          5    1    4    4  503    0  0.39627628274E+01 -0.24497721423E+02  0.13446288859E+03  0.13681447384E+03  0.47000000000E+01 0.  1.
         -5    1    4    4    0  503  0.19492758490E+02  0.11283368100E+03  0.17425103111E+03  0.20855914999E+03  0.47000000000E+01 0.  1.
<mgrwt>
<rscale>  0 0.15484974E+03</rscale>
<asrwt>0</asrwt>
<pdfrwt beam="2">  1        5 0.65025046E-02 0.15485043E+03</pdfrwt>
<pdfrwt beam="1">  1       -5 0.88842440E-01 0.15485043E+03</pdfrwt>
<totfact> 0.13316215E+02</totfact>
</mgrwt>
</event>
<event>
 8    1  0.3488953E-007  0.1465203E+03  0.7546771E-02  0.1204821E+00
         -5   -1    0    0    0  501 -0.00000000000E+00  0.00000000000E+00  0.12615500124E+03  0.12624252191E+03  0.47000000000E+01 0. -1.
          5   -1    0    0  501    0  0.00000000000E+00 -0.00000000000E+00 -0.17639080577E+03  0.17645341130E+03  0.47000000000E+01 0. -1.
         25    2    1    2    0    0 -0.89828817563E+01 -0.75865975943E+02  0.37397026257E+01  0.14655004084E+03  0.12500636233E+03 0.  0.
         25    2    1    2    0    0  0.89828817563E+01  0.75865975943E+02 -0.53975507153E+02  0.15614589238E+03  0.12502738046E+03 0.  0.
          5    1    3    3  502    0  0.27776844727E+02 -0.73931584592E+02  0.45030087336E+02  0.91034230204E+02  0.47000000000E+01 0. -1.
         -5    1    3    3    0  502 -0.36759726483E+02 -0.19343913507E+01 -0.41290384710E+02  0.55515810636E+02  0.47000000000E+01 0. -1.
          5    1    4    4  503    0  0.61236702260E+02  0.38965208966E+02 -0.56274304910E+02  0.91962539148E+02  0.47000000000E+01 0.  1.
         -5    1    4    4    0  503 -0.52253820503E+02  0.36900766977E+02  0.22987977569E+01  0.64183353230E+02  0.47000000000E+01 0.  1.
<mgrwt>
<rscale>  0 0.14651577E+03</rscale>
<asrwt>0</asrwt>
<pdfrwt beam="2">  1        5 0.27148595E-01 0.14652025E+03</pdfrwt>
<pdfrwt beam="1">  1       -5 0.19420010E-01 0.14652025E+03</pdfrwt>
<totfact> 0.23563254E+02</totfact>
</mgrwt>
</event>
<event>
 8    1  0.3488953E-007  0.1272751E+03  0.7546771E-02  0.1231559E+00
         -5   -1    0    0    0  501 -0.00000000000E+00  0.00000000000E+00  0.37091142141E+02  0.37387736296E+02  0.47000000000E+01 0.  1.
          5   -1    0    0  501    0  0.00000000000E+00 -0.00000000000E+00 -0.47355769537E+03  0.47358101824E+03  0.47000000000E+01 0.  1.
         25    2    1    2    0    0  0.22140670423E+02 -0.89937226237E+01 -0.14503928290E+03  0.19296463556E+03  0.12501144211E+03 0.  0.
         25    2    1    2    0    0 -0.22140670423E+02  0.89937226237E+01 -0.29142727033E+03  0.31800411898E+03  0.12500267784E+03 0.  0.
          5    1    4    4  502    0 -0.50767317152E+02 -0.40094521485E+02 -0.10863348798E+03  0.12652357826E+03  0.47000000000E+01 0.  1.
         -5    1    4    4    0  502  0.28626646729E+02  0.49088244109E+02 -0.18279378234E+03  0.19148054072E+03  0.47000000000E+01 0.  1.
          5    1    3    3  503    0 -0.27870389165E+02 -0.26950739982E+02 -0.67469692826E+00  0.39059521166E+02  0.47000000000E+01 0. -1.
         -5    1    3    3    0  503  0.50011059588E+02  0.17957017359E+02 -0.14436458597E+03  0.15390511439E+03  0.47000000000E+01 0. -1.
<mgrwt>
<rscale>  0 0.12727297E+03</rscale>
<asrwt>0</asrwt>
<pdfrwt beam="2">  1        5 0.72879635E-01 0.12727512E+03</pdfrwt>
<pdfrwt beam="1">  1       -5 0.57309389E-02 0.12727512E+03</pdfrwt>
<totfact> 0.24420874E+02</totfact>
</mgrwt>
</event>
<event>
 8    1  0.3488953E-007  0.1350140E+03  0.7546771E-02  0.1220201E+00
         -5   -1    0    0    0  501 -0.00000000000E+00  0.00000000000E+00  0.80877724733E+02  0.81014173809E+02  0.47000000000E+01 0.  1.
          5   -1    0    0  501    0  0.00000000000E+00 -0.00000000000E+00 -0.23882913894E+03  0.23887538091E+03  0.47000000000E+01 0.  1.
         25    2    1    2    0    0 -0.46690139904E+02  0.20583405119E+02 -0.40546904636E+02  0.14097104288E+03  0.12500055090E+03 0.  0.
         25    2    1    2    0    0  0.46690139904E+02 -0.20583405119E+02 -0.11740450957E+03  0.17891851183E+03  0.12499747709E+03 0.  0.
          5    1    4    4  502    0 -0.49147820885E+00  0.44751131022E+02 -0.75676026858E+02  0.88044626864E+02  0.47000000000E+01 0.  1.
         -5    1    4    4    0  502  0.47181618113E+02 -0.65334536141E+02 -0.41728482710E+02  0.90873884971E+02  0.47000000000E+01 0.  1.
          5    1    3    3  503    0  0.43159497782E+02  0.51168641443E+01 -0.13786112508E+02  0.45837445889E+02  0.47000000000E+01 0.  1.
         -5    1    3    3    0  503 -0.89849637686E+02  0.15466540975E+02 -0.26760792128E+02  0.95133596996E+02  0.47000000000E+01 0.  1.
<mgrwt>
<rscale>  0 0.13501330E+03</rscale>
<asrwt>0</asrwt>
<pdfrwt beam="2">  1        5 0.36756997E-01 0.13501401E+03</pdfrwt>
<pdfrwt beam="1">  1       -5 0.12456780E-01 0.13501401E+03</pdfrwt>
<totfact> 0.28225808E+02</totfact>
</mgrwt>
</event>
<event>
 8    1  0.3488953E-007  0.1318626E+03  0.7546771E-02  0.1224718E+00
         -5   -1    0    0    0  501 -0.00000000000E+00  0.00000000000E+00  0.24031628535E+03  0.24036224122E+03  0.47000000000E+01 0.  1.
          5   -1    0    0  501    0  0.00000000000E+00 -0.00000000000E+00 -0.72795950569E+02  0.72947518253E+02  0.47000000000E+01 0.  1.
         25    2    1    2    0    0 -0.33025808279E+02 -0.25914088554E+02  0.69889686631E+02  0.14923818008E+03  0.12500088839E+03 0.  0.
         25    2    1    2    0    0  0.33025808279E+02  0.25914088554E+02  0.97630648153E+02  0.16407157940E+03  0.12500198282E+03 0.  0.
          5    1    4    4  502    0  0.26285317370E+02  0.75369976685E+02  0.72752132011E+02  0.10810418126E+03  0.47000000000E+01 0. -1.
         -5    1    4    4    0  502  0.67404909090E+01 -0.49455888131E+02  0.24878516142E+02  0.55967398135E+02  0.47000000000E+01 0. -1.
          5    1    3    3  503    0 -0.26549067343E+02 -0.33739849821E+02  0.10438786244E+03  0.11296966968E+03  0.47000000000E+01 0. -1.
         -5    1    3    3    0  503 -0.64767409359E+01  0.78257612672E+01 -0.34498175807E+02  0.36268510399E+02  0.47000000000E+01 0. -1.
<mgrwt>
<rscale>  0 0.13186232E+03</rscale>
<asrwt>0</asrwt>
<pdfrwt beam="2">  1        5 0.11214571E-01 0.13186258E+03</pdfrwt>
<pdfrwt beam="1">  1       -5 0.36986930E-01 0.13186258E+03</pdfrwt>
<totfact> 0.33289782E+02</totfact>
</mgrwt>
</event>
<event>
 8    1  0.3488953E-007  0.1327688E+03  0.7546771E-02  0.1223408E+00
          5   -1    0    0  501    0  0.00000000000E+00  0.00000000000E+00  0.66668436474E+02  0.66833901740E+02  0.47000000000E+01 0. -1.
         -5   -1    0    0    0  501 -0.00000000000E+00 -0.00000000000E+00 -0.29304785024E+03  0.29308553791E+03  0.47000000000E+01 0. -1.
         25    2    1    2    0    0 -0.20549205231E+01 -0.44680735744E+02 -0.16995590404E+03  0.21566774576E+03  0.12500790534E+03 0.  0.
         25    2    1    2    0    0  0.20549205231E+01  0.44680735744E+02 -0.56423509728E+02  0.14425169389E+03  0.12499739155E+03 0.  0.
          5    1    4    4  502    0 -0.49387228052E+02 -0.11909308852E+02 -0.35201420431E+01  0.51141092401E+02  0.47000000000E+01 0. -1.
         -5    1    4    4    0  502  0.51442148575E+02  0.56590044596E+02 -0.52903367685E+02  0.93110601490E+02  0.47000000000E+01 0. -1.
          5    1    3    3  503    0 -0.19514535883E+02 -0.85478725499E+02 -0.11983470572E+03  0.14855933602E+03  0.47000000000E+01 0. -1.
         -5    1    3    3    0  503  0.17459615360E+02  0.40797989755E+02 -0.50121198323E+02  0.67108409741E+02  0.47000000000E+01 0. -1.
<mgrwt>
<rscale>  0 0.13276637E+03</rscale>
<asrwt>0</asrwt>
<pdfrwt beam="1">  1        5 0.10272310E-01 0.13276885E+03</pdfrwt>
<pdfrwt beam="2">  1       -5 0.45099911E-01 0.13276885E+03</pdfrwt>
<totfact> 0.25920425E+02</totfact>
</mgrwt>
</event>
<event>
 8    1  0.3488953E-007  0.1314500E+03  0.7546771E-02  0.1225320E+00
         -5   -1    0    0    0  501 -0.00000000000E+00  0.00000000000E+00  0.13445652599E+04  0.13445734745E+04  0.47000000000E+01 0. -1.
          5   -1    0    0  501    0  0.00000000000E+00 -0.00000000000E+00 -0.12681929968E+02  0.13524841874E+02  0.47000000000E+01 0. -1.
         25    2    1    2    0    0 -0.40612421218E+02  0.22197240313E+01  0.57020538290E+03  0.58516089418E+03  0.12499918986E+03 0.  0.
         25    2    1    2    0    0  0.40612421218E+02 -0.22197240313E+01  0.76167794707E+03  0.77293742215E+03  0.12499867031E+03 0.  0.
          5    1    4    4  502    0 -0.28763784448E+02  0.33924581814E+02  0.42064283607E+03  0.42301385093E+03  0.47000000000E+01 0. -1.
         -5    1    4    4    0  502  0.69376205666E+02 -0.36144305845E+02  0.34103511100E+03  0.34992357122E+03  0.47000000000E+01 0. -1.
          5    1    3    3  503    0 -0.55558509983E+02 -0.37071125006E+01  0.56480227486E+03  0.56755985623E+03  0.47000000000E+01 0.  1.
         -5    1    3    3    0  503  0.14946088765E+02  0.59268365319E+01  0.54031080368E+01  0.17601037955E+02  0.47000000000E+01 0.  1.
<mgrwt>
<rscale>  0 0.13144984E+03</rscale>
<asrwt>0</asrwt>
<pdfrwt beam="2">  1        5 0.20165375E-02 0.13144997E+03</pdfrwt>
<pdfrwt beam="1">  1       -5 0.20692166E+00 0.13144997E+03</pdfrwt>
<totfact> 0.88768617E+01</totfact>
</mgrwt>
</event>
<event>
 8    1  0.3488953E-007  0.1365960E+03  0.7546771E-02  0.1217985E+00
          5   -1    0    0  501    0  0.00000000000E+00  0.00000000000E+00  0.13251100526E+04  0.13251183877E+04  0.47000000000E+01 0. -1.
         -5   -1    0    0    0  501 -0.00000000000E+00 -0.00000000000E+00 -0.19883988000E+02  0.20431910796E+02  0.47000000000E+01 0. -1.
         25    2    1    2    0    0  0.14994311293E+02  0.52988619475E+02  0.28302724002E+03  0.31426564594E+03  0.12500341778E+03 0.  0.
         25    2    1    2    0    0 -0.14994311293E+02 -0.52988619475E+02  0.10221988245E+04  0.10312846526E+04  0.12499989815E+03 0.  0.
          5    1    4    4  502    0  0.16262719442E+01 -0.92555929578E+02  0.74501894510E+03  0.75076265451E+03  0.47000000000E+01 0. -1.
         -5    1    4    4    0  502 -0.16620583237E+02  0.39567310103E+02  0.27717987945E+03  0.28052199805E+03  0.47000000000E+01 0. -1.
          5    1    3    3  503    0  0.65300734333E+02  0.49509013689E+02  0.13702244192E+03  0.15972654109E+03  0.47000000000E+01 0. -1.
         -5    1    3    3    0  503 -0.50306423040E+02  0.34796057867E+01  0.14600479811E+03  0.15453910484E+03  0.47000000000E+01 0. -1.
<mgrwt>
<rscale>  0 0.13659523E+03</rscale>
<asrwt>0</asrwt>
<pdfrwt beam="1">  1        5 0.20390591E+00 0.13659604E+03</pdfrwt>
<pdfrwt beam="2">  1       -5 0.31018636E-02 0.13659604E+03</pdfrwt>
<totfact> 0.47197161E+01</totfact>
</mgrwt>
</event>
<event>
 8    1  0.3488953E-007  0.2009244E+03  0.7546771E-02  0.1148962E+00
          5   -1    0    0  501    0  0.00000000000E+00  0.00000000000E+00  0.31511277843E+02  0.31859859248E+02  0.47000000000E+01 0.  1.
         -5   -1    0    0    0  501 -0.00000000000E+00 -0.00000000000E+00 -0.13567016401E+04  0.13567097811E+04  0.47000000000E+01 0.  1.
         25    2    1    2    0    0 -0.11152003256E+03 -0.11093214896E+03 -0.83426484578E+03  0.85811844794E+03  0.12500711369E+03 0.  0.
         25    2    1    2    0    0  0.11152003256E+03  0.11093214896E+03 -0.49092551645E+03  0.53045119242E+03  0.12501178144E+03 0.  0.
          5    1    4    4  502    0  0.96291049839E+02  0.42688104884E+02 -0.15610351419E+03  0.18837366515E+03  0.47000000000E+01 0. -1.
         -5    1    4    4    0  502  0.15228982717E+02  0.68244044072E+02 -0.33482200226E+03  0.34207752727E+03  0.47000000000E+01 0. -1.
          5    1    3    3  503    0  0.20179836109E+01 -0.41772310041E+01  0.24176716458E+01  0.70325424210E+01  0.47000000000E+01 0. -1.
         -5    1    3    3    0  503 -0.11353801617E+03 -0.10675491795E+03 -0.83668251742E+03  0.85108590552E+03  0.47000000000E+01 0. -1.
<mgrwt>
<rscale>  0 0.20092365E+03</rscale>
<asrwt>0</asrwt>
<pdfrwt beam="1">  1        5 0.48753301E-02 0.20092438E+03</pdfrwt>
<pdfrwt beam="2">  1       -5 0.20875072E+00 0.20092438E+03</pdfrwt>
<totfact> 0.22969319E+01</totfact>
</mgrwt>
</event>
<event>
 8    1  0.3488953E-007  0.1914174E+03  0.7546771E-02  0.1157190E+00
         -5   -1    0    0    0  501 -0.00000000000E+00  0.00000000000E+00  0.25794308473E+04  0.25794351292E+04  0.47000000000E+01 0.  1.
          5   -1    0    0  501    0  0.00000000000E+00 -0.00000000000E+00 -0.16758825231E+02  0.17405407870E+02  0.47000000000E+01 0.  1.
         25    2    1    2    0    0  0.11828210621E+03  0.83819917552E+02  0.18145675848E+04  0.18246358933E+04  0.12499675251E+03 0.  0.
         25    2    1    2    0    0 -0.11828210621E+03 -0.83819917552E+02  0.74810443724E+03  0.77220464377E+03  0.12499331030E+03 0.  0.
          5    1    4    4  502    0 -0.11232571082E+02 -0.18480045419E+02  0.11415047755E+02  0.24901326210E+02  0.47000000000E+01 0.  1.
         -5    1    4    4    0  502 -0.10704953513E+03 -0.65339872133E+02  0.73668938948E+03  0.74730331756E+03  0.47000000000E+01 0.  1.
          5    1    3    3  503    0  0.98215255789E+02  0.93120217519E+02  0.17646175523E+04  0.17698064322E+04  0.47000000000E+01 0. -1.
         -5    1    3    3    0  503  0.20066850425E+02 -0.93002999669E+01  0.49950032513E+02  0.54829461182E+02  0.47000000000E+01 0. -1.
<mgrwt>
<rscale>  0 0.19141684E+03</rscale>
<asrwt>0</asrwt>
<pdfrwt beam="2">  1        5 0.26283462E-02 0.19141741E+03</pdfrwt>
<pdfrwt beam="1">  1       -5 0.39688576E+00 0.19141741E+03</pdfrwt>
<totfact> 0.36450216E+00</totfact>
</mgrwt>
</event>
<event>
 8    1  0.3488953E-007  0.1317535E+03  0.7546771E-02  0.1224880E+00
         -5   -1    0    0    0  501 -0.00000000000E+00  0.00000000000E+00  0.42833714347E+03  0.42836292845E+03  0.47000000000E+01 0. -1.
          5   -1    0    0  501    0  0.00000000000E+00 -0.00000000000E+00 -0.45223371791E+02  0.45466947953E+02  0.47000000000E+01 0. -1.
         25    2    1    2    0    0 -0.21156413338E+02 -0.35873393105E+02  0.26900974602E+03  0.29954171441E+03  0.12499800421E+03 0.  0.
         25    2    1    2    0    0  0.21156413338E+02  0.35873393105E+02  0.11410402566E+03  0.17428816200E+03  0.12498856181E+03 0.  0.
          5    1    4    4  502    0  0.17607747774E+02  0.60992322587E+02  0.12946006719E+03  0.14426397746E+03  0.47000000000E+01 0.  1.
         -5    1    4    4    0  502  0.35486655647E+01 -0.25118929482E+02 -0.15356041534E+02  0.30024184539E+02  0.47000000000E+01 0.  1.
          5    1    3    3  503    0 -0.40500275247E+02 -0.59880938519E+02  0.79796820244E+02  0.10777579327E+03  0.47000000000E+01 0. -1.
         -5    1    3    3    0  503  0.19343861908E+02  0.24007545414E+02  0.18921292578E+03  0.19176592114E+03  0.47000000000E+01 0. -1.
<mgrwt>
<rscale>  0 0.13175130E+03</rscale>
<asrwt>0</asrwt>
<pdfrwt beam="2">  1        5 0.69781621E-02 0.13175354E+03</pdfrwt>
<pdfrwt beam="1">  1       -5 0.65918741E-01 0.13175354E+03</pdfrwt>
<totfact> 0.22231430E+02</totfact>
</mgrwt>
</event>
<event>
 8    1  0.3488953E-007  0.1264796E+03  0.7546771E-02  0.1232796E+00
          5   -1    0    0  501    0  0.00000000000E+00  0.00000000000E+00  0.54165928547E+03  0.54167967613E+03  0.47000000000E+01 0. -1.
         -5   -1    0    0    0  501 -0.00000000000E+00 -0.00000000000E+00 -0.40276373566E+02  0.40549676542E+02  0.47000000000E+01 0. -1.
         25    2    1    2    0    0  0.18734423288E+02 -0.26566913720E+01  0.99490232019E+02  0.16092049840E+03  0.12505624300E+03 0.  0.
         25    2    1    2    0    0 -0.18734423288E+02  0.26566913720E+01  0.40189267988E+03  0.42130885427E+03  0.12500155166E+03 0.  0.
          5    1    3    3  502    0  0.59509116187E+02  0.32976161376E+02  0.35242727184E+02  0.76765239189E+02  0.47000000000E+01 0. -1.
         -5    1    3    3    0  502 -0.40774692899E+02 -0.35632852748E+02  0.64247504835E+02  0.84155259214E+02  0.47000000000E+01 0. -1.
          5    1    4    4  503    0  0.65726959631E+01 -0.11474914885E+02 -0.38120275873E+01  0.14542886858E+02  0.47000000000E+01 0. -1.
         -5    1    4    4    0  503 -0.25307119252E+02  0.14131606257E+02  0.40570470747E+03  0.40676596741E+03  0.47000000000E+01 0. -1.
<mgrwt>
<rscale>  0 0.12646612E+03</rscale>
<asrwt>0</asrwt>
<pdfrwt beam="1">  1        5 0.83354789E-01 0.12647964E+03</pdfrwt>
<pdfrwt beam="2">  1       -5 0.62189570E-02 0.12647964E+03</pdfrwt>
<totfact> 0.15605224E+02</totfact>
</mgrwt>
</event>
<event>
 8    1  0.3488953E-007  0.1505300E+03  0.7546771E-02  0.1199829E+00
          5   -1    0    0  501    0  0.00000000000E+00  0.00000000000E+00  0.19685455976E+03  0.19691065918E+03  0.47000000000E+01 0. -1.
         -5   -1    0    0    0  501 -0.00000000000E+00 -0.00000000000E+00 -0.11663655236E+03  0.11673120982E+03  0.47000000000E+01 0. -1.
         25    2    1    2    0    0 -0.76048571329E+02  0.35305357745E+02  0.21393982830E+02  0.15204267783E+03  0.12501767832E+03 0.  0.
         25    2    1    2    0    0  0.76048571329E+02 -0.35305357745E+02  0.58824024572E+02  0.16159919118E+03  0.12499671690E+03 0.  0.
          5    1    3    3  502    0 -0.18243429695E+02 -0.41691352808E+02 -0.16260777264E+02  0.48554036940E+02  0.47000000000E+01 0.  1.
         -5    1    3    3    0  502 -0.57805141635E+02  0.76996710552E+02  0.37654760095E+02  0.10348864089E+03  0.47000000000E+01 0.  1.
          5    1    4    4  503    0  0.51318368363E+01  0.38836598351E+02  0.41822923870E+02  0.57496644092E+02  0.47000000000E+01 0. -1.
         -5    1    4    4    0  503  0.70916734493E+02 -0.74141956095E+02  0.17001100702E+02  0.10410254709E+03  0.47000000000E+01 0. -1.
<mgrwt>
<rscale>  0 0.15052562E+03</rscale>
<asrwt>0</asrwt>
<pdfrwt beam="1">  1        5 0.30296913E-01 0.15052998E+03</pdfrwt>
<pdfrwt beam="2">  1       -5 0.17955682E-01 0.15052998E+03</pdfrwt>
<totfact> 0.22191891E+02</totfact>
</mgrwt>
</event>
<event>
 8    1  0.3488953E-007  0.1264828E+03  0.7546771E-02  0.1232781E+00
          5   -1    0    0  501    0  0.00000000000E+00  0.00000000000E+00  0.15515333706E+02  0.16211587831E+02  0.47000000000E+01 0.  1.
         -5   -1    0    0    0  501 -0.00000000000E+00 -0.00000000000E+00 -0.10287981171E+04  0.10288088529E+04  0.47000000000E+01 0.  1.
         25    2    1    2    0    0  0.18002985601E+02  0.62677173705E+01 -0.58165484464E+03  0.59524208233E+03  0.12500954567E+03 0.  0.
         25    2    1    2    0    0 -0.18002985601E+02 -0.62677173705E+01 -0.43162793874E+03  0.44977835836E+03  0.12503800374E+03 0.  0.
          5    1    3    3  502    0 -0.28183549787E+02  0.68525349061E+01 -0.31294179311E+02  0.42926511295E+02  0.47000000000E+01 0.  1.
         -5    1    3    3    0  502  0.46186535388E+02 -0.58481753561E+00 -0.55036066533E+03  0.55231557103E+03  0.47000000000E+01 0.  1.
          5    1    4    4  503    0 -0.63177068900E+02  0.28319695867E+02 -0.23587400835E+03  0.24586985383E+03  0.47000000000E+01 0. -1.
         -5    1    4    4    0  503  0.45174083299E+02 -0.34587413237E+02 -0.19575393039E+03  0.20390850453E+03  0.47000000000E+01 0. -1.
<mgrwt>
<rscale>  0 0.12647575E+03</rscale>
<asrwt>0</asrwt>
<pdfrwt beam="1">  1        5 0.24413591E-02 0.12648278E+03</pdfrwt>
<pdfrwt beam="2">  1       -5 0.15833096E+00 0.12648278E+03</pdfrwt>
<totfact> 0.14266409E+02</totfact>
</mgrwt>
</event>
<event>
 8    1  0.3488953E-007  0.1670173E+03  0.7546771E-02  0.1180997E+00
         -5   -1    0    0    0  501 -0.00000000000E+00  0.00000000000E+00  0.25439295660E+03  0.25443636998E+03  0.47000000000E+01 0. -1.
          5   -1    0    0  501    0  0.00000000000E+00 -0.00000000000E+00 -0.13903731757E+03  0.13911673399E+03  0.47000000000E+01 0. -1.
         25    2    1    2    0    0 -0.18144487657E+02  0.10926111215E+03  0.14826446813E+03  0.22333187820E+03  0.12501024859E+03 0.  0.
         25    2    1    2    0    0  0.18144487657E+02 -0.10926111215E+03 -0.32908829089E+02  0.17022122577E+03  0.12500024643E+03 0.  0.
          5    1    4    4  502    0  0.53569435028E+02 -0.33644011459E+02 -0.54736268141E+02  0.83783965806E+02  0.47000000000E+01 0.  1.
         -5    1    4    4    0  502 -0.35424947371E+02 -0.75617100696E+02  0.21827439052E+02  0.86437259960E+02  0.47000000000E+01 0.  1.
          5    1    3    3  503    0  0.44449469540E+02  0.11317376512E+02  0.67375213212E+02  0.81641580759E+02  0.47000000000E+01 0.  1.
         -5    1    3    3    0  503 -0.62593957197E+02  0.97943735643E+02  0.80889254914E+02  0.14169029744E+03  0.47000000000E+01 0.  1.
<mgrwt>
<rscale>  0 0.16701542E+03</rscale>
<asrwt>0</asrwt>
<pdfrwt beam="2">  1        5 0.21399805E-01 0.16701729E+03</pdfrwt>
<pdfrwt beam="1">  1       -5 0.39146826E-01 0.16701729E+03</pdfrwt>
<totfact> 0.98821862E+01</totfact>
</mgrwt>
</event>
<event>
 8    1  0.3488953E-007  0.1346623E+03  0.7546771E-02  0.1220698E+00
          5   -1    0    0  501    0  0.00000000000E+00  0.00000000000E+00  0.22063669077E+03  0.22068674476E+03  0.47000000000E+01 0.  1.
         -5   -1    0    0    0  501 -0.00000000000E+00 -0.00000000000E+00 -0.96130751881E+02  0.96245578897E+02  0.47000000000E+01 0.  1.
         25    2    1    2    0    0 -0.46376383959E+02 -0.18925512821E+02  0.16846104894E+01  0.13467279536E+03  0.12499991950E+03 0.  0.
         25    2    1    2    0    0  0.46376383959E+02  0.18925512821E+02  0.12282132840E+03  0.18225952830E+03  0.12499805167E+03 0.  0.
          5    1    4    4  502    0  0.31325517644E+01 -0.22934860638E+02  0.11948627930E+03  0.12179852895E+03  0.47000000000E+01 0. -1.
         -5    1    4    4    0  502  0.43243832195E+02  0.41860373459E+02  0.33350490944E+01  0.60460999342E+02  0.47000000000E+01 0. -1.
          5    1    3    3  503    0 -0.38915918502E+02  0.10232698890E+02 -0.56189495405E+02  0.69271251131E+02  0.47000000000E+01 0. -1.
         -5    1    3    3    0  503 -0.74604654567E+01 -0.29158211711E+02  0.57874105894E+02  0.65401544233E+02  0.47000000000E+01 0. -1.
<mgrwt>
<rscale>  0 0.13466183E+03</rscale>
<asrwt>0</asrwt>
<pdfrwt beam="1">  1        5 0.33956789E-01 0.13466226E+03</pdfrwt>
<pdfrwt beam="2">  1       -5 0.14802030E-01 0.13466226E+03</pdfrwt>
<totfact> 0.24268248E+02</totfact>
</mgrwt>
</event>
<event>
 8    1  0.3488953E-007  0.1395543E+03  0.7546771E-02  0.1213939E+00
         -5   -1    0    0    0  501 -0.00000000000E+00  0.00000000000E+00  0.36270749102E+03  0.36273794128E+03  0.47000000000E+01 0.  1.
          5   -1    0    0  501    0  0.00000000000E+00 -0.00000000000E+00 -0.54163133036E+02  0.54366671595E+02  0.47000000000E+01 0.  1.
         25    2    1    2    0    0 -0.36996634710E+02 -0.49748725618E+02  0.17645996095E+03  0.22497449386E+03  0.12502687065E+03 0.  0.
         25    2    1    2    0    0  0.36996634710E+02  0.49748725618E+02  0.13208439703E+03  0.19213011901E+03  0.12499603199E+03 0.  0.
          5    1    4    4  502    0  0.45099509101E+02  0.88360003264E+02  0.10134707138E+03  0.14189705696E+03  0.47000000000E+01 0.  1.
         -5    1    4    4    0  502 -0.81028743909E+01 -0.38611277646E+02  0.30737325651E+02  0.50233062051E+02  0.47000000000E+01 0.  1.
          5    1    3    3  503    0 -0.45482386017E+01 -0.73763614142E+02  0.43371855032E+02  0.85819374588E+02  0.47000000000E+01 0.  1.
         -5    1    3    3    0  503 -0.32448396108E+02  0.24014888524E+02  0.13308810592E+03  0.13915511927E+03  0.47000000000E+01 0.  1.
<mgrwt>
<rscale>  0 0.13954740E+03</rscale>
<asrwt>0</asrwt>
<pdfrwt beam="2">  1        5 0.83507891E-02 0.13955431E+03</pdfrwt>
<pdfrwt beam="1">  1       -5 0.55819150E-01 0.13955431E+03</pdfrwt>
<totfact> 0.24018549E+02</totfact>
</mgrwt>
</event>
<event>
 8    1  0.3488953E-007  0.1273265E+03  0.7546771E-02  0.1231479E+00
          5   -1    0    0  501    0  0.00000000000E+00  0.00000000000E+00  0.35045624197E+02  0.35359380302E+02  0.47000000000E+01 0.  1.
         -5   -1    0    0    0  501 -0.00000000000E+00 -0.00000000000E+00 -0.48564688461E+03  0.48566962694E+03  0.47000000000E+01 0.  1.
         25    2    1    2    0    0 -0.24228808674E+02 -0.38624770254E+00 -0.28491854253E+03  0.31207470291E+03  0.12499943985E+03 0.  0.
         25    2    1    2    0    0  0.24228808674E+02  0.38624770254E+00 -0.16568271789E+03  0.20895430433E+03  0.12499581567E+03 0.  0.
          5    1    4    4  502    0 -0.35788318511E+02  0.36626045466E+02 -0.10151578518E+03  0.11379725651E+03  0.47000000000E+01 0.  1.
         -5    1    4    4    0  502  0.60017127185E+02 -0.36239797763E+02 -0.64166932705E+02  0.95157047822E+02  0.47000000000E+01 0.  1.
          5    1    3    3  503    0 -0.59923567670E+02  0.12562324238E+02 -0.25821692324E+03  0.26541800127E+03  0.47000000000E+01 0. -1.
         -5    1    3    3    0  503  0.35694758997E+02 -0.12948571941E+02 -0.26701619292E+02  0.46656701640E+02  0.47000000000E+01 0. -1.
<mgrwt>
<rscale>  0 0.12732564E+03</rscale>
<asrwt>0</asrwt>
<pdfrwt beam="1">  1        5 0.54175193E-02 0.12732653E+03</pdfrwt>
<pdfrwt beam="2">  1       -5 0.74740785E-01 0.12732653E+03</pdfrwt>
<totfact> 0.25335326E+02</totfact>
</mgrwt>
</event>
<event>
 8    1  0.3488953E-007  0.1299767E+03  0.7546771E-02  0.1227494E+00
         -5   -1    0    0    0  501 -0.00000000000E+00  0.00000000000E+00  0.14549702799E+03  0.14557292040E+03  0.47000000000E+01 0. -1.
          5   -1    0    0  501    0  0.00000000000E+00 -0.00000000000E+00 -0.11595793107E+03  0.11605314204E+03  0.47000000000E+01 0. -1.
         25    2    1    2    0    0  0.11649494966E+02  0.33646658436E+02  0.13680225268E+02  0.13068544074E+03  0.12499490990E+03 0.  0.
         25    2    1    2    0    0 -0.11649494966E+02 -0.33646658436E+02  0.15858871646E+02  0.13094062170E+03  0.12500453689E+03 0.  0.
          5    1    4    4  502    0  0.45897681498E+01 -0.74539118583E+02  0.35145697015E+02  0.82670769862E+02  0.47000000000E+01 0.  1.
         -5    1    4    4    0  502 -0.16239263116E+02  0.40892460147E+02 -0.19286825369E+02  0.48269851836E+02  0.47000000000E+01 0.  1.
          5    1    3    3  503    0 -0.33139214951E+02  0.62619674154E+02  0.26214840668E+02  0.75688433925E+02  0.47000000000E+01 0.  1.
         -5    1    3    3    0  503  0.44788709917E+02 -0.28973015718E+02 -0.12534615400E+02  0.54997006819E+02  0.47000000000E+01 0.  1.
<mgrwt>
<rscale>  0 0.12997439E+03</rscale>
<asrwt>0</asrwt>
<pdfrwt beam="2">  1        5 0.17852843E-01 0.12997670E+03</pdfrwt>
<pdfrwt beam="1">  1       -5 0.22397320E-01 0.12997670E+03</pdfrwt>
<totfact> 0.38173096E+02</totfact>
</mgrwt>
</event>
<event>
 8    1  0.3488953E-007  0.1283680E+03  0.7546771E-02  0.1229900E+00
         -5   -1    0    0    0  501 -0.00000000000E+00  0.00000000000E+00  0.61881198502E+02  0.62059429002E+02  0.47000000000E+01 0. -1.
          5   -1    0    0  501    0  0.00000000000E+00 -0.00000000000E+00 -0.27247631910E+03  0.27251685172E+03  0.47000000000E+01 0. -1.
         25    2    1    2    0    0 -0.81976213378E+01  0.28021949223E+02 -0.78910403310E+02  0.15067630946E+03  0.12499627134E+03 0.  0.
         25    2    1    2    0    0  0.81976213378E+01 -0.28021949223E+02 -0.13168471729E+03  0.18389997126E+03  0.12500361606E+03 0.  0.
          5    1    4    4  502    0 -0.41383368296E+01  0.49382035834E+02 -0.48172384299E+02  0.69270339279E+02  0.47000000000E+01 0.  1.
         -5    1    4    4    0  502  0.12335958167E+02 -0.77403985056E+02 -0.83512332987E+02  0.11462963198E+03  0.47000000000E+01 0.  1.
          5    1    3    3  503    0  0.27234949996E+02 -0.41639483006E+02 -0.28036398673E+02  0.57303740688E+02  0.47000000000E+01 0.  1.
         -5    1    3    3    0  503 -0.35432571333E+02  0.69661432229E+02 -0.50874004637E+02  0.93372568773E+02  0.47000000000E+01 0.  1.
<mgrwt>
<rscale>  0 0.12836618E+03</rscale>
<asrwt>0</asrwt>
<pdfrwt beam="2">  1        5 0.41936261E-01 0.12836797E+03</pdfrwt>
<pdfrwt beam="1">  1       -5 0.95370124E-02 0.12836797E+03</pdfrwt>
<totfact> 0.33877534E+02</totfact>
</mgrwt>
</event>
<event>
 8    1  0.3488953E-007  0.1906240E+03  0.7546771E-02  0.1157900E+00
         -5   -1    0    0    0  501 -0.00000000000E+00  0.00000000000E+00  0.18520490608E+04  0.18520550244E+04  0.47000000000E+01 0.  1.
          5   -1    0    0  501    0  0.00000000000E+00 -0.00000000000E+00 -0.19347407061E+02  0.19910101958E+02  0.47000000000E+01 0.  1.
         25    2    1    2    0    0  0.48759288244E+02 -0.13540304139E+03  0.94186696311E+03  0.96096350869E+03  0.12500414802E+03 0.  0.
         25    2    1    2    0    0 -0.48759288244E+02  0.13540304139E+03  0.89083469061E+03  0.91100161771E+03  0.12500419858E+03 0.  0.
          5    1    3    3  502    0 -0.17710429649E+02 -0.11249548091E+03  0.45677545647E+03  0.47078105333E+03  0.47000000000E+01 0. -1.
         -5    1    3    3    0  502  0.66469717892E+02 -0.22907560484E+02  0.48509150664E+03  0.49018245536E+03  0.47000000000E+01 0. -1.
          5    1    4    4  503    0 -0.71460273208E+02  0.14691624197E+03  0.72789971722E+03  0.74602348564E+03  0.47000000000E+01 0. -1.
         -5    1    4    4    0  503  0.22700984965E+02 -0.11513200579E+02  0.16293497340E+03  0.16497813207E+03  0.47000000000E+01 0. -1.
<mgrwt>
<rscale>  0 0.19062397E+03</rscale>
<asrwt>0</asrwt>
<pdfrwt beam="2">  1        5 0.30202676E-02 0.19062398E+03</pdfrwt>
<pdfrwt beam="1">  1       -5 0.28497432E+00 0.19062398E+03</pdfrwt>
<totfact> 0.16062441E+01</totfact>
</mgrwt>
</event>
<event>
 8    1  0.3488953E-007  0.1276229E+03  0.7546771E-02  0.1231027E+00
          5   -1    0    0  501    0  0.00000000000E+00  0.00000000000E+00  0.74204935405E+03  0.74206423836E+03  0.47000000000E+01 0. -1.
         -5   -1    0    0    0  501 -0.00000000000E+00 -0.00000000000E+00 -0.22313423253E+02  0.22803044912E+02  0.47000000000E+01 0. -1.
         25    2    1    2    0    0  0.18183298659E+02  0.18193761276E+02  0.29627293026E+03  0.32259076451E+03  0.12500202737E+03 0.  0.
         25    2    1    2    0    0 -0.18183298659E+02 -0.18193761276E+02  0.42346300055E+03  0.44227651876E+03  0.12500384360E+03 0.  0.
          5    1    4    4  502    0 -0.37911299217E+02 -0.64721719098E+02  0.28710552613E+03  0.29677911090E+03  0.47000000000E+01 0.  1.
         -5    1    4    4    0  502  0.19728000558E+02  0.46527957822E+02  0.13635747442E+03  0.14549740786E+03  0.47000000000E+01 0.  1.
          5    1    3    3  503    0  0.58800975113E+02  0.37165124244E+02  0.24301380436E+03  0.25281732584E+03  0.47000000000E+01 0. -1.
         -5    1    3    3    0  503 -0.40617676454E+02 -0.18971362968E+02  0.53259125898E+02  0.69773438677E+02  0.47000000000E+01 0. -1.
<mgrwt>
<rscale>  0 0.12762246E+03</rscale>
<asrwt>0</asrwt>
<pdfrwt beam="1">  1        5 0.11420026E+00 0.12762291E+03</pdfrwt>
<pdfrwt beam="2">  1       -5 0.34716420E-02 0.12762291E+03</pdfrwt>
<totfact> 0.19172850E+02</totfact>
</mgrwt>
</event>
<event>
 8    1  0.3488953E-007  0.1552418E+03  0.7546771E-02  0.1194179E+00
          5   -1    0    0  501    0  0.00000000000E+00  0.00000000000E+00  0.21281518359E+03  0.21286707675E+03  0.47000000000E+01 0.  1.
         -5   -1    0    0    0  501 -0.00000000000E+00 -0.00000000000E+00 -0.13521867326E+03  0.13530033111E+03  0.47000000000E+01 0.  1.
         25    2    1    2    0    0  0.38228068350E+01  0.91963555948E+02 -0.31538600968E+02  0.15840313753E+03  0.12499984461E+03 0.  0.
         25    2    1    2    0    0 -0.38228068350E+01 -0.91963555948E+02  0.10913511129E+03  0.18976427033E+03  0.12501238460E+03 0.  0.
          5    1    4    4  502    0  0.16954523901E+02 -0.79976599663E+02  0.41747665377E+01  0.81995311146E+02  0.47000000000E+01 0.  1.
         -5    1    4    4    0  502 -0.20777330736E+02 -0.11986956285E+02  0.10496034475E+03  0.10776895919E+03  0.47000000000E+01 0.  1.
          5    1    3    3  503    0 -0.12193702335E+02  0.12040886164E+03 -0.32525531766E+02  0.12540725878E+03  0.47000000000E+01 0. -1.
         -5    1    3    3    0  503  0.16016509170E+02 -0.28445305693E+02  0.98693079802E+00  0.32995878749E+02  0.47000000000E+01 0. -1.
<mgrwt>
<rscale>  0 0.15523924E+03</rscale>
<asrwt>0</asrwt>
<pdfrwt beam="1">  1        5 0.32751070E-01 0.15524177E+03</pdfrwt>
<pdfrwt beam="2">  1       -5 0.20813146E-01 0.15524177E+03</pdfrwt>
<totfact> 0.14592900E+02</totfact>
</mgrwt>
</event>
<event>
 8    1  0.3488953E-007  0.1275424E+03  0.7546771E-02  0.1231153E+00
          5   -1    0    0  501    0  0.00000000000E+00  0.00000000000E+00  0.45183468358E+02  0.45427258478E+02  0.47000000000E+01 0. -1.
         -5   -1    0    0    0  501 -0.00000000000E+00 -0.00000000000E+00 -0.50559681198E+03  0.50561865698E+03  0.47000000000E+01 0. -1.
         25    2    1    2    0    0 -0.15494866541E+02  0.20028305654E+02 -0.37865625753E+03  0.39955927322E+03  0.12500331008E+03 0.  0.
         25    2    1    2    0    0  0.15494866541E+02 -0.20028305654E+02 -0.81757086088E+02  0.15148664223E+03  0.12499103061E+03 0.  0.
          5    1    4    4  502    0  0.43449342172E+02  0.32180492655E+02 -0.73711548484E+02  0.91536396163E+02  0.47000000000E+01 0.  1.
         -5    1    4    4    0  502 -0.27954475630E+02 -0.52208798309E+02 -0.80455376043E+01  0.59950246071E+02  0.47000000000E+01 0.  1.
          5    1    3    3  503    0 -0.27846428467E+02 -0.43001587030E+02 -0.25500276951E+03  0.26014046691E+03  0.47000000000E+01 0. -1.
         -5    1    3    3    0  503  0.12351561925E+02  0.63029892684E+02 -0.12365348802E+03  0.13941880631E+03  0.47000000000E+01 0. -1.
<mgrwt>
<rscale>  0 0.12753934E+03</rscale>
<asrwt>0</asrwt>
<pdfrwt beam="1">  1        5 0.69717367E-02 0.12754235E+03</pdfrwt>
<pdfrwt beam="2">  1       -5 0.77804554E-01 0.12754235E+03</pdfrwt>
<totfact> 0.15133842E+02</totfact>
</mgrwt>
</event>
<event>
 8    1  0.3488953E-007  0.1320977E+03  0.7546771E-02  0.1224378E+00
          5   -1    0    0  501    0  0.00000000000E+00  0.00000000000E+00  0.48093367677E+02  0.48322479392E+02  0.47000000000E+01 0.  1.
         -5   -1    0    0    0  501 -0.00000000000E+00 -0.00000000000E+00 -0.36459360738E+03  0.36462390013E+03  0.47000000000E+01 0.  1.
         25    2    1    2    0    0  0.36603617239E+02 -0.22015430587E+02 -0.17660165877E+03  0.22053687593E+03  0.12499545506E+03 0.  0.
         25    2    1    2    0    0 -0.36603617239E+02  0.22015430587E+02 -0.13989858094E+03  0.19240950359E+03  0.12500120058E+03 0.  0.
          5    1    4    4  502    0 -0.49121436129E+02  0.67994232074E+02 -0.94153654771E+02  0.12618689230E+03  0.47000000000E+01 0. -1.
         -5    1    4    4    0  502  0.12517818889E+02 -0.45978801487E+02 -0.45744926168E+02  0.66222611290E+02  0.47000000000E+01 0. -1.
          5    1    3    3  503    0  0.74277264025E+02 -0.60764685222E+01 -0.56695153766E+02  0.93757484401E+02  0.47000000000E+01 0.  1.
         -5    1    3    3    0  503 -0.37673646785E+02 -0.15938962065E+02 -0.11990650500E+03  0.12677939152E+03  0.47000000000E+01 0.  1.
<mgrwt>
<rscale>  0 0.13209635E+03</rscale>
<asrwt>0</asrwt>
<pdfrwt beam="1">  1        5 0.74189341E-02 0.13209771E+03</pdfrwt>
<pdfrwt beam="2">  1       -5 0.56111277E-01 0.13209771E+03</pdfrwt>
<totfact> 0.28543390E+02</totfact>
</mgrwt>
</event>
<event>
 8    1  0.3488953E-007  0.1340462E+03  0.7546771E-02  0.1221577E+00
         -5   -1    0    0    0  501 -0.00000000000E+00  0.00000000000E+00  0.13370671978E+02  0.14172680380E+02  0.47000000000E+01 0.  1.
          5   -1    0    0  501    0  0.00000000000E+00 -0.00000000000E+00 -0.13873975540E+04  0.13874055149E+04  0.47000000000E+01 0.  1.
         25    2    1    2    0    0 -0.39760535396E+00 -0.48379545393E+02 -0.51508030198E+03  0.53223687380E+03  0.12501053491E+03 0.  0.
         25    2    1    2    0    0  0.39760535396E+00  0.48379545393E+02 -0.85894658005E+03  0.86934132152E+03  0.12499746964E+03 0.  0.
          5    1    4    4  502    0  0.30372362907E+02  0.57122951224E+02 -0.79862751450E+03  0.80125745482E+03  0.47000000000E+01 0.  1.
         -5    1    4    4    0  502 -0.29974757553E+02 -0.87434058313E+01 -0.60319065545E+02  0.68083866695E+02  0.47000000000E+01 0.  1.
          5    1    3    3  503    0  0.20129799245E+02 -0.56374938406E+02 -0.50320139840E+03  0.50677123029E+03  0.47000000000E+01 0.  1.
         -5    1    3    3    0  503 -0.20527404599E+02  0.79953930128E+01 -0.11878903583E+02  0.25465643509E+02  0.47000000000E+01 0.  1.
<mgrwt>
<rscale>  0 0.13404311E+03</rscale>
<asrwt>0</asrwt>
<pdfrwt beam="2">  1        5 0.21350797E+00 0.13404616E+03</pdfrwt>
<pdfrwt beam="1">  1       -5 0.21193329E-02 0.13404616E+03</pdfrwt>
<totfact> 0.74641943E+01</totfact>
</mgrwt>
</event>
<event>
 8    1  0.3488953E-007  0.1258045E+03  0.7546771E-02  0.1233818E+00
         -5   -1    0    0    0  501 -0.00000000000E+00  0.00000000000E+00  0.88412437578E+03  0.88413686828E+03  0.47000000000E+01 0.  1.
          5   -1    0    0  501    0  0.00000000000E+00 -0.00000000000E+00 -0.17689212952E+02  0.18302957544E+02  0.47000000000E+01 0.  1.
         25    2    1    2    0    0  0.11906476936E+02  0.77591698051E+01  0.46812225684E+03  0.48473211362E+03  0.12499922287E+03 0.  0.
         25    2    1    2    0    0 -0.11906476936E+02 -0.77591698051E+01  0.39831290599E+03  0.41770771220E+03  0.12499837137E+03 0.  0.
          5    1    3    3  502    0  0.21952079172E+02 -0.56393329710E+02  0.22749100871E+03  0.23544925241E+03  0.47000000000E+01 0. -1.
         -5    1    3    3    0  502 -0.10045602236E+02  0.64152499515E+02  0.24063124813E+03  0.24928286121E+03  0.47000000000E+01 0. -1.
          5    1    4    4  503    0 -0.49414464367E+02 -0.17952263908E+02  0.73202470009E+02  0.90248350032E+02  0.47000000000E+01 0. -1.
         -5    1    4    4    0  503  0.37507987431E+02  0.10193094103E+02  0.32511043598E+03  0.32745936217E+03  0.47000000000E+01 0. -1.
<mgrwt>
<rscale>  0 0.12580430E+03</rscale>
<asrwt>0</asrwt>
<pdfrwt beam="2">  1        5 0.27695886E-02 0.12580451E+03</pdfrwt>
<pdfrwt beam="1">  1       -5 0.13606735E+00 0.12580451E+03</pdfrwt>
<totfact> 0.17528882E+02</totfact>
</mgrwt>
</event>
<event>
 8    1  0.3488953E-007  0.1313777E+03  0.7546771E-02  0.1225426E+00
          5   -1    0    0  501    0  0.00000000000E+00  0.00000000000E+00  0.13436402987E+02  0.14234708470E+02  0.47000000000E+01 0.  1.
         -5   -1    0    0    0  501 -0.00000000000E+00 -0.00000000000E+00 -0.12775838889E+04  0.12775925341E+04  0.47000000000E+01 0.  1.
         25    2    1    2    0    0 -0.33646298661E+02  0.22438234837E+02 -0.73245210442E+03  0.74414111751E+03  0.12499747879E+03 0.  0.
         25    2    1    2    0    0  0.33646298661E+02 -0.22438234837E+02 -0.53169538154E+03  0.54768612510E+03  0.12499826032E+03 0.  0.
          5    1    4    4  502    0 -0.35966101325E+02  0.12862163429E+02 -0.31446955031E+03  0.31681569368E+03  0.47000000000E+01 0. -1.
         -5    1    4    4    0  502  0.69612399986E+02 -0.35300398266E+02 -0.21722583123E+03  0.23087043142E+03  0.47000000000E+01 0. -1.
          5    1    3    3  503    0  0.18958377594E+02  0.51449479659E+02 -0.17518323515E+03  0.18362386805E+03  0.47000000000E+01 0.  1.
         -5    1    3    3    0  503 -0.52604676255E+02 -0.29011244822E+02 -0.55726886926E+03  0.56051724946E+03  0.47000000000E+01 0.  1.
<mgrwt>
<rscale>  0 0.13137756E+03</rscale>
<asrwt>0</asrwt>
<pdfrwt beam="1">  1        5 0.21292131E-02 0.13137775E+03</pdfrwt>
<pdfrwt beam="2">  1       -5 0.19661335E+00 0.13137775E+03</pdfrwt>
<totfact> 0.95496175E+01</totfact>
</mgrwt>
</event>
<event>
 8    1  0.3488953E-007  0.1353107E+03  0.7546771E-02  0.1219782E+00
         -5   -1    0    0    0  501 -0.00000000000E+00  0.00000000000E+00  0.74430383534E+02  0.74578629600E+02  0.47000000000E+01 0. -1.
          5   -1    0    0  501    0  0.00000000000E+00 -0.00000000000E+00 -0.24641861727E+03  0.24646343530E+03  0.47000000000E+01 0. -1.
         25    2    1    2    0    0 -0.38409555854E+02 -0.34756534415E+02 -0.76584811565E+02  0.15548060085E+03  0.12500269282E+03 0.  0.
         25    2    1    2    0    0  0.38409555854E+02  0.34756534415E+02 -0.95403422175E+02  0.16556146405E+03  0.12500189899E+03 0.  0.
          5    1    4    4  502    0  0.59432926575E+02 -0.10726521780E+02 -0.33734186163E+01  0.60669605107E+02  0.47000000000E+01 0.  1.
         -5    1    4    4    0  502 -0.21023370720E+02  0.45483056195E+02 -0.92030003559E+02  0.10489185894E+03  0.47000000000E+01 0.  1.
          5    1    3    3  503    0 -0.32342259334E+02  0.12279991362E+02  0.25222268171E+02  0.43070555352E+02  0.47000000000E+01 0. -1.
         -5    1    3    3    0  503 -0.60672965204E+01 -0.47036525778E+02 -0.10180707974E+03  0.11241004550E+03  0.47000000000E+01 0. -1.
<mgrwt>
<rscale>  0 0.13531051E+03</rscale>
<asrwt>0</asrwt>
<pdfrwt beam="2">  1        5 0.37925407E-01 0.13531069E+03</pdfrwt>
<pdfrwt beam="1">  1       -5 0.11465680E-01 0.13531069E+03</pdfrwt>
<totfact> 0.30708114E+02</totfact>
</mgrwt>
</event>
<event>
 8    1  0.3488953E-007  0.2240696E+03  0.7546771E-02  0.1130885E+00
          5   -1    0    0  501    0  0.00000000000E+00  0.00000000000E+00  0.44376772077E+02  0.44624969468E+02  0.47000000000E+01 0.  1.
         -5   -1    0    0    0  501 -0.00000000000E+00 -0.00000000000E+00 -0.16125431258E+04  0.16125499752E+04  0.47000000000E+01 0.  1.
         25    2    1    2    0    0  0.17454523747E+02 -0.18514239289E+03 -0.12382618505E+04  0.12583715070E+04  0.12499629210E+03 0.  0.
         25    2    1    2    0    0 -0.17454523747E+02  0.18514239289E+03 -0.32990450318E+03  0.39880343770E+03  0.12499933862E+03 0.  0.
          5    1    4    4  502    0 -0.31872675808E+01 -0.18695719363E+02 -0.24977842489E+02  0.31712319570E+02  0.47000000000E+01 0. -1.
         -5    1    4    4    0  502 -0.14267256166E+02  0.20383811226E+03 -0.30492666069E+03  0.36709111813E+03  0.47000000000E+01 0. -1.
          5    1    3    3  503    0  0.25112234435E+02 -0.10489832382E+02 -0.48391782116E+02  0.55718179063E+02  0.47000000000E+01 0. -1.
         -5    1    3    3    0  503 -0.76577106883E+01 -0.17465256051E+03 -0.11898700684E+04  0.12026533279E+04  0.47000000000E+01 0. -1.
<mgrwt>
<rscale>  0 0.22406921E+03</rscale>
<asrwt>0</asrwt>
<pdfrwt beam="1">  1        5 0.68468159E-02 0.22406963E+03</pdfrwt>
<pdfrwt beam="2">  1       -5 0.24810313E+00 0.22406963E+03</pdfrwt>
<totfact> 0.72991199E+00</totfact>
</mgrwt>
</event>
<event>
 8    1  0.3488953E-007  0.1516244E+03  0.7546771E-02  0.1198493E+00
          5   -1    0    0  501    0  0.00000000000E+00  0.00000000000E+00  0.38679087549E+03  0.38681942992E+03  0.47000000000E+01 0.  1.
         -5   -1    0    0    0  501 -0.00000000000E+00 -0.00000000000E+00 -0.61623892650E+02  0.61802865187E+02  0.47000000000E+01 0.  1.
         25    2    1    2    0    0 -0.59015370944E+02  0.62300200152E+02  0.11920340063E+03  0.19286666329E+03  0.12499588049E+03 0.  0.
         25    2    1    2    0    0  0.59015370944E+02 -0.62300200152E+02  0.20596358221E+03  0.25575563182E+03  0.12500326820E+03 0.  0.
          5    1    3    3  502    0 -0.43840402276E+02 -0.21674609512E+02  0.38206908185E+01  0.49279379537E+02  0.47000000000E+01 0.  1.
         -5    1    3    3    0  502 -0.15174968667E+02  0.83974809664E+02  0.11538270981E+03  0.14358728375E+03  0.47000000000E+01 0.  1.
          5    1    4    4  503    0  0.46097213140E+01 -0.82132243380E+02  0.16574293569E+03  0.18509393741E+03  0.47000000000E+01 0. -1.
         -5    1    4    4    0  503  0.54405649630E+02  0.19832043228E+02  0.40220646519E+02  0.70661694408E+02  0.47000000000E+01 0. -1.
<mgrwt>
<rscale>  0 0.15162284E+03</rscale>
<asrwt>0</asrwt>
<pdfrwt beam="1">  1        5 0.59522252E-01 0.15162436E+03</pdfrwt>
<pdfrwt beam="2">  1       -5 0.94965625E-02 0.15162436E+03</pdfrwt>
<totfact> 0.17184857E+02</totfact>
</mgrwt>
</event>
<event>
 8    1  0.3488953E-007  0.1288941E+03  0.7546771E-02  0.1229107E+00
         -5   -1    0    0    0  501 -0.00000000000E+00  0.00000000000E+00  0.73974353348E+02  0.74123511474E+02  0.47000000000E+01 0. -1.
          5   -1    0    0  501    0  0.00000000000E+00 -0.00000000000E+00 -0.22423458564E+03  0.22428383668E+03  0.47000000000E+01 0. -1.
         25    2    1    2    0    0  0.14225100148E+01 -0.31404054597E+02 -0.72825373374E+02  0.14804165359E+03  0.12499823203E+03 0.  0.
         25    2    1    2    0    0 -0.14225100148E+01  0.31404054597E+02 -0.77434858914E+02  0.15036569456E+03  0.12500178617E+03 0.  0.
          5    1    4    4  502    0 -0.28553344381E+02 -0.41562826570E+02 -0.25852492341E+02  0.56861264391E+02  0.47000000000E+01 0. -1.
         -5    1    4    4    0  502  0.27130834366E+02  0.72966881167E+02 -0.51582366572E+02  0.93504430172E+02  0.47000000000E+01 0. -1.
          5    1    3    3  503    0 -0.38742583294E+02  0.20752535863E+02 -0.68987372572E+02  0.81932918167E+02  0.47000000000E+01 0.  1.
         -5    1    3    3    0  503  0.40165093308E+02 -0.52156590460E+02 -0.38380008019E+01  0.66108735422E+02  0.47000000000E+01 0.  1.
<mgrwt>
<rscale>  0 0.12889322E+03</rscale>
<asrwt>0</asrwt>
<pdfrwt beam="2">  1        5 0.34512890E-01 0.12889408E+03</pdfrwt>
<pdfrwt beam="1">  1       -5 0.11395932E-01 0.12889408E+03</pdfrwt>
<totfact> 0.36881461E+02</totfact>
</mgrwt>
</event>
<event>
 8    1  0.3488953E-007  0.1926123E+03  0.7546771E-02  0.1156126E+00
         -5   -1    0    0    0  501 -0.00000000000E+00  0.00000000000E+00  0.56920974457E+03  0.56922914833E+03  0.47000000000E+01 0. -1.
          5   -1    0    0  501    0  0.00000000000E+00 -0.00000000000E+00 -0.65084839747E+02  0.65254320661E+02  0.47000000000E+01 0. -1.
         25    2    1    2    0    0 -0.86663438481E+01 -0.14628788099E+03  0.24759102921E+03  0.31368892961E+03  0.12499670865E+03 0.  0.
         25    2    1    2    0    0  0.86663438481E+01  0.14628788099E+03  0.25653387561E+03  0.32079453938E+03  0.12499703006E+03 0.  0.
          5    1    3    3  502    0 -0.37387231845E+02 -0.34997200079E+02  0.16294846501E+03  0.17087100798E+03  0.47000000000E+01 0. -1.
         -5    1    3    3    0  502  0.28720887997E+02 -0.11129068091E+03  0.84642564201E+02  0.14281792163E+03  0.47000000000E+01 0. -1.
          5    1    4    4  503    0  0.12187137928E+02  0.26140995141E+02 -0.79124370201E+01  0.30274983359E+02  0.47000000000E+01 0.  1.
         -5    1    4    4    0  503 -0.35207940795E+01  0.12014688585E+03  0.26444631263E+03  0.29051955602E+03  0.47000000000E+01 0.  1.
<mgrwt>
<rscale>  0 0.19261227E+03</rscale>
<asrwt>0</asrwt>
<pdfrwt beam="2">  1        5 0.10027581E-01 0.19261232E+03</pdfrwt>
<pdfrwt beam="1">  1       -5 0.87585263E-01 0.19261232E+03</pdfrwt>
<totfact> 0.69579614E+01</totfact>
</mgrwt>
</event>
<event>
 8    1  0.3488953E-007  0.1255014E+03  0.7546771E-02  0.1234289E+00
          5   -1    0    0  501    0  0.00000000000E+00  0.00000000000E+00  0.15979168806E+04  0.15979237927E+04  0.47000000000E+01 0.  1.
         -5   -1    0    0    0  501 -0.00000000000E+00 -0.00000000000E+00 -0.10713189983E+02  0.11698822146E+02  0.47000000000E+01 0.  1.
         25    2    1    2    0    0 -0.93470490396E+01 -0.60957526054E+01  0.51370694825E+03  0.52881510869E+03  0.12500425983E+03 0.  0.
         25    2    1    2    0    0  0.93470490396E+01  0.60957526054E+01  0.10734967424E+04  0.10808075062E+04  0.12500033592E+03 0.  0.
          5    1    3    3  502    0 -0.32483792961E+02  0.26920571804E+02  0.45760565309E+03  0.45957038387E+03  0.47000000000E+01 0. -1.
         -5    1    3    3    0  502  0.23136743922E+02 -0.33016324409E+02  0.56101295154E+02  0.69244724816E+02  0.47000000000E+01 0. -1.
          5    1    4    4  503    0 -0.49070751345E+02  0.94162661110E+01  0.77321585247E+03  0.77484285453E+03  0.47000000000E+01 0.  1.
         -5    1    4    4    0  503  0.58417800385E+02 -0.33205135057E+01  0.30028088991E+03  0.30596465164E+03  0.47000000000E+01 0.  1.
<mgrwt>
<rscale>  0 0.12550038E+03</rscale>
<asrwt>0</asrwt>
<pdfrwt beam="1">  1        5 0.24590963E+00 0.12550136E+03</pdfrwt>
<pdfrwt beam="2">  1       -5 0.17245333E-02 0.12550136E+03</pdfrwt>
<totfact> 0.62759330E+01</totfact>
</mgrwt>
</event>
<event>
 8    1  0.3488953E-007  0.1351370E+03  0.7546771E-02  0.1220028E+00
          5   -1    0    0  501    0  0.00000000000E+00  0.00000000000E+00  0.24783454928E+03  0.24787911130E+03  0.47000000000E+01 0. -1.
         -5   -1    0    0    0  501 -0.00000000000E+00 -0.00000000000E+00 -0.12187897141E+03  0.12196956044E+03  0.47000000000E+01 0. -1.
         25    2    1    2    0    0 -0.38411335608E+02  0.34074791638E+02 -0.53382464250E+02  0.14529546057E+03  0.12499824496E+03 0.  0.
         25    2    1    2    0    0  0.38411335608E+02 -0.34074791638E+02  0.17933804212E+03  0.22455321117E+03  0.12500195665E+03 0.  0.
          5    1    4    4  502    0 -0.14780092827E+02  0.31345872965E+02  0.11754890845E+02  0.36895560094E+02  0.47000000000E+01 0.  1.
         -5    1    4    4    0  502  0.53191428435E+02 -0.65420664602E+02  0.16758315127E+03  0.18765765108E+03  0.47000000000E+01 0.  1.
          5    1    3    3  503    0 -0.56976245952E+02 -0.23447953906E+02  0.38639959288E+01  0.61912192738E+02  0.47000000000E+01 0. -1.
         -5    1    3    3    0  503  0.18564910343E+02  0.57522745543E+02 -0.57246460178E+02  0.83383267829E+02  0.47000000000E+01 0. -1.
<mgrwt>
<rscale>  0 0.13513615E+03</rscale>
<asrwt>0</asrwt>
<pdfrwt beam="1">  1        5 0.38138789E-01 0.13513701E+03</pdfrwt>
<pdfrwt beam="2">  1       -5 0.18761007E-01 0.13513701E+03</pdfrwt>
<totfact> 0.12467625E+02</totfact>
</mgrwt>
</event>
<event>
 8    1  0.3488953E-007  0.1508952E+03  0.7546771E-02  0.1199380E+00
         -5   -1    0    0    0  501 -0.00000000000E+00  0.00000000000E+00  0.12043373370E+03  0.12052540900E+03  0.47000000000E+01 0.  1.
          5   -1    0    0  501    0  0.00000000000E+00 -0.00000000000E+00 -0.18980902708E+03  0.18986720823E+03  0.47000000000E+01 0.  1.
         25    2    1    2    0    0  0.81233925591E+02  0.23349598380E+02 -0.23712959787E+02  0.15274702192E+03  0.12500077533E+03 0.  0.
         25    2    1    2    0    0 -0.81233925591E+02 -0.23349598380E+02 -0.45662333594E+02  0.15764559531E+03  0.12499172212E+03 0.  0.
          5    1    4    4  502    0 -0.88603591107E+02 -0.48032794284E+02 -0.69273470400E+02  0.12238729258E+03  0.47000000000E+01 0.  1.
         -5    1    4    4    0  502  0.73696655164E+01  0.24683195905E+02  0.23611136805E+02  0.35258302726E+02  0.47000000000E+01 0.  1.
          5    1    3    3  503    0 -0.12112465591E+02  0.30970537400E+02 -0.45423970291E+02  0.56491708122E+02  0.47000000000E+01 0. -1.
         -5    1    3    3    0  503  0.93346391181E+02 -0.76209390205E+01  0.21711010504E+02  0.96255313803E+02  0.47000000000E+01 0. -1.
<mgrwt>
<rscale>  0 0.15089328E+03</rscale>
<asrwt>0</asrwt>
<pdfrwt beam="2">  1        5 0.29212916E-01 0.15089516E+03</pdfrwt>
<pdfrwt beam="1">  1       -5 0.18539794E-01 0.15089516E+03</pdfrwt>
<totfact> 0.22484924E+02</totfact>
</mgrwt>
</event>
<event>
 8    1  0.3488953E-007  0.1286029E+03  0.7546771E-02  0.1229544E+00
          5   -1    0    0  501    0  0.00000000000E+00  0.00000000000E+00  0.21285021212E+03  0.21290209675E+03  0.47000000000E+01 0. -1.
         -5   -1    0    0    0  501 -0.00000000000E+00 -0.00000000000E+00 -0.78235327230E+02  0.78376376714E+02  0.47000000000E+01 0. -1.
         25    2    1    2    0    0 -0.91854223709E+00  0.30205763419E+02  0.53872729472E+02  0.13943091455E+03  0.12500190834E+03 0.  0.
         25    2    1    2    0    0  0.91854223709E+00 -0.30205763419E+02  0.80742155422E+02  0.15184755892E+03  0.12500061449E+03 0.  0.
          5    1    4    4  502    0  0.21199367867E+02  0.14173535163E+02  0.96840615181E+02  0.10025216729E+03  0.47000000000E+01 0.  1.
         -5    1    4    4    0  502 -0.20280825630E+02 -0.44379298581E+02 -0.16098459758E+02  0.51595391629E+02  0.47000000000E+01 0.  1.
          5    1    3    3  503    0 -0.10736440195E+02  0.52085217353E+02 -0.23470456101E+02  0.58318893374E+02  0.47000000000E+01 0. -1.
         -5    1    3    3    0  503  0.98178979579E+01 -0.21879453935E+02  0.77343185573E+02  0.81112021177E+02  0.47000000000E+01 0. -1.
<mgrwt>
<rscale>  0 0.12860260E+03</rscale>
<asrwt>0</asrwt>
<pdfrwt beam="1">  1        5 0.32761027E-01 0.12860291E+03</pdfrwt>
<pdfrwt beam="2">  1       -5 0.12051045E-01 0.12860291E+03</pdfrwt>
<totfact> 0.37034353E+02</totfact>
</mgrwt>
</event>
<event>
 8    1  0.3488953E-007  0.1420764E+03  0.7546771E-02  0.1210563E+00
         -5   -1    0    0    0  501 -0.00000000000E+00  0.00000000000E+00  0.58590060057E+03  0.58591945158E+03  0.47000000000E+01 0. -1.
          5   -1    0    0  501    0  0.00000000000E+00 -0.00000000000E+00 -0.35487137429E+02  0.35797023939E+02  0.47000000000E+01 0. -1.
         25    2    1    2    0    0 -0.61714711287E+02  0.27383629185E+02  0.33246272031E+03  0.36154828575E+03  0.12500853489E+03 0.  0.
         25    2    1    2    0    0  0.61714711287E+02 -0.27383629185E+02  0.21795074283E+03  0.26016818977E+03  0.12500556761E+03 0.  0.
          5    1    4    4  502    0  0.31329953967E+02 -0.55632140440E+02  0.35916617599E+02  0.73407046564E+02  0.47000000000E+01 0.  1.
         -5    1    4    4    0  502  0.30384757320E+02  0.28248511255E+02  0.18203412523E+03  0.18676114321E+03  0.47000000000E+01 0.  1.
          5    1    3    3  503    0 -0.59396554206E+02  0.74073890032E+02  0.22596353016E+03  0.24514587249E+03  0.47000000000E+01 0.  1.
         -5    1    3    3    0  503 -0.23181570808E+01 -0.46690260847E+02  0.10649919015E+03  0.11640241326E+03  0.47000000000E+01 0.  1.
<mgrwt>
<rscale>  0 0.14207574E+03</rscale>
<asrwt>0</asrwt>
<pdfrwt beam="2">  1        5 0.54848471E-02 0.14207640E+03</pdfrwt>
<pdfrwt beam="1">  1       -5 0.90163841E-01 0.14207640E+03</pdfrwt>
<totfact> 0.16653873E+02</totfact>
</mgrwt>
</event>
<event>
 8    1  0.3488953E-007  0.1770509E+03  0.7546771E-02  0.1170690E+00
          5   -1    0    0  501    0  0.00000000000E+00  0.00000000000E+00  0.78724567982E+02  0.78864742464E+02  0.47000000000E+01 0.  1.
         -5   -1    0    0    0  501 -0.00000000000E+00 -0.00000000000E+00 -0.40288103312E+03  0.40290844723E+03  0.47000000000E+01 0.  1.
         25    2    1    2    0    0 -0.74908402711E+02  0.10055352831E+03 -0.18950474224E+03  0.25934356597E+03  0.12499902811E+03 0.  0.
         25    2    1    2    0    0  0.74908402711E+02 -0.10055352831E+03 -0.13465172290E+03  0.22242962372E+03  0.12498627995E+03 0.  0.
          5    1    3    3  502    0 -0.39601867412E+02  0.19553405011E+02  0.59309634633E+01  0.44809707404E+02  0.47000000000E+01 0. -1.
         -5    1    3    3    0  502 -0.35306535299E+02  0.81000123301E+02 -0.19543570570E+03  0.21453385857E+03  0.47000000000E+01 0. -1.
          5    1    4    4  503    0  0.12192497469E+02 -0.11039621072E+03 -0.68261948466E+02  0.13045215193E+03  0.47000000000E+01 0.  1.
         -5    1    4    4    0  503  0.62715905241E+02  0.98426824041E+01 -0.66389774433E+02  0.91977471788E+02  0.47000000000E+01 0.  1.
<mgrwt>
<rscale>  0 0.17704870E+03</rscale>
<asrwt>0</asrwt>
<pdfrwt beam="1">  1        5 0.12124364E-01 0.17705095E+03</pdfrwt>
<pdfrwt beam="2">  1       -5 0.61994587E-01 0.17705095E+03</pdfrwt>
<totfact> 0.10714927E+02</totfact>
</mgrwt>
</event>
<event>
 8    1  0.3488953E-007  0.1305633E+03  0.7546771E-02  0.1226623E+00
         -5   -1    0    0    0  501 -0.00000000000E+00  0.00000000000E+00  0.69762250996E+02  0.69920395194E+02  0.47000000000E+01 0.  1.
          5   -1    0    0  501    0  0.00000000000E+00 -0.00000000000E+00 -0.44083301459E+03  0.44085806871E+03  0.47000000000E+01 0.  1.
         25    2    1    2    0    0  0.32257368942E+02  0.19511190250E+02 -0.14874436866E+02  0.13140787120E+03  0.12500222136E+03 0.  0.
         25    2    1    2    0    0 -0.32257368942E+02 -0.19511190250E+02 -0.35619632672E+03  0.37937059270E+03  0.12499999616E+03 0.  0.
          5    1    4    4  502    0 -0.18001575282E+01 -0.65369557971E+02 -0.11942521551E+03  0.13623836382E+03  0.47000000000E+01 0.  1.
         -5    1    4    4    0  502 -0.30457211413E+02  0.45858367722E+02 -0.23677111121E+03  0.24313222888E+03  0.47000000000E+01 0.  1.
          5    1    3    3  503    0  0.78615269976E+02  0.26835548688E+02 -0.12923518857E+02  0.84199849682E+02  0.47000000000E+01 0. -1.
         -5    1    3    3    0  503 -0.46357901035E+02 -0.73243584383E+01 -0.19509180095E+01  0.47208021521E+02  0.47000000000E+01 0. -1.
<mgrwt>
<rscale>  0 0.13056278E+03</rscale>
<asrwt>0</asrwt>
<pdfrwt beam="2">  1        5 0.67834554E-01 0.13056332E+03</pdfrwt>
<pdfrwt beam="1">  1       -5 0.10746746E-01 0.13056332E+03</pdfrwt>
<totfact> 0.98742676E+01</totfact>
</mgrwt>
</event>
<event>
 8    1  0.3488953E-007  0.1322796E+03  0.7546771E-02  0.1224115E+00
         -5   -1    0    0    0  501 -0.00000000000E+00  0.00000000000E+00  0.53458411005E+02  0.53664622492E+02  0.47000000000E+01 0.  1.
          5   -1    0    0  501    0  0.00000000000E+00 -0.00000000000E+00 -0.33280382834E+03  0.33283701441E+03  0.47000000000E+01 0.  1.
         25    2    1    2    0    0 -0.43042832617E+02  0.46829891739E+01 -0.11296519069E+03  0.17395123771E+03  0.12499313167E+03 0.  0.
         25    2    1    2    0    0  0.43042832617E+02 -0.46829891739E+01 -0.16638022664E+03  0.21255039919E+03  0.12498270500E+03 0.  0.
          5    1    4    4  502    0  0.17388329398E+02 -0.11516770846E+02  0.16928139065E+02  0.27269798352E+02  0.47000000000E+01 0. -1.
         -5    1    4    4    0  502  0.25654503219E+02  0.68337816722E+01 -0.18330836571E+03  0.18528060084E+03  0.47000000000E+01 0. -1.
          5    1    3    3  503    0  0.40651835433E+02 -0.27045494794E+01 -0.12448812682E+02  0.42859645929E+02  0.47000000000E+01 0.  1.
         -5    1    3    3    0  503 -0.83694668050E+02  0.73875386533E+01 -0.10051637801E+03  0.13109159178E+03  0.47000000000E+01 0.  1.
<mgrwt>
<rscale>  0 0.13227716E+03</rscale>
<asrwt>0</asrwt>
<pdfrwt beam="2">  1        5 0.51219003E-01 0.13227962E+03</pdfrwt>
<pdfrwt beam="1">  1       -5 0.82427863E-02 0.13227962E+03</pdfrwt>
<totfact> 0.29000323E+02</totfact>
</mgrwt>
</event>
<event>
 8    1  0.3488953E-007  0.1262177E+03  0.7546771E-02  0.1233179E+00
          5   -1    0    0  501    0  0.00000000000E+00  0.00000000000E+00  0.84400340443E+01  0.96604438132E+01  0.47000000000E+01 0. -1.
         -5   -1    0    0    0  501 -0.00000000000E+00 -0.00000000000E+00 -0.17835472779E+04  0.17835534706E+04  0.47000000000E+01 0. -1.
         25    2    1    2    0    0 -0.31928204566E+01 -0.17181270293E+02 -0.99268536462E+03  0.10006773453E+04  0.12500210459E+03 0.  0.
         25    2    1    2    0    0  0.31928204566E+01  0.17181270293E+02 -0.78242187924E+03  0.79253656910E+03  0.12499930440E+03 0.  0.
          5    1    3    3  502    0  0.56493536861E+02 -0.19132074605E+02 -0.33775976957E+03  0.34301794112E+03  0.47000000000E+01 0. -1.
         -5    1    3    3    0  502 -0.59686357318E+02  0.19508043111E+01 -0.65492559505E+03  0.65765940420E+03  0.47000000000E+01 0. -1.
          5    1    4    4  503    0 -0.42742295630E+02  0.36542236427E+01 -0.10659854143E+03  0.11500259224E+03  0.47000000000E+01 0.  1.
         -5    1    4    4    0  503  0.45935116086E+02  0.13527046651E+02 -0.67582333781E+03  0.67753397686E+03  0.47000000000E+01 0.  1.
<mgrwt>
<rscale>  0 0.12621704E+03</rscale>
<asrwt>0</asrwt>
<pdfrwt beam="1">  1        5 0.13928222E-02 0.12621773E+03</pdfrwt>
<pdfrwt beam="2">  1       -5 0.27448596E+00 0.12621773E+03</pdfrwt>
<totfact> 0.58099648E+01</totfact>
</mgrwt>
</event>
<event>
 8    1  0.3488953E-007  0.1803209E+03  0.7546771E-02  0.1167493E+00
         -5   -1    0    0    0  501 -0.00000000000E+00  0.00000000000E+00  0.33060230474E+03  0.33063571177E+03  0.47000000000E+01 0. -1.
          5   -1    0    0  501    0  0.00000000000E+00 -0.00000000000E+00 -0.11024832479E+03  0.11034846224E+03  0.47000000000E+01 0. -1.
         25    2    1    2    0    0  0.12735505230E+03 -0.25901756242E+02  0.18284871599E+03  0.25680413750E+03  0.12499800707E+03 0.  0.
         25    2    1    2    0    0 -0.12735505230E+03  0.25901756242E+02  0.37505263948E+02  0.18418003651E+03  0.12500172280E+03 0.  0.
          5    1    3    3  502    0  0.23999832973E+02 -0.44095859118E+02  0.55592875273E+01  0.50729009964E+02  0.47000000000E+01 0.  1.
         -5    1    3    3    0  502  0.10335521933E+03  0.18194102876E+02  0.17728942847E+03  0.20607512754E+03  0.47000000000E+01 0.  1.
          5    1    4    4  503    0 -0.11283703276E+03 -0.34336090150E+02  0.28024017943E+02  0.12132023175E+03  0.47000000000E+01 0.  1.
         -5    1    4    4    0  503 -0.14518019539E+02  0.60237846393E+02  0.94812460049E+01  0.62859804766E+02  0.47000000000E+01 0.  1.
<mgrwt>
<rscale>  0 0.18032030E+03</rscale>
<asrwt>0</asrwt>
<pdfrwt beam="2">  1        5 0.16971553E-01 0.18032094E+03</pdfrwt>
<pdfrwt beam="1">  1       -5 0.50872166E-01 0.18032094E+03</pdfrwt>
<totfact> 0.90036668E+01</totfact>
</mgrwt>
</event>
<event>
 8    1  0.3488953E-007  0.1268475E+03  0.7546771E-02  0.1232213E+00
         -5   -1    0    0    0  501 -0.00000000000E+00  0.00000000000E+00  0.36331643357E+02  0.36634386974E+02  0.47000000000E+01 0.  1.
          5   -1    0    0  501    0  0.00000000000E+00 -0.00000000000E+00 -0.50215001015E+03  0.50217200509E+03  0.47000000000E+01 0.  1.
         25    2    1    2    0    0 -0.10981987446E+02 -0.18566338034E+02 -0.13869518072E+03  0.18795382220E+03  0.12499989267E+03 0.  0.
         25    2    1    2    0    0  0.10981987446E+02  0.18566338034E+02 -0.32712318607E+03  0.35085256987E+03  0.12499053548E+03 0.  0.
          5    1    3    3  502    0 -0.54331966295E+02  0.11080616869E+02 -0.11953242938E+03  0.13185156164E+03  0.47000000000E+01 0. -1.
         -5    1    3    3    0  502  0.43349978849E+02 -0.29646954903E+02 -0.19162751339E+02  0.56102260562E+02  0.47000000000E+01 0. -1.
          5    1    4    4  503    0  0.43017173341E+02  0.38797549227E+02 -0.70329634186E+02  0.91236365957E+02  0.47000000000E+01 0.  1.
         -5    1    4    4    0  503 -0.32035185895E+02 -0.20231211193E+02 -0.25679355189E+03  0.25961620391E+03  0.47000000000E+01 0.  1.
<mgrwt>
<rscale>  0 0.12684519E+03</rscale>
<asrwt>0</asrwt>
<pdfrwt beam="2">  1        5 0.77278823E-01 0.12684749E+03</pdfrwt>
<pdfrwt beam="1">  1       -5 0.56144638E-02 0.12684749E+03</pdfrwt>
<totfact> 0.22085782E+02</totfact>
</mgrwt>
</event>
<event>
 8    1  0.3488953E-007  0.1562691E+03  0.7546771E-02  0.1192978E+00
         -5   -1    0    0    0  501 -0.00000000000E+00  0.00000000000E+00  0.47466953056E+02  0.47699073706E+02  0.47000000000E+01 0. -1.
          5   -1    0    0  501    0  0.00000000000E+00 -0.00000000000E+00 -0.52961828904E+03  0.52963914327E+03  0.47000000000E+01 0. -1.
         25    2    1    2    0    0  0.46815862657E+02 -0.81242852350E+02 -0.18983820607E+03  0.24587632361E+03  0.12499798388E+03 0.  0.
         25    2    1    2    0    0 -0.46815862657E+02  0.81242852350E+02 -0.29231312992E+03  0.33146189337E+03  0.12501157858E+03 0.  0.
          5    1    4    4  502    0 -0.24868454959E+02  0.12830054795E+01 -0.21966243910E+03  0.22111934178E+03  0.47000000000E+01 0. -1.
         -5    1    4    4    0  502 -0.21947407698E+02  0.79959846871E+02 -0.72650690814E+02  0.11034255159E+03  0.47000000000E+01 0. -1.
          5    1    3    3  503    0  0.87714760897E+02 -0.65635304071E+02 -0.15430566267E+03  0.18929923389E+03  0.47000000000E+01 0. -1.
         -5    1    3    3    0  503 -0.40898898240E+02 -0.15607548279E+02 -0.35532543393E+02  0.56577089714E+02  0.47000000000E+01 0. -1.
<mgrwt>
<rscale>  0 0.15626635E+03</rscale>
<asrwt>0</asrwt>
<pdfrwt beam="2">  1        5 0.81499192E-01 0.15626907E+03</pdfrwt>
<pdfrwt beam="1">  1       -5 0.73220681E-02 0.15626907E+03</pdfrwt>
<totfact> 0.13366384E+02</totfact>
</mgrwt>
</event>
<event>
 8    1  0.3488953E-007  0.1861713E+03  0.7546771E-02  0.1161961E+00
          5   -1    0    0  501    0  0.00000000000E+00  0.00000000000E+00  0.55775620486E+02  0.55973295781E+02  0.47000000000E+01 0.  1.
         -5   -1    0    0    0  501 -0.00000000000E+00 -0.00000000000E+00 -0.71123849372E+03  0.71125402280E+03  0.47000000000E+01 0.  1.
         25    2    1    2    0    0  0.13411759559E+03  0.32360845315E+02 -0.46502699464E+03  0.50090876059E+03  0.12499890774E+03 0.  0.
         25    2    1    2    0    0 -0.13411759559E+03 -0.32360845315E+02 -0.19043587859E+03  0.26631855799E+03  0.12499998688E+03 0.  0.
          5    1    3    3  502    0  0.57800754148E+02 -0.46196849816E+02 -0.14939861768E+03  0.16678463082E+03  0.47000000000E+01 0.  1.
         -5    1    3    3    0  502  0.76316841437E+02  0.78557695132E+02 -0.31562837696E+03  0.33412412977E+03  0.47000000000E+01 0.  1.
          5    1    4    4  503    0 -0.81908446895E+02  0.43098268737E+02 -0.11313122513E+03  0.14624369573E+03  0.47000000000E+01 0. -1.
         -5    1    4    4    0  503 -0.52209148691E+02 -0.75459114052E+02 -0.77304653463E+02  0.12007486226E+03  0.47000000000E+01 0. -1.
<mgrwt>
<rscale>  0 0.18617111E+03</rscale>
<asrwt>0</asrwt>
<pdfrwt beam="1">  1        5 0.85972655E-02 0.18617129E+03</pdfrwt>
<pdfrwt beam="2">  1       -5 0.10943770E+00 0.18617129E+03</pdfrwt>
<totfact> 0.52361398E+01</totfact>
</mgrwt>
</event>
<event>
 8    1  0.3488953E-007  0.1371977E+03  0.7546771E-02  0.1217150E+00
         -5   -1    0    0    0  501 -0.00000000000E+00  0.00000000000E+00  0.13314964841E+03  0.13323257436E+03  0.47000000000E+01 0.  1.
          5   -1    0    0  501    0  0.00000000000E+00 -0.00000000000E+00 -0.15857590000E+03  0.15864553590E+03  0.47000000000E+01 0.  1.
         25    2    1    2    0    0 -0.60420651474E+01  0.56235212129E+02  0.35568327395E+02  0.14173323105E+03  0.12499718891E+03 0.  0.
         25    2    1    2    0    0  0.60420651474E+01 -0.56235212129E+02 -0.60994578982E+02  0.15014487921E+03  0.12499696177E+03 0.  0.
          5    1    3    3  502    0  0.44593298445E+02  0.19381338620E+02  0.57281473940E+02  0.75282506664E+02  0.47000000000E+01 0.  1.
         -5    1    3    3    0  502 -0.50635363593E+02  0.36853873509E+02 -0.21713146545E+02  0.66450724388E+02  0.47000000000E+01 0.  1.
          5    1    4    4  503    0 -0.35876550080E+02 -0.78014717505E+02 -0.55510785163E+02  0.10235702351E+03  0.47000000000E+01 0. -1.
         -5    1    4    4    0  503  0.41918615228E+02  0.21779505376E+02 -0.54837938185E+01  0.47787855692E+02  0.47000000000E+01 0. -1.
<mgrwt>
<rscale>  0 0.13719763E+03</rscale>
<asrwt>0</asrwt>
<pdfrwt beam="2">  1        5 0.24408028E-01 0.13719768E+03</pdfrwt>
<pdfrwt beam="1">  1       -5 0.20496297E-01 0.13719768E+03</pdfrwt>
<totfact> 0.25574128E+02</totfact>
</mgrwt>
</event>
<event>
 8    1  0.3488953E-007  0.1635582E+03  0.7546771E-02  0.1184739E+00
          5   -1    0    0  501    0  0.00000000000E+00  0.00000000000E+00  0.77373877132E+02  0.77516494131E+02  0.47000000000E+01 0.  1.
         -5   -1    0    0    0  501 -0.00000000000E+00 -0.00000000000E+00 -0.34660979137E+03  0.34664165571E+03  0.47000000000E+01 0.  1.
         25    2    1    2    0    0 -0.41154880719E+02  0.97113008214E+02 -0.14790670348E+03  0.22051685266E+03  0.12500651504E+03 0.  0.
         25    2    1    2    0    0  0.41154880719E+02 -0.97113008214E+02 -0.12132921076E+03  0.20364129717E+03  0.12499735981E+03 0.  0.
          5    1    4    4  502    0  0.64970237494E+02 -0.17714551205E+01 -0.47661646679E+02  0.80734084360E+02  0.47000000000E+01 0.  1.
         -5    1    4    4    0  502 -0.23815356775E+02 -0.95341553093E+02 -0.73667564077E+02  0.12290721281E+03  0.47000000000E+01 0.  1.
          5    1    3    3  503    0  0.29287351971E+02  0.81561108097E+02 -0.10585465608E+03  0.13688411724E+03  0.47000000000E+01 0. -1.
         -5    1    3    3    0  503 -0.70442232690E+02  0.15551900116E+02 -0.42052047398E+02  0.83632735420E+02  0.47000000000E+01 0. -1.
<mgrwt>
<rscale>  0 0.16355646E+03</rscale>
<asrwt>0</asrwt>
<pdfrwt beam="1">  1        5 0.11917095E-01 0.16355821E+03</pdfrwt>
<pdfrwt beam="2">  1       -5 0.53338004E-01 0.16355821E+03</pdfrwt>
<totfact> 0.14980847E+02</totfact>
</mgrwt>
</event>
<event>
 8    1  0.3488953E-007  0.1469457E+03  0.7546771E-02  0.1204277E+00
         -5   -1    0    0    0  501 -0.00000000000E+00  0.00000000000E+00  0.34738023220E+03  0.34741202588E+03  0.47000000000E+01 0.  1.
          5   -1    0    0  501    0  0.00000000000E+00 -0.00000000000E+00 -0.13413654494E+03  0.13421886115E+03  0.47000000000E+01 0.  1.
         25    2    1    2    0    0  0.26041653070E+02  0.72728345332E+02  0.28307090590E+03  0.31893916316E+03  0.12500188846E+03 0.  0.
         25    2    1    2    0    0 -0.26041653070E+02 -0.72728345332E+02 -0.69827218643E+02  0.16269172387E+03  0.12500070658E+03 0.  0.
          5    1    3    3  502    0  0.72176693671E+02  0.50222649488E+02  0.22316335681E+03  0.23990782282E+03  0.47000000000E+01 0.  1.
         -5    1    3    3    0  502 -0.46135040601E+02  0.22505695844E+02  0.59907549092E+02  0.79031340333E+02  0.47000000000E+01 0.  1.
          5    1    4    4  503    0 -0.53738265009E+02 -0.39652965016E+00 -0.65668516222E+02  0.84984718537E+02  0.47000000000E+01 0.  1.
         -5    1    4    4    0  503  0.27696611939E+02 -0.72331815682E+02 -0.41587024207E+01  0.77707005338E+02  0.47000000000E+01 0.  1.
<mgrwt>
<rscale>  0 0.14694549E+03</rscale>
<asrwt>0</asrwt>
<pdfrwt beam="2">  1        5 0.20645169E-01 0.14694575E+03</pdfrwt>
<pdfrwt beam="1">  1       -5 0.53451891E-01 0.14694575E+03</pdfrwt>
<totfact> 0.52966618E+01</totfact>
</mgrwt>
</event>
<event>
 8    1  0.3488953E-007  0.1270554E+03  0.7546771E-02  0.1231893E+00
          5   -1    0    0  501    0  0.00000000000E+00  0.00000000000E+00  0.11990174134E+04  0.11990266251E+04  0.47000000000E+01 0. -1.
         -5   -1    0    0    0  501 -0.00000000000E+00 -0.00000000000E+00 -0.13079459047E+02  0.13898282231E+02  0.47000000000E+01 0. -1.
         25    2    1    2    0    0 -0.11632315807E+02  0.19514608815E+02  0.56213221084E+03  0.57631146925E+03  0.12500462551E+03 0.  0.
         25    2    1    2    0    0  0.11632315807E+02 -0.19514608815E+02  0.62380574351E+03  0.63661343805E+03  0.12500773233E+03 0.  0.
          5    1    3    3  502    0 -0.20349086806E+02  0.71242218141E+02  0.31517745535E+03  0.32380311509E+03  0.47000000000E+01 0.  1.
         -5    1    3    3    0  502  0.87167709991E+01 -0.51727609326E+02  0.24695475549E+03  0.25250835416E+03  0.47000000000E+01 0.  1.
          5    1    4    4  503    0  0.35312157469E+02 -0.25395319532E+02  0.60190162200E+03  0.60348945582E+03  0.47000000000E+01 0. -1.
         -5    1    4    4    0  503 -0.23679841662E+02  0.58807107167E+01  0.21904121507E+02  0.33123982228E+02  0.47000000000E+01 0. -1.
<mgrwt>
<rscale>  0 0.12705459E+03</rscale>
<asrwt>0</asrwt>
<pdfrwt beam="1">  1        5 0.18452786E+00 0.12705536E+03</pdfrwt>
<pdfrwt beam="2">  1       -5 0.20759200E-02 0.12705536E+03</pdfrwt>
<totfact> 0.11914795E+02</totfact>
</mgrwt>
</event>
<event>
 8    1  0.3488953E-007  0.1627644E+03  0.7546771E-02  0.1185614E+00
         -5   -1    0    0    0  501 -0.00000000000E+00  0.00000000000E+00  0.34788851574E+02  0.35104902703E+02  0.47000000000E+01 0. -1.
          5   -1    0    0  501    0  0.00000000000E+00 -0.00000000000E+00 -0.76254436620E+03  0.76255885047E+03  0.47000000000E+01 0. -1.
         25    2    1    2    0    0  0.52229192153E+02  0.90216008360E+02 -0.33205807670E+03  0.36979846699E+03  0.12498609207E+03 0.  0.
         25    2    1    2    0    0 -0.52229192153E+02 -0.90216008360E+02 -0.39569743793E+03  0.42786528618E+03  0.12500169621E+03 0.  0.
          5    1    3    3  502    0 -0.77554667864E+00 -0.29793749117E+02 -0.82004705692E+02  0.87379235032E+02  0.47000000000E+01 0. -1.
         -5    1    3    3    0  502  0.53004738832E+02  0.12000975748E+03 -0.25005337101E+03  0.28241923196E+03  0.47000000000E+01 0. -1.
          5    1    4    4  503    0 -0.45518136670E+02 -0.28715734127E+02 -0.34069471286E+03  0.34495140458E+03  0.47000000000E+01 0.  1.
         -5    1    4    4    0  503 -0.67110554833E+01 -0.61500274233E+02 -0.55002725068E+02  0.82913881596E+02  0.47000000000E+01 0.  1.
<mgrwt>
<rscale>  0 0.16276138E+03</rscale>
<asrwt>0</asrwt>
<pdfrwt beam="2">  1        5 0.11733993E+00 0.16276437E+03</pdfrwt>
<pdfrwt beam="1">  1       -5 0.53775574E-02 0.16276437E+03</pdfrwt>
<totfact> 0.94064181E+01</totfact>
</mgrwt>
</event>
<event>
 8    1  0.3488953E-007  0.1495398E+03  0.7546771E-02  0.1201040E+00
         -5   -1    0    0    0  501 -0.00000000000E+00  0.00000000000E+00  0.50329659416E+02  0.50548636153E+02  0.47000000000E+01 0.  1.
          5   -1    0    0  501    0  0.00000000000E+00 -0.00000000000E+00 -0.44651412452E+03  0.44653885989E+03  0.47000000000E+01 0.  1.
         25    2    1    2    0    0 -0.66670142060E+02 -0.47874558187E+02 -0.17640293330E+03  0.23125773798E+03  0.12500106133E+03 0.  0.
         25    2    1    2    0    0  0.66670142060E+02  0.47874558187E+02 -0.21978153180E+03  0.26582975806E+03  0.12499862955E+03 0.  0.
          5    1    4    4  502    0  0.83094836952E+02  0.45471099425E+02 -0.22783841931E+03  0.24678899514E+03  0.47000000000E+01 0. -1.
         -5    1    4    4    0  502 -0.16424694892E+02  0.24034587626E+01  0.80568875086E+01  0.19040762922E+02  0.47000000000E+01 0. -1.
          5    1    3    3  503    0 -0.56253995944E+01  0.24843077214E+02 -0.11548323564E+03  0.11835240310E+03  0.47000000000E+01 0. -1.
         -5    1    3    3    0  503 -0.61044742465E+02 -0.72717635402E+02 -0.60919697665E+02  0.11290533488E+03  0.47000000000E+01 0. -1.
<mgrwt>
<rscale>  0 0.14953927E+03</rscale>
<asrwt>0</asrwt>
<pdfrwt beam="2">  1        5 0.68713225E-01 0.14953978E+03</pdfrwt>
<pdfrwt beam="1">  1       -5 0.77617719E-02 0.14953978E+03</pdfrwt>
<totfact> 0.17624436E+02</totfact>
</mgrwt>
</event>
<event>
 8    1  0.3488953E-007  0.1359311E+03  0.7546771E-02  0.1218915E+00
         -5   -1    0    0    0  501 -0.00000000000E+00  0.00000000000E+00  0.25335074187E+03  0.25339433381E+03  0.47000000000E+01 0. -1.
          5   -1    0    0  501    0  0.00000000000E+00 -0.00000000000E+00 -0.87016317020E+02  0.87143154796E+02  0.47000000000E+01 0. -1.
         25    2    1    2    0    0 -0.49501893684E+02  0.19994751437E+02  0.15191285689E+03  0.20384347923E+03  0.12499768147E+03 0.  0.
         25    2    1    2    0    0  0.49501893684E+02 -0.19994751437E+02  0.14421567956E+02  0.13669400937E+03  0.12500817178E+03 0.  0.
          5    1    4    4  502    0 -0.32978083249E+02 -0.26857282465E+01 -0.26725338634E+02  0.42791364036E+02  0.47000000000E+01 0.  1.
         -5    1    4    4    0  502  0.82479976932E+02 -0.17309023190E+02  0.41146906590E+02  0.93902645333E+02  0.47000000000E+01 0.  1.
          5    1    3    3  503    0 -0.11579273582E+02  0.17654617100E+02 -0.18942162561E+02  0.28751706108E+02  0.47000000000E+01 0. -1.
         -5    1    3    3    0  503 -0.37922620102E+02  0.23401343365E+01  0.17085501945E+03  0.17509177313E+03  0.47000000000E+01 0. -1.
<mgrwt>
<rscale>  0 0.13592871E+03</rscale>
<asrwt>0</asrwt>
<pdfrwt beam="2">  1        5 0.13400236E-01 0.13593112E+03</pdfrwt>
<pdfrwt beam="1">  1       -5 0.38990146E-01 0.13593112E+03</pdfrwt>
<totfact> 0.22037097E+02</totfact>
</mgrwt>
</event>
<event>
 8    1  0.3488953E-007  0.1482143E+03  0.7546771E-02  0.1202686E+00
          5   -1    0    0  501    0  0.00000000000E+00  0.00000000000E+00  0.34718414117E+03  0.34721595280E+03  0.47000000000E+01 0.  1.
         -5   -1    0    0    0  501 -0.00000000000E+00 -0.00000000000E+00 -0.13921333086E+03  0.13929264693E+03  0.47000000000E+01 0. -1.
         25    2    1    2    0    0  0.46694969335E+01  0.79490279694E+02 -0.75720992509E+02  0.16643280311E+03  0.12500280188E+03 0.  0.
         25    2    1    2    0    0 -0.46694969335E+01 -0.79490279694E+02  0.28369180282E+03  0.32007579662E+03  0.12500787106E+03 0.  0.
          5    1    4    4  502    0  0.96625855815E+01  0.32161585679E+02  0.47198914914E+02  0.58116785205E+02  0.47000000000E+01 0.  1.
         -5    1    4    4    0  502 -0.14332082515E+02 -0.11165186537E+03  0.23649288790E+03  0.26195901141E+03  0.47000000000E+01 0.  1.
          5    1    3    3  503    0 -0.17395978261E+02  0.59766371713E+02 -0.10651832829E+03  0.12346207316E+03  0.47000000000E+01 0.  1.
         -5    1    3    3    0  503  0.22065475194E+02  0.19723907981E+02  0.30797335779E+02  0.42970729952E+02  0.47000000000E+01 0.  1.
<mgrwt>
<rscale>  0 0.14821322E+03</rscale>
<asrwt>0</asrwt>
<pdfrwt beam="1">  1        5 0.53421493E-01 0.14821429E+03</pdfrwt>
<pdfrwt beam="2">  1       -5 0.21425984E-01 0.14821429E+03</pdfrwt>
<totfact> 0.49587279E+01</totfact>
</mgrwt>
</event>
<event>
 8    1  0.3488953E-007  0.1377733E+03  0.7546771E-02  0.1216359E+00
         -5   -1    0    0    0  501 -0.00000000000E+00  0.00000000000E+00  0.20060166865E+03  0.20065672046E+03  0.47000000000E+01 0.  1.
          5   -1    0    0  501    0  0.00000000000E+00 -0.00000000000E+00 -0.94894022597E+02  0.95010344303E+02  0.47000000000E+01 0.  1.
         25    2    1    2    0    0 -0.16444275156E+02 -0.55551551492E+02  0.43240954867E+02  0.14439389570E+03  0.12499371135E+03 0.  0.
         25    2    1    2    0    0  0.16444275156E+02  0.55551551492E+02  0.62466691188E+02  0.15127316907E+03  0.12500038045E+03 0.  0.
          5    1    4    4  502    0  0.20228863759E+02 -0.14106037400E+02  0.76015595063E+02  0.80054031210E+02  0.47000000000E+01 0.  1.
         -5    1    4    4    0  502 -0.37845886031E+01  0.69657588892E+02 -0.13548903875E+02  0.71219137859E+02  0.47000000000E+01 0.  1.
          5    1    3    3  503    0 -0.42254353974E+01  0.40401706772E+02  0.11420974100E+02  0.42457989399E+02  0.47000000000E+01 0. -1.
         -5    1    3    3    0  503 -0.12218839759E+02 -0.95953258264E+02  0.31819980768E+02  0.10193590630E+03  0.47000000000E+01 0. -1.
<mgrwt>
<rscale>  0 0.13777179E+03</rscale>
<asrwt>0</asrwt>
<pdfrwt beam="2">  1        5 0.14612263E-01 0.13777331E+03</pdfrwt>
<pdfrwt beam="1">  1       -5 0.30874978E-01 0.13777331E+03</pdfrwt>
<totfact> 0.30231809E+02</totfact>
</mgrwt>
</event>
<event>
 8    1  0.3488953E-007  0.1343510E+03  0.7546771E-02  0.1221149E+00
         -5   -1    0    0    0  501 -0.00000000000E+00  0.00000000000E+00  0.18606899643E+03  0.18612834667E+03  0.47000000000E+01 0.  1.
          5   -1    0    0  501    0  0.00000000000E+00 -0.00000000000E+00 -0.98705569063E+02  0.98817404156E+02  0.47000000000E+01 0.  1.
         25    2    1    2    0    0  0.34377454810E+02 -0.35255115614E+02  0.63162866441E+02  0.14843256392E+03  0.12497177985E+03 0.  0.
         25    2    1    2    0    0 -0.34377454810E+02  0.35255115614E+02  0.24200560928E+02  0.13651318690E+03  0.12500180188E+03 0.  0.
          5    1    4    4  502    0 -0.34851940089E+02  0.71413936838E+02 -0.17098304359E+02  0.81418978836E+02  0.47000000000E+01 0.  1.
         -5    1    4    4    0  502  0.47448527964E+00 -0.36158821224E+02  0.41298865286E+02  0.55094208067E+02  0.47000000000E+01 0.  1.
          5    1    3    3  503    0 -0.20164294050E+01 -0.31534039048E+01 -0.36760836995E+02  0.37248611790E+02  0.47000000000E+01 0. -1.
         -5    1    3    3    0  503  0.36393884215E+02 -0.32101711709E+02  0.99923703436E+02  0.11118395213E+03  0.47000000000E+01 0. -1.
<mgrwt>
<rscale>  0 0.13434399E+03</rscale>
<asrwt>0</asrwt>
<pdfrwt beam="2">  1        5 0.15198640E-01 0.13435097E+03</pdfrwt>
<pdfrwt beam="1">  1       -5 0.28639167E-01 0.13435097E+03</pdfrwt>
<totfact> 0.32342553E+02</totfact>
</mgrwt>
</event>
<event>
 8    1  0.3488953E-007  0.1315810E+03  0.7546771E-02  0.1225137E+00
         -5   -1    0    0    0  501 -0.00000000000E+00  0.00000000000E+00  0.41519312911E+02  0.41784486889E+02  0.47000000000E+01 0.  1.
          5   -1    0    0  501    0  0.00000000000E+00 -0.00000000000E+00 -0.42196688387E+03  0.42199305810E+03  0.47000000000E+01 0.  1.
         25    2    1    2    0    0 -0.56788540443E+01 -0.40680467878E+02 -0.16115403758E+03  0.20804849609E+03  0.12500561206E+03 0.  0.
         25    2    1    2    0    0  0.56788540443E+01  0.40680467878E+02 -0.21929353338E+03  0.25572904889E+03  0.12498217000E+03 0.  0.
          5    1    4    4  502    0 -0.58945199450E+02  0.19194648595E+02 -0.12127806586E+03  0.13628437303E+03  0.47000000000E+01 0.  1.
         -5    1    4    4    0  502  0.64624053494E+02  0.21485819283E+02 -0.98015467516E+02  0.11944467587E+03  0.47000000000E+01 0.  1.
          5    1    3    3  503    0 -0.53934849379E+02  0.27106190559E+01 -0.30770263199E+02  0.62331489076E+02  0.47000000000E+01 0. -1.
         -5    1    3    3    0  503  0.48255995334E+02 -0.43391086934E+02 -0.13038377438E+03  0.14571700701E+03  0.47000000000E+01 0. -1.
<mgrwt>
<rscale>  0 0.13157541E+03</rscale>
<asrwt>0</asrwt>
<pdfrwt beam="2">  1        5 0.64940391E-01 0.13158097E+03</pdfrwt>
<pdfrwt beam="1">  1       -5 0.64099983E-02 0.13158097E+03</pdfrwt>
<totfact> 0.26520619E+02</totfact>
</mgrwt>
</event>
<event>
 8    1  0.3488953E-007  0.1396857E+03  0.7546771E-02  0.1213753E+00
          5   -1    0    0  501    0  0.00000000000E+00  0.00000000000E+00  0.27851686272E+02  0.28245467392E+02  0.47000000000E+01 0. -1.
         -5   -1    0    0    0  501 -0.00000000000E+00 -0.00000000000E+00 -0.69876530710E+03  0.69878111337E+03  0.47000000000E+01 0. -1.
         25    2    1    2    0    0 -0.50126783373E+02 -0.37073264666E+02 -0.36125940667E+03  0.38732473038E+03  0.12499986598E+03 0.  0.
         25    2    1    2    0    0  0.50126783373E+02  0.37073264666E+02 -0.30965421416E+03  0.33970185038E+03  0.12499797375E+03 0.  0.
          5    1    3    3  502    0 -0.40093337401E+02 -0.49250033972E+02 -0.66379818361E+02  0.91985932815E+02  0.47000000000E+01 0. -1.
         -5    1    3    3    0  502 -0.10033445971E+02  0.12176769306E+02 -0.29487958831E+03  0.29533879757E+03  0.47000000000E+01 0. -1.
          5    1    4    4  503    0  0.53659911434E+02  0.36746483329E+02 -0.55922264189E+02  0.85901570208E+02  0.47000000000E+01 0.  1.
         -5    1    4    4    0  503 -0.35331280611E+01  0.32678133639E+00 -0.25373194997E+03  0.25380028017E+03  0.47000000000E+01 0.  1.
<mgrwt>
<rscale>  0 0.13968525E+03</rscale>
<asrwt>0</asrwt>
<pdfrwt beam="1">  1        5 0.43163820E-02 0.13968568E+03</pdfrwt>
<pdfrwt beam="2">  1       -5 0.10753385E+00 0.13968568E+03</pdfrwt>
<totfact> 0.16072872E+02</totfact>
</mgrwt>
</event>
<event>
 8    1  0.3488953E-007  0.1496528E+03  0.7546771E-02  0.1200907E+00
         -5   -1    0    0    0  501 -0.00000000000E+00  0.00000000000E+00  0.79757869738E+03  0.79759254542E+03  0.47000000000E+01 0. -1.
          5   -1    0    0  501    0  0.00000000000E+00 -0.00000000000E+00 -0.32629188937E+02  0.32965951687E+02  0.47000000000E+01 0. -1.
         25    2    1    2    0    0 -0.64393307275E+02  0.51237892949E+02  0.54026818977E+03  0.56061188589E+03  0.12499660006E+03 0.  0.
         25    2    1    2    0    0  0.64393307275E+02 -0.51237892949E+02  0.22468131867E+03  0.26994661122E+03  0.12497062956E+03 0.  0.
          5    1    3    3  502    0 -0.56856172129E+02 -0.21817445717E+02  0.37161782142E+03  0.37660393046E+03  0.47000000000E+01 0.  1.
         -5    1    3    3    0  502 -0.75371351460E+01  0.73055338666E+02  0.16865036836E+03  0.18400795543E+03  0.47000000000E+01 0.  1.
          5    1    4    4  503    0  0.77090391178E+02 -0.40568735317E+02  0.63640569917E+02  0.10798593814E+03  0.47000000000E+01 0.  1.
         -5    1    4    4    0  503 -0.12697083903E+02 -0.10669157632E+02  0.16104074875E+03  0.16196067308E+03  0.47000000000E+01 0.  1.
<mgrwt>
<rscale>  0 0.14964741E+03</rscale>
<asrwt>0</asrwt>
<pdfrwt beam="2">  1        5 0.50468457E-02 0.14965283E+03</pdfrwt>
<pdfrwt beam="1">  1       -5 0.12273137E+00 0.14965283E+03</pdfrwt>
<totfact> 0.90894999E+01</totfact>
</mgrwt>
</event>
<event>
 8    1  0.3488953E-007  0.1438680E+03  0.7546771E-02  0.1208223E+00
         -5   -1    0    0    0  501 -0.00000000000E+00  0.00000000000E+00  0.18567322295E+02  0.19152949047E+02  0.47000000000E+01 0. -1.
          5   -1    0    0  501    0  0.00000000000E+00 -0.00000000000E+00 -0.12483943555E+04  0.12484032028E+04  0.47000000000E+01 0. -1.
         25    2    1    2    0    0  0.59552550143E+02 -0.39029954388E+02 -0.39401070588E+03  0.41944829212E+03  0.12499035899E+03 0.  0.
         25    2    1    2    0    0 -0.59552550143E+02  0.39029954388E+02 -0.83581632729E+03  0.84810785973E+03  0.12501266019E+03 0.  0.
          5    1    3    3  502    0  0.53999714200E+02  0.25964490696E+02 -0.29309429480E+03  0.29919304730E+03  0.47000000000E+01 0. -1.
         -5    1    3    3    0  502  0.55528359433E+01 -0.64994445085E+02 -0.10091641108E+03  0.12025524481E+03  0.47000000000E+01 0. -1.
          5    1    4    4  503    0 -0.37881487172E+02  0.24487337309E+01 -0.76073004977E+03  0.76169108042E+03  0.47000000000E+01 0.  1.
         -5    1    4    4    0  503 -0.21671062971E+02  0.36581220657E+02 -0.75086277518E+02  0.86416779312E+02  0.47000000000E+01 0.  1.
<mgrwt>
<rscale>  0 0.14386318E+03</rscale>
<asrwt>0</asrwt>
<pdfrwt beam="2">  1        5 0.19210633E+00 0.14386803E+03</pdfrwt>
<pdfrwt beam="1">  1       -5 0.29022409E-02 0.14386803E+03</pdfrwt>
<totfact> 0.64139679E+01</totfact>
</mgrwt>
</event>
<event>
 8    1  0.3488953E-007  0.1979417E+03  0.7546771E-02  0.1151487E+00
          5   -1    0    0  501    0  0.00000000000E+00  0.00000000000E+00  0.69672895717E+03  0.69674480964E+03  0.47000000000E+01 0. -1.
         -5   -1    0    0    0  501 -0.00000000000E+00 -0.00000000000E+00 -0.56697314215E+02  0.56891787098E+02  0.47000000000E+01 0. -1.
         25    2    1    2    0    0  0.13774717665E+03 -0.67690661714E+02  0.28208446864E+03  0.34460493195E+03  0.12499840526E+03 0.  0.
         25    2    1    2    0    0 -0.13774717665E+03  0.67690661714E+02  0.35794717432E+03  0.40903166479E+03  0.12499765133E+03 0.  0.
          5    1    4    4  502    0 -0.68733016796E+02 -0.11974038096E+02  0.57284818636E+02  0.90394942516E+02  0.47000000000E+01 0. -1.
         -5    1    4    4    0  502 -0.69014159857E+02  0.79664699810E+02  0.30066235568E+03  0.31863672228E+03  0.47000000000E+01 0. -1.
          5    1    3    3  503    0  0.29522453944E+02 -0.19628157096E+02 -0.29814444671E+01  0.35886193013E+02  0.47000000000E+01 0. -1.
         -5    1    3    3    0  503  0.10822472271E+03 -0.48062504617E+02  0.28506591311E+03  0.30871873894E+03  0.47000000000E+01 0. -1.
<mgrwt>
<rscale>  0 0.19794157E+03</rscale>
<asrwt>0</asrwt>
<pdfrwt beam="1">  1        5 0.10720525E+00 0.19794169E+03</pdfrwt>
<pdfrwt beam="2">  1       -5 0.87388426E-02 0.19794169E+03</pdfrwt>
<totfact> 0.54466267E+01</totfact>
</mgrwt>
</event>
<event>
 8    1  0.3488953E-007  0.1335586E+03  0.7546771E-02  0.1222277E+00
          5   -1    0    0  501    0  0.00000000000E+00  0.00000000000E+00  0.23631326080E+02  0.24094181296E+02  0.47000000000E+01 0. -1.
         -5   -1    0    0    0  501 -0.00000000000E+00 -0.00000000000E+00 -0.88226899746E+03  0.88228151623E+03  0.47000000000E+01 0. -1.
         25    2    1    2    0    0  0.62800042766E+01 -0.46572029360E+02 -0.60674241003E+03  0.62126323541E+03  0.12499305250E+03 0.  0.
         25    2    1    2    0    0 -0.62800042766E+01  0.46572029360E+02 -0.25189526135E+03  0.28511246211E+03  0.12501800266E+03 0.  0.
          5    1    4    4  502    0 -0.47988807417E+02  0.33028409435E+02 -0.45529918004E+02  0.74086874010E+02  0.47000000000E+01 0.  1.
         -5    1    4    4    0  502  0.41708803141E+02  0.13543619925E+02 -0.20636534334E+03  0.21102558810E+03  0.47000000000E+01 0.  1.
          5    1    3    3  503    0  0.28126134145E+02 -0.72918841788E+02 -0.54428746342E+03  0.54989014334E+03  0.47000000000E+01 0.  1.
         -5    1    3    3    0  503 -0.21846129868E+02  0.26346812428E+02 -0.62454946612E+02  0.71373092070E+02  0.47000000000E+01 0.  1.
<mgrwt>
<rscale>  0 0.13355274E+03</rscale>
<asrwt>0</asrwt>
<pdfrwt beam="1">  1        5 0.36721565E-02 0.13355858E+03</pdfrwt>
<pdfrwt beam="2">  1       -5 0.13577023E+00 0.13355858E+03</pdfrwt>
<totfact> 0.11394816E+02</totfact>
</mgrwt>
</event>
<event>
 8    1  0.3488953E-007  0.1621367E+03  0.7546771E-02  0.1186305E+00
         -5   -1    0    0    0  501 -0.00000000000E+00  0.00000000000E+00  0.86777488727E+02  0.86904675075E+02  0.47000000000E+01 0.  1.
          5   -1    0    0  501    0  0.00000000000E+00 -0.00000000000E+00 -0.35361705415E+03  0.35364828712E+03  0.47000000000E+01 0.  1.
         25    2    1    2    0    0 -0.91425734091E+02  0.48009323231E+02 -0.49747344521E+02  0.16959686132E+03  0.12499894844E+03 0.  0.
         25    2    1    2    0    0  0.91425734091E+02 -0.48009323231E+02 -0.21709222090E+03  0.27095610088E+03  0.12499846501E+03 0.  0.
          5    1    3    3  502    0 -0.69684073891E+02 -0.10901978508E+02  0.22097416644E+02  0.74061522478E+02  0.47000000000E+01 0.  1.
         -5    1    3    3    0  502 -0.21741660201E+02  0.58911301739E+02 -0.71844761165E+02  0.95535338842E+02  0.47000000000E+01 0.  1.
          5    1    4    4  503    0  0.41250767107E+02 -0.68641667763E+02 -0.48395898606E+02  0.93688619064E+02  0.47000000000E+01 0. -1.
         -5    1    4    4    0  503  0.50174966984E+02  0.20632344532E+02 -0.16869632229E+03  0.17726748181E+03  0.47000000000E+01 0. -1.
<mgrwt>
<rscale>  0 0.16213657E+03</rscale>
<asrwt>0</asrwt>
<pdfrwt beam="2">  1        5 0.54414809E-01 0.16213666E+03</pdfrwt>
<pdfrwt beam="1">  1       -5 0.13362569E-01 0.16213666E+03</pdfrwt>
<totfact> 0.11665696E+02</totfact>
</mgrwt>
</event>
<event>
 8    1  0.3488953E-007  0.1553481E+03  0.7546771E-02  0.1194052E+00
         -5   -1    0    0    0  501 -0.00000000000E+00  0.00000000000E+00  0.16469861034E+04  0.16469928096E+04  0.47000000000E+01 0.  1.
          5   -1    0    0  501    0  0.00000000000E+00 -0.00000000000E+00 -0.15215655710E+02  0.15925017384E+02  0.47000000000E+01 0.  1.
         25    2    1    2    0    0 -0.70406250059E+02 -0.59584681158E+02  0.10184373358E+04  0.10302168398E+04  0.12499902325E+03 0.  0.
         25    2    1    2    0    0  0.70406250059E+02  0.59584681158E+02  0.61333311197E+03  0.63270098722E+03  0.12500263484E+03 0.  0.
          5    1    4    4  502    0  0.66108254492E+02  0.95532442814E+02  0.51069304652E+03  0.52376161247E+03  0.47000000000E+01 0. -1.
         -5    1    4    4    0  502  0.42979955664E+01 -0.35947761656E+02  0.10264006545E+03  0.10893937475E+03  0.47000000000E+01 0. -1.
          5    1    3    3  503    0 -0.94316896469E+01  0.73595105572E+01  0.67160838161E+03  0.67173136551E+03  0.47000000000E+01 0.  1.
         -5    1    3    3    0  503 -0.60974560412E+02 -0.66944191715E+02  0.34682895416E+03  0.35848547427E+03  0.47000000000E+01 0.  1.
<mgrwt>
<rscale>  0 0.15534738E+03</rscale>
<asrwt>0</asrwt>
<pdfrwt beam="2">  1        5 0.23959511E-02 0.15534810E+03</pdfrwt>
<pdfrwt beam="1">  1       -5 0.25343768E+00 0.15534810E+03</pdfrwt>
<totfact> 0.35342690E+01</totfact>
</mgrwt>
</event>
<event>
 8    1  0.3488953E-007  0.1257632E+03  0.7546771E-02  0.1233882E+00
         -5   -1    0    0    0  501 -0.00000000000E+00  0.00000000000E+00  0.66590425640E+02  0.66756084269E+02  0.47000000000E+01 0. -1.
          5   -1    0    0  501    0  0.00000000000E+00 -0.00000000000E+00 -0.23924684206E+03  0.23929300332E+03  0.47000000000E+01 0. -1.
         25    2    1    2    0    0 -0.52814232681E+00 -0.13801191289E+02 -0.71603374275E+02  0.14471846700E+03  0.12500255865E+03 0.  0.
         25    2    1    2    0    0  0.52814232681E+00  0.13801191289E+02 -0.10105304215E+03  0.16133062058E+03  0.12500039998E+03 0.  0.
          5    1    3    3  502    0 -0.11615921943E+02  0.22644465710E+02 -0.95873592080E+02  0.99305272409E+02  0.47000000000E+01 0.  1.
         -5    1    3    3    0  502  0.11087779616E+02 -0.36445657000E+02  0.24270217805E+02  0.45413194594E+02  0.47000000000E+01 0.  1.
          5    1    4    4  503    0 -0.34075236654E+02  0.41825229440E+02 -0.38250583407E+01  0.54288052479E+02  0.47000000000E+01 0. -1.
         -5    1    4    4    0  503  0.34603378980E+02 -0.28024038150E+02 -0.97227983807E+02  0.10704256810E+03  0.47000000000E+01 0. -1.
<mgrwt>
<rscale>  0 0.12576270E+03</rscale>
<asrwt>0</asrwt>
<pdfrwt beam="2">  1        5 0.36823500E-01 0.12576324E+03</pdfrwt>
<pdfrwt beam="1">  1       -5 0.10260975E-01 0.12576324E+03</pdfrwt>
<totfact> 0.38573672E+02</totfact>
</mgrwt>
</event>
<event>
 8    1  0.3488953E-007  0.1408060E+03  0.7546771E-02  0.1212249E+00
         -5   -1    0    0    0  501 -0.00000000000E+00  0.00000000000E+00  0.29261394762E+02  0.29636450925E+02  0.47000000000E+01 0.  1.
          5   -1    0    0  501    0  0.00000000000E+00 -0.00000000000E+00 -0.68956760145E+03  0.68958361855E+03  0.47000000000E+01 0.  1.
         25    2    1    2    0    0 -0.62051333403E+02  0.18724276097E+02 -0.27419071422E+03  0.30823183425E+03  0.12500139754E+03 0.  0.
         25    2    1    2    0    0  0.62051333403E+02 -0.18724276097E+02 -0.38611549247E+03  0.41098823523E+03  0.12500075791E+03 0.  0.
          5    1    4    4  502    0  0.86413988032E+02 -0.10348493937E+02 -0.15045478510E+03  0.17387697091E+03  0.47000000000E+01 0.  1.
         -5    1    4    4    0  502 -0.24362654629E+02 -0.83757821597E+01 -0.23566070737E+03  0.23711126431E+03  0.47000000000E+01 0.  1.
          5    1    3    3  503    0  0.10042873901E+01  0.30687777264E+02 -0.50070111819E+01  0.31462810229E+02  0.47000000000E+01 0.  1.
         -5    1    3    3    0  503 -0.63055620793E+02 -0.11963501167E+02 -0.26918370304E+03  0.27676902402E+03  0.47000000000E+01 0.  1.
<mgrwt>
<rscale>  0 0.14080581E+03</rscale>
<asrwt>0</asrwt>
<pdfrwt beam="2">  1        5 0.10611739E+00 0.14080595E+03</pdfrwt>
<pdfrwt beam="1">  1       -5 0.45318361E-02 0.14080595E+03</pdfrwt>
<totfact> 0.15366279E+02</totfact>
</mgrwt>
</event>
<event>
 8    1  0.3488953E-007  0.1264932E+03  0.7546771E-02  0.1232755E+00
          5   -1    0    0  501    0  0.00000000000E+00  0.00000000000E+00  0.40221115585E+03  0.40223861561E+03  0.47000000000E+01 0. -1.
         -5   -1    0    0    0  501 -0.00000000000E+00 -0.00000000000E+00 -0.44491434948E+02  0.44738996231E+02  0.47000000000E+01 0. -1.
         25    2    1    2    0    0 -0.10019116101E+02 -0.16581728172E+02  0.10509394981E+03  0.16445272107E+03  0.12499849112E+03 0.  0.
         25    2    1    2    0    0  0.10019116101E+02  0.16581728172E+02  0.25262577109E+03  0.28252489078E+03  0.12500078917E+03 0.  0.
          5    1    4    4  502    0  0.48616353852E+02  0.36223311548E+02  0.21958729660E+03  0.22785159422E+03  0.47000000000E+01 0.  1.
         -5    1    4    4    0  502 -0.38597237751E+02 -0.19641583376E+02  0.33038474491E+02  0.54673296555E+02  0.47000000000E+01 0.  1.
          5    1    3    3  503    0 -0.54359328221E+02 -0.23366296358E+02  0.10351336835E+03  0.11932320729E+03  0.47000000000E+01 0.  1.
         -5    1    3    3    0  503  0.44340212120E+02  0.67845681856E+01  0.15805814606E+01  0.45129513780E+02  0.47000000000E+01 0.  1.
<mgrwt>
<rscale>  0 0.12649265E+03</rscale>
<asrwt>0</asrwt>
<pdfrwt beam="1">  1        5 0.61899792E-01 0.12649322E+03</pdfrwt>
<pdfrwt beam="2">  1       -5 0.68659919E-02 0.12649322E+03</pdfrwt>
<totfact> 0.25879495E+02</totfact>
</mgrwt>
</event>
<event>
 8    1  0.3488953E-007  0.1320510E+03  0.7546771E-02  0.1224448E+00
          5   -1    0    0  501    0  0.00000000000E+00  0.00000000000E+00  0.27472090287E+02  0.27871235078E+02  0.47000000000E+01 0.  1.
         -5   -1    0    0    0  501 -0.00000000000E+00 -0.00000000000E+00 -0.64009346504E+03  0.64011072010E+03  0.47000000000E+01 0.  1.
         25    2    1    2    0    0 -0.23852302110E+02  0.35213178785E+02 -0.34886565814E+03  0.37301661280E+03  0.12500098287E+03 0.  0.
         25    2    1    2    0    0  0.23852302110E+02 -0.35213178785E+02 -0.26375571661E+03  0.29496534238E+03  0.12501429871E+03 0.  0.
          5    1    4    4  502    0  0.10735845740E+01 -0.68052400563E+02 -0.23704181385E+03  0.24666413058E+03  0.47000000000E+01 0. -1.
         -5    1    4    4    0  502  0.22778717536E+02  0.32839221778E+02 -0.26713902763E+02  0.48301211790E+02  0.47000000000E+01 0. -1.
          5    1    3    3  503    0  0.54621401024E+01  0.13785610342E+02  0.56990715274E+01  0.16566455362E+02  0.47000000000E+01 0.  1.
         -5    1    3    3    0  503 -0.29314442213E+02  0.21427568443E+02 -0.35456472967E+03  0.35645015744E+03  0.47000000000E+01 0.  1.
<mgrwt>
<rscale>  0 0.13204788E+03</rscale>
<asrwt>0</asrwt>
<pdfrwt beam="1">  1        5 0.42585067E-02 0.13205103E+03</pdfrwt>
<pdfrwt beam="2">  1       -5 0.98507938E-01 0.13205103E+03</pdfrwt>
<totfact> 0.20004248E+02</totfact>
</mgrwt>
</event>
<event>
 8    1  0.3488953E-007  0.1287217E+03  0.7546771E-02  0.1229369E+00
         -5   -1    0    0    0  501 -0.00000000000E+00  0.00000000000E+00  0.32569444615E+03  0.32572835654E+03  0.47000000000E+01 0.  1.
          5   -1    0    0  501    0  0.00000000000E+00 -0.00000000000E+00 -0.92043872163E+02  0.92163791170E+02  0.47000000000E+01 0.  1.
         25    2    1    2    0    0  0.28193521286E+02  0.12074910226E+02  0.25667104437E+03  0.28713985335E+03  0.12501436823E+03 0.  0.
         25    2    1    2    0    0 -0.28193521286E+02 -0.12074910226E+02 -0.23020470387E+02  0.13075229435E+03  0.12500216927E+03 0.  0.
          5    1    3    3  502    0  0.34826545328E+02 -0.52701450201E+02  0.13187303903E+03  0.14629736681E+03  0.47000000000E+01 0. -1.
         -5    1    3    3    0  502 -0.66330240413E+01  0.64776360427E+02  0.12479800534E+03  0.14084248654E+03  0.47000000000E+01 0. -1.
          5    1    4    4  503    0  0.29411198686E+02  0.20845365436E+02  0.28844281905E+02  0.46407224296E+02  0.47000000000E+01 0. -1.
         -5    1    4    4    0  503 -0.57604719972E+02 -0.32920275662E+02 -0.51864752292E+02  0.84345070057E+02  0.47000000000E+01 0. -1.
<mgrwt>
<rscale>  0 0.12871872E+03</rscale>
<asrwt>0</asrwt>
<pdfrwt beam="2">  1        5 0.14172428E-01 0.12872168E+03</pdfrwt>
<pdfrwt beam="1">  1       -5 0.50118672E-01 0.12872168E+03</pdfrwt>
<totfact> 0.11614005E+02</totfact>
</mgrwt>
</event>
<event>
 8    1  0.3488953E-007  0.2166633E+03  0.7546771E-02  0.1136396E+00
         -5   -1    0    0    0  501 -0.00000000000E+00  0.00000000000E+00  0.33595693342E+03  0.33598980804E+03  0.47000000000E+01 0. -1.
          5   -1    0    0  501    0  0.00000000000E+00 -0.00000000000E+00 -0.16085595137E+03  0.16092460064E+03  0.47000000000E+01 0. -1.
         25    2    1    2    0    0 -0.11311576735E+03  0.13609571439E+03  0.17773684446E+03  0.28023805695E+03  0.12500304951E+03 0.  0.
         25    2    1    2    0    0  0.11311576735E+03 -0.13609571439E+03 -0.26358624165E+01  0.21667635174E+03  0.12499789332E+03 0.  0.
          5    1    3    3  502    0 -0.12244618261E+03  0.66584013967E+02  0.14960736145E+03  0.20452616252E+03  0.47000000000E+01 0. -1.
         -5    1    3    3    0  502  0.93304152648E+01  0.69511700424E+02  0.28129483004E+02  0.75711894435E+02  0.47000000000E+01 0. -1.
          5    1    4    4  503    0 -0.65097320051E+01 -0.54824029813E+02  0.37026043114E+02  0.66641343957E+02  0.47000000000E+01 0. -1.
         -5    1    4    4    0  503  0.11962549935E+03 -0.81271684578E+02 -0.39661905531E+02  0.15003500778E+03  0.47000000000E+01 0. -1.
<mgrwt>
<rscale>  0 0.21666255E+03</rscale>
<asrwt>0</asrwt>
<pdfrwt beam="2">  1        5 0.24754879E-01 0.21666329E+03</pdfrwt>
<pdfrwt beam="1">  1       -5 0.51693491E-01 0.21666329E+03</pdfrwt>
<totfact> 0.44879738E+01</totfact>
</mgrwt>
</event>
<event>
 8    1  0.3488953E-007  0.1386740E+03  0.7546771E-02  0.1215145E+00
         -5   -1    0    0    0  501 -0.00000000000E+00  0.00000000000E+00  0.11779785033E+03  0.11789157537E+03  0.47000000000E+01 0. -1.
          5   -1    0    0  501    0  0.00000000000E+00 -0.00000000000E+00 -0.20074867286E+03  0.20080368437E+03  0.47000000000E+01 0. -1.
         25    2    1    2    0    0  0.42428595033E+02 -0.42290839317E+02  0.27601964016E+02  0.14139430754E+03  0.12506710607E+03 0.  0.
         25    2    1    2    0    0 -0.42428595033E+02  0.42290839317E+02 -0.11055278655E+03  0.17730095220E+03  0.12500003308E+03 0.  0.
          5    1    4    4  502    0 -0.19133526480E+02  0.86101661494E+02 -0.77395477251E+02  0.11743822992E+03  0.47000000000E+01 0. -1.
         -5    1    4    4    0  502 -0.23295068553E+02 -0.43810822177E+02 -0.33157309297E+02  0.59862722278E+02  0.47000000000E+01 0. -1.
          5    1    3    3  503    0  0.54198546489E+02  0.24724236022E+02  0.40223596973E+02  0.72033312029E+02  0.47000000000E+01 0. -1.
         -5    1    3    3    0  503 -0.11769951456E+02 -0.67015075339E+02 -0.12621632957E+02  0.69360995512E+02  0.47000000000E+01 0. -1.
<mgrwt>
<rscale>  0 0.13865889E+03</rscale>
<asrwt>0</asrwt>
<pdfrwt beam="2">  1        5 0.30895852E-01 0.13867401E+03</pdfrwt>
<pdfrwt beam="1">  1       -5 0.18134188E-01 0.13867401E+03</pdfrwt>
<totfact> 0.20401027E+02</totfact>
</mgrwt>
</event>
<event>
 8    1  0.3488953E-007  0.1962186E+03  0.7546771E-02  0.1152969E+00
          5   -1    0    0  501    0  0.00000000000E+00  0.00000000000E+00  0.39630559355E+02  0.39908285290E+02  0.47000000000E+01 0. -1.
         -5   -1    0    0    0  501 -0.00000000000E+00 -0.00000000000E+00 -0.12286690570E+04  0.12286780464E+04  0.47000000000E+01 0. -1.
         25    2    1    2    0    0  0.35155331004E+02  0.14710901144E+03 -0.88673233719E+03  0.90818272825E+03  0.12499868607E+03 0.  0.
         25    2    1    2    0    0 -0.35155331004E+02 -0.14710901144E+03 -0.30230616048E+03  0.36040360344E+03  0.12499913665E+03 0.  0.
          5    1    3    3  502    0  0.59204211463E+02  0.15203816944E+02 -0.31622061736E+03  0.32210846550E+03  0.47000000000E+01 0.  1.
         -5    1    3    3    0  502 -0.24048880459E+02  0.13190519449E+03 -0.57051171983E+03  0.58607426274E+03  0.47000000000E+01 0.  1.
          5    1    4    4  503    0 -0.17935352998E+02 -0.16244610836E+03 -0.21574220347E+03  0.27069762349E+03  0.47000000000E+01 0. -1.
         -5    1    4    4    0  503 -0.17219978006E+02  0.15337096919E+02 -0.86563957016E+02  0.89705979949E+02  0.47000000000E+01 0. -1.
<mgrwt>
<rscale>  0 0.19621854E+03</rscale>
<asrwt>0</asrwt>
<pdfrwt beam="1">  1        5 0.61190651E-02 0.19621861E+03</pdfrwt>
<pdfrwt beam="2">  1       -5 0.18904803E+00 0.19621861E+03</pdfrwt>
<totfact> 0.21293193E+01</totfact>
</mgrwt>
</event>
<event>
 8    1  0.3488953E-007  0.1421611E+03  0.7546771E-02  0.1210450E+00
          5   -1    0    0  501    0  0.00000000000E+00  0.00000000000E+00  0.82866460413E+02  0.82999640128E+02  0.47000000000E+01 0.  1.
         -5   -1    0    0    0  501 -0.00000000000E+00 -0.00000000000E+00 -0.25371262864E+03  0.25375615842E+03  0.47000000000E+01 0.  1.
         25    2    1    2    0    0 -0.66527640951E+02  0.12605168859E+02 -0.11914062710E+03  0.18548373956E+03  0.12499964529E+03 0.  0.
         25    2    1    2    0    0  0.66527640951E+02 -0.12605168859E+02 -0.51705541131E+02  0.15127205899E+03  0.12499982222E+03 0.  0.
          5    1    3    3  502    0 -0.53855487862E+01 -0.82165468264E+01  0.25106053133E+02  0.27366396938E+02  0.47000000000E+01 0. -1.
         -5    1    3    3    0  502 -0.61142092165E+02  0.20821715685E+02 -0.14424668023E+03  0.15811734262E+03  0.47000000000E+01 0. -1.
          5    1    4    4  503    0  0.62069143031E+02  0.38525361899E+02 -0.65162160954E+02  0.98004996027E+02  0.47000000000E+01 0.  1.
         -5    1    4    4    0  503  0.44584979196E+01 -0.51130530758E+02  0.13456619824E+02  0.53267062960E+02  0.47000000000E+01 0.  1.
<mgrwt>
<rscale>  0 0.14216104E+03</rscale>
<asrwt>0</asrwt>
<pdfrwt beam="1">  1        5 0.12762279E-01 0.14216108E+03</pdfrwt>
<pdfrwt beam="2">  1       -5 0.39046305E-01 0.14216108E+03</pdfrwt>
<totfact> 0.24338321E+02</totfact>
</mgrwt>
</event>
<event>
 8    1  0.3488953E-007  0.1263098E+03  0.7546771E-02  0.1233047E+00
         -5   -1    0    0    0  501 -0.00000000000E+00  0.00000000000E+00  0.40995861411E+03  0.40998555497E+03  0.47000000000E+01 0.  1.
          5   -1    0    0  501    0  0.00000000000E+00 -0.00000000000E+00 -0.38790009185E+02  0.39073709993E+02  0.47000000000E+01 0.  1.
         25    2    1    2    0    0 -0.17574942848E+02 -0.36194404196E+01  0.19376182575E+03  0.23128108106E+03  0.12500125749E+03 0.  0.
         25    2    1    2    0    0  0.17574942848E+02  0.36194404196E+01  0.17740677918E+03  0.21777818390E+03  0.12502876917E+03 0.  0.
          5    1    4    4  502    0  0.68185656117E+02  0.19378537487E+02  0.81662562361E+02  0.10823897406E+03  0.47000000000E+01 0.  1.
         -5    1    4    4    0  502 -0.50610713269E+02 -0.15759097068E+02  0.95744216814E+02  0.10953920984E+03  0.47000000000E+01 0.  1.
          5    1    3    3  503    0 -0.61448799554E+00 -0.53478861329E+02  0.15945777426E+03  0.16825349320E+03  0.47000000000E+01 0. -1.
         -5    1    3    3    0  503 -0.16960454852E+02  0.49859420909E+02  0.34304051491E+02  0.63027587855E+02  0.47000000000E+01 0. -1.
<mgrwt>
<rscale>  0 0.12630302E+03</rscale>
<asrwt>0</asrwt>
<pdfrwt beam="2">  1        5 0.59915894E-02 0.12630983E+03</pdfrwt>
<pdfrwt beam="1">  1       -5 0.63094449E-01 0.12630983E+03</pdfrwt>
<totfact> 0.31201261E+02</totfact>
</mgrwt>
</event>
<event>
 8    1  0.3488953E-007  0.1591066E+03  0.7546771E-02  0.1189710E+00
         -5   -1    0    0    0  501 -0.00000000000E+00  0.00000000000E+00  0.61173847661E+03  0.61175653144E+03  0.47000000000E+01 0.  1.
          5   -1    0    0  501    0  0.00000000000E+00 -0.00000000000E+00 -0.45579669737E+02  0.45821351937E+02  0.47000000000E+01 0.  1.
         25    2    1    2    0    0 -0.50338617328E+01 -0.98304324532E+02  0.38435792092E+03  0.41598631904E+03  0.12499810505E+03 0.  0.
         25    2    1    2    0    0  0.50338617328E+01  0.98304324532E+02  0.18180088595E+03  0.24159156434E+03  0.12500336733E+03 0.  0.
          5    1    3    3  502    0  0.37451342863E+02 -0.99034133212E+01  0.22826837352E+03  0.23157983726E+03  0.47000000000E+01 0.  1.
         -5    1    3    3    0  502 -0.42485204596E+02 -0.88400911211E+02  0.15608954740E+03  0.18440648178E+03  0.47000000000E+01 0.  1.
          5    1    4    4  503    0 -0.23903716058E+02 -0.23482345420E+02  0.39427441393E+02  0.51955955602E+02  0.47000000000E+01 0. -1.
         -5    1    4    4    0  503  0.28937577791E+02  0.12178666995E+03  0.14237344456E+03  0.18963560874E+03  0.47000000000E+01 0. -1.
<mgrwt>
<rscale>  0 0.15910560E+03</rscale>
<asrwt>0</asrwt>
<pdfrwt beam="2">  1        5 0.70322366E-02 0.15910664E+03</pdfrwt>
<pdfrwt beam="1">  1       -5 0.94133592E-01 0.15910664E+03</pdfrwt>
<totfact> 0.10240564E+02</totfact>
</mgrwt>
</event>
<event>
 8    1  0.3488953E-007  0.1300478E+03  0.7546771E-02  0.1227385E+00
         -5   -1    0    0    0  501 -0.00000000000E+00  0.00000000000E+00  0.22940366480E+03  0.22945180632E+03  0.47000000000E+01 0. -1.
          5   -1    0    0  501    0  0.00000000000E+00 -0.00000000000E+00 -0.16977840481E+03  0.16984344774E+03  0.47000000000E+01 0. -1.
         25    2    1    2    0    0  0.13468784474E+02  0.33265170895E+02  0.18001611780E+03  0.22207709516E+03  0.12499781509E+03 0.  0.
         25    2    1    2    0    0 -0.13468784474E+02 -0.33265170895E+02 -0.12039085782E+03  0.17721815890E+03  0.12499734977E+03 0.  0.
          5    1    3    3  502    0  0.24143592157E+02 -0.42781085145E+02  0.45548176353E+02  0.67155496108E+02  0.47000000000E+01 0. -1.
         -5    1    3    3    0  502 -0.10674807683E+02  0.76046256040E+02  0.13446794144E+03  0.15492159905E+03  0.47000000000E+01 0. -1.
          5    1    4    4  503    0  0.25191510063E+02 -0.22566547789E+02  0.13988849903E+02  0.36900395390E+02  0.47000000000E+01 0. -1.
         -5    1    4    4    0  503 -0.38660294537E+02 -0.10698623107E+02 -0.13437970772E+03  0.14031776351E+03  0.47000000000E+01 0. -1.
<mgrwt>
<rscale>  0 0.13004770E+03</rscale>
<asrwt>0</asrwt>
<pdfrwt beam="2">  1        5 0.26128461E-01 0.13004781E+03</pdfrwt>
<pdfrwt beam="1">  1       -5 0.35301578E-01 0.13004781E+03</pdfrwt>
<totfact> 0.76987738E+01</totfact>
</mgrwt>
</event>
<event>
 8    1  0.3488953E-007  0.1530670E+03  0.7546771E-02  0.1196776E+00
          5   -1    0    0  501    0  0.00000000000E+00  0.00000000000E+00  0.46241795159E+03  0.46244183630E+03  0.47000000000E+01 0.  1.
         -5   -1    0    0    0  501 -0.00000000000E+00 -0.00000000000E+00 -0.16245724676E+03  0.16252521966E+03  0.47000000000E+01 0.  1.
         25    2    1    2    0    0  0.70158275516E+02  0.53695800402E+02 -0.10927313486E+03  0.18806945665E+03  0.12499631962E+03 0.  0.
         25    2    1    2    0    0 -0.70158275516E+02 -0.53695800402E+02  0.40923383969E+03  0.43689759931E+03  0.12490698191E+03 0.  0.
          5    1    3    3  502    0 -0.32743381772E+02 -0.46496074340E+01 -0.14471684402E+02  0.36404224324E+02  0.47000000000E+01 0.  1.
         -5    1    3    3    0  502  0.10290165729E+03  0.58345407836E+02 -0.94801450456E+02  0.15166523233E+03  0.47000000000E+01 0.  1.
          5    1    4    4  503    0 -0.31675503127E+02 -0.27343009343E+02  0.37851920670E+03  0.38085411577E+03  0.47000000000E+01 0.  1.
         -5    1    4    4    0  503 -0.38482772389E+02 -0.26352791059E+02  0.30714632990E+02  0.56043483538E+02  0.47000000000E+01 0.  1.
<mgrwt>
<rscale>  0 0.15304875E+03</rscale>
<asrwt>0</asrwt>
<pdfrwt beam="1">  1        5 0.71148290E-01 0.15306699E+03</pdfrwt>
<pdfrwt beam="2">  1       -5 0.25000488E-01 0.15306699E+03</pdfrwt>
<totfact> 0.19851847E+01</totfact>
</mgrwt>
</event>
<event>
 8    1  0.3488953E-007  0.1465873E+03  0.7546771E-02  0.1204732E+00
         -5   -1    0    0    0  501 -0.00000000000E+00  0.00000000000E+00  0.23725407978E+03  0.23730062868E+03  0.47000000000E+01 0. -1.
          5   -1    0    0  501    0  0.00000000000E+00 -0.00000000000E+00 -0.90702899888E+02  0.90824589447E+02  0.47000000000E+01 0. -1.
         25    2    1    2    0    0 -0.53491051265E+02  0.54787245830E+02  0.64608760333E+02  0.16018955123E+03  0.12499386202E+03 0.  0.
         25    2    1    2    0    0  0.53491051265E+02 -0.54787245830E+02  0.81942419556E+02  0.16793566689E+03  0.12499957288E+03 0.  0.
          5    1    3    3  502    0  0.36931388127E+02 -0.52429436927E+01  0.21517862717E+02  0.43318867754E+02  0.47000000000E+01 0.  1.
         -5    1    3    3    0  502 -0.90422439392E+02  0.60030189522E+02  0.43090897615E+02  0.11687068348E+03  0.47000000000E+01 0.  1.
          5    1    4    4  503    0  0.40204072484E+02 -0.87968910622E+02  0.24116935900E+02  0.99792851836E+02  0.47000000000E+01 0.  1.
         -5    1    4    4    0  503  0.13286978780E+02  0.33181664793E+02  0.57825483656E+02  0.68142815055E+02  0.47000000000E+01 0.  1.
<mgrwt>
<rscale>  0 0.14658605E+03</rscale>
<asrwt>0</asrwt>
<pdfrwt beam="2">  1        5 0.13967234E-01 0.14658727E+03</pdfrwt>
<pdfrwt beam="1">  1       -5 0.36513569E-01 0.14658727E+03</pdfrwt>
<totfact> 0.23968476E+02</totfact>
</mgrwt>
</event>
<event>
 8    1  0.3488953E-007  0.1616168E+03  0.7546771E-02  0.1186884E+00
         -5   -1    0    0    0  501 -0.00000000000E+00  0.00000000000E+00  0.13016500241E+02  0.13839049047E+02  0.47000000000E+01 0. -1.
          5   -1    0    0  501    0  0.00000000000E+00 -0.00000000000E+00 -0.20821428495E+04  0.20821481542E+04  0.47000000000E+01 0. -1.
         25    2    1    2    0    0  0.73807728105E+02  0.71043746401E+02 -0.76505716642E+03  0.78194145751E+03  0.12500072182E+03 0.  0.
         25    2    1    2    0    0 -0.73807728105E+02 -0.71043746401E+02 -0.13040691829E+04  0.13140457457E+04  0.12499997370E+03 0.  0.
          5    1    3    3  502    0  0.86152146764E+02  0.42180898189E+02 -0.72247566020E+03  0.72883097502E+03  0.47000000000E+01 0. -1.
         -5    1    3    3    0  502 -0.12344418659E+02  0.28862848212E+02 -0.42581506224E+02  0.53110482499E+02  0.47000000000E+01 0. -1.
          5    1    4    4  503    0  0.27170283282E+02  0.87106596721E+01 -0.14567483763E+03  0.14851716468E+03  0.47000000000E+01 0. -1.
         -5    1    4    4    0  503 -0.10097801139E+03 -0.79754406073E+02 -0.11583943453E+04  0.11655285810E+04  0.47000000000E+01 0. -1.
<mgrwt>
<rscale>  0 0.16161661E+03</rscale>
<asrwt>0</asrwt>
<pdfrwt beam="2">  1        5 0.32039309E+00 0.16161675E+03</pdfrwt>
<pdfrwt beam="1">  1       -5 0.20662212E-02 0.16161675E+03</pdfrwt>
<totfact> 0.16972098E+01</totfact>
</mgrwt>
</event>
<event>
 8    1  0.3488953E-007  0.1375268E+03  0.7546771E-02  0.1216696E+00
         -5   -1    0    0    0  501 -0.00000000000E+00  0.00000000000E+00  0.39795305361E+02  0.40071889508E+02  0.47000000000E+01 0. -1.
          5   -1    0    0  501    0  0.00000000000E+00 -0.00000000000E+00 -0.48195608822E+03  0.48197900470E+03  0.47000000000E+01 0. -1.
         25    2    1    2    0    0 -0.56771623141E+02  0.81154474220E+01 -0.18617866488E+03  0.23146447712E+03  0.12499772491E+03 0.  0.
         25    2    1    2    0    0  0.56771623141E+02 -0.81154474220E+01 -0.25598211797E+03  0.29058641708E+03  0.12499897356E+03 0.  0.
          5    1    3    3  502    0  0.19326859015E+02  0.22020086286E+02 -0.13585634497E+03  0.13905915342E+03  0.47000000000E+01 0.  1.
         -5    1    3    3    0  502 -0.76098482155E+02 -0.13904638864E+02 -0.50322319909E+02  0.92405323706E+02  0.47000000000E+01 0.  1.
          5    1    4    4  503    0  0.11301568425E+02  0.28876150786E+02 -0.37457190557E+01  0.31586040340E+02  0.47000000000E+01 0.  1.
         -5    1    4    4    0  503  0.45470054716E+02 -0.36991598208E+02 -0.25223639892E+03  0.25900037674E+03  0.47000000000E+01 0.  1.
<mgrwt>
<rscale>  0 0.13752652E+03</rscale>
<asrwt>0</asrwt>
<pdfrwt beam="2">  1        5 0.74170125E-01 0.13752680E+03</pdfrwt>
<pdfrwt beam="1">  1       -5 0.61453935E-02 0.13752680E+03</pdfrwt>
<totfact> 0.21439880E+02</totfact>
</mgrwt>
</event>
<event>
 8    1  0.3488953E-007  0.1288968E+03  0.7546771E-02  0.1229105E+00
         -5   -1    0    0    0  501 -0.00000000000E+00  0.00000000000E+00  0.29033021571E+03  0.29036825611E+03  0.47000000000E+01 0. -1.
          5   -1    0    0  501    0  0.00000000000E+00 -0.00000000000E+00 -0.57248715023E+02  0.57441321118E+02  0.47000000000E+01 0. -1.
         25    2    1    2    0    0 -0.30650436423E+02 -0.69392208356E+01  0.10723821427E+03  0.16766816978E+03  0.12499991408E+03 0.  0.
         25    2    1    2    0    0  0.30650436423E+02  0.69392208356E+01  0.12584328642E+03  0.18014140745E+03  0.12500716740E+03 0.  0.
          5    1    3    3  502    0 -0.48402080047E+02  0.36277097696E+02  0.12518463748E+02  0.61948293799E+02  0.47000000000E+01 0. -1.
         -5    1    3    3    0  502  0.17751643623E+02 -0.43216318531E+02  0.94719750521E+02  0.10571987598E+03  0.47000000000E+01 0. -1.
          5    1    4    4  503    0  0.63954791676E+02  0.18605500069E+02  0.21901266790E+02  0.70271868470E+02  0.47000000000E+01 0. -1.
         -5    1    4    4    0  503 -0.33304355253E+02 -0.11666279234E+02  0.10394201963E+03  0.10986953898E+03  0.47000000000E+01 0. -1.
<mgrwt>
<rscale>  0 0.12889508E+03</rscale>
<asrwt>0</asrwt>
<pdfrwt beam="2">  1        5 0.88252367E-02 0.12889683E+03</pdfrwt>
<pdfrwt beam="1">  1       -5 0.44683929E-01 0.12889683E+03</pdfrwt>
<totfact> 0.34031634E+02</totfact>
</mgrwt>
</event>
<event>
 8    1  0.3488953E-007  0.1744435E+03  0.7546771E-02  0.1173293E+00
         -5   -1    0    0    0  501 -0.00000000000E+00  0.00000000000E+00  0.51010318787E+02  0.51226386002E+02  0.47000000000E+01 0.  1.
          5   -1    0    0  501    0  0.00000000000E+00 -0.00000000000E+00 -0.60002589646E+03  0.60004430371E+03  0.47000000000E+01 0.  1.
         25    2    1    2    0    0 -0.44128445024E+02  0.11339260036E+03 -0.30414887186E+03  0.35062383999E+03  0.12500135776E+03 0.  0.
         25    2    1    2    0    0  0.44128445024E+02 -0.11339260036E+03 -0.24486670581E+03  0.30064684972E+03  0.12499449250E+03 0.  0.
          5    1    3    3  502    0 -0.73011911251E+02  0.94181341586E+02 -0.28869515612E+03  0.31235852391E+03  0.47000000000E+01 0.  1.
         -5    1    3    3    0  502  0.28883466227E+02  0.19211258778E+02 -0.15453715731E+02  0.38265316084E+02  0.47000000000E+01 0.  1.
          5    1    4    4  503    0  0.70378649809E+02 -0.15462394744E+02 -0.88402759902E+02  0.11414630068E+03  0.47000000000E+01 0. -1.
         -5    1    4    4    0  503 -0.26250204786E+02 -0.97930205620E+02 -0.15646394591E+03  0.18650054905E+03  0.47000000000E+01 0. -1.
<mgrwt>
<rscale>  0 0.17444229E+03</rscale>
<asrwt>0</asrwt>
<pdfrwt beam="2">  1        5 0.92329708E-01 0.17444352E+03</pdfrwt>
<pdfrwt beam="1">  1       -5 0.78657783E-02 0.17444352E+03</pdfrwt>
<totfact> 0.90963859E+01</totfact>
</mgrwt>
</event>
<event>
 8    1  0.3488953E-007  0.1812221E+03  0.7546771E-02  0.1166627E+00
         -5   -1    0    0    0  501 -0.00000000000E+00  0.00000000000E+00  0.45644212072E+03  0.45646631811E+03  0.47000000000E+01 0.  1.
          5   -1    0    0  501    0  0.00000000000E+00 -0.00000000000E+00 -0.75505737595E+02  0.75651876446E+02  0.47000000000E+01 0.  1.
         25    2    1    2    0    0  0.53026912918E+02 -0.12001519305E+03  0.24897687451E+03  0.30794244423E+03  0.12499425931E+03 0.  0.
         25    2    1    2    0    0 -0.53026912918E+02  0.12001519305E+03  0.13195950861E+03  0.22417575033E+03  0.12500382020E+03 0.  0.
          5    1    3    3  502    0  0.85845238078E+02 -0.58719984404E+02  0.18997225702E+03  0.21663099941E+03  0.47000000000E+01 0.  1.
         -5    1    3    3    0  502 -0.32818325160E+02 -0.61295208644E+02  0.59004617489E+02  0.91311444814E+02  0.47000000000E+01 0. -1.
          5    1    4    4  503    0  0.35427826124E+02  0.45242087329E+02  0.76169698232E+02  0.95529525585E+02  0.47000000000E+01 0.  1.
         -5    1    4    4    0  503 -0.88454739041E+02  0.74773105718E+02  0.55789810382E+02  0.12864622474E+03  0.47000000000E+01 0.  1.
<mgrwt>
<rscale>  0 0.18122047E+03</rscale>
<asrwt>0</asrwt>
<pdfrwt beam="2">  1        5 0.11629370E-01 0.18122212E+03</pdfrwt>
<pdfrwt beam="1">  1       -5 0.70234967E-01 0.18122212E+03</pdfrwt>
<totfact> 0.87851707E+01</totfact>
</mgrwt>
</event>
<event>
 8    1  0.3488953E-007  0.1319161E+03  0.7546771E-02  0.1224640E+00
          5   -1    0    0  501    0  0.00000000000E+00  0.00000000000E+00  0.13237329002E+03  0.13245670202E+03  0.47000000000E+01 0. -1.
         -5   -1    0    0    0  501 -0.00000000000E+00 -0.00000000000E+00 -0.16551456928E+03  0.16558128712E+03  0.47000000000E+01 0. -1.
         25    2    1    2    0    0  0.69279993869E+01 -0.41578565978E+02 -0.84298265331E+02  0.15654984832E+03  0.12499953259E+03 0.  0.
         25    2    1    2    0    0 -0.69279993869E+01  0.41578565978E+02  0.51156986067E+02  0.14148814082E+03  0.12500032978E+03 0.  0.
          5    1    3    3  502    0 -0.25804484845E+02  0.53796752574E+01  0.22705993298E+02  0.35106473415E+02  0.47000000000E+01 0. -1.
         -5    1    3    3    0  502  0.32732484231E+02 -0.46958241235E+02 -0.10700425863E+03  0.12144337491E+03  0.47000000000E+01 0. -1.
          5    1    4    4  503    0 -0.47581581998E+01 -0.16881718937E+02 -0.33718959606E+02  0.38297398614E+02  0.47000000000E+01 0.  1.
         -5    1    4    4    0  503 -0.21698411870E+01  0.58460284914E+02  0.84875945673E+02  0.10319074221E+03  0.47000000000E+01 0.  1.
<mgrwt>
<rscale>  0 0.13191591E+03</rscale>
<asrwt>0</asrwt>
<pdfrwt beam="1">  1        5 0.20376670E-01 0.13191610E+03</pdfrwt>
<pdfrwt beam="2">  1       -5 0.25475328E-01 0.13191610E+03</pdfrwt>
<totfact> 0.23503291E+02</totfact>
</mgrwt>
</event>
<event>
 8    1  0.3488953E-007  0.2155014E+03  0.7546771E-02  0.1137285E+00
          5   -1    0    0  501    0  0.00000000000E+00  0.00000000000E+00  0.12871920468E+04  0.12872006275E+04  0.47000000000E+01 0. -1.
         -5   -1    0    0    0  501 -0.00000000000E+00 -0.00000000000E+00 -0.38631667614E+02  0.38916522746E+02  0.47000000000E+01 0. -1.
         25    2    1    2    0    0 -0.84933935591E+02  0.15362739976E+03  0.44912048717E+03  0.49814071374E+03  0.12497922754E+03 0.  0.
         25    2    1    2    0    0  0.84933935591E+02 -0.15362739976E+03  0.79943989202E+03  0.82797643647E+03  0.12500274811E+03 0.  0.
          5    1    3    3  502    0 -0.56036991338E+02  0.13916681617E+03  0.43900612970E+03  0.46395691506E+03  0.47000000000E+01 0. -1.
         -5    1    3    3    0  502 -0.28896944254E+02  0.14460583592E+02  0.10114357473E+02  0.34183798679E+02  0.47000000000E+01 0. -1.
          5    1    4    4  503    0  0.59644742608E+02 -0.17315812545E+03  0.68077181789E+03  0.70499190759E+03  0.47000000000E+01 0. -1.
         -5    1    4    4    0  503  0.25289192983E+02  0.19530725697E+02  0.11866807412E+03  0.12298452888E+03  0.47000000000E+01 0. -1.
<mgrwt>
<rscale>  0 0.21549795E+03</rscale>
<asrwt>0</asrwt>
<pdfrwt beam="1">  1        5 0.19805205E+00 0.21550137E+03</pdfrwt>
<pdfrwt beam="2">  1       -5 0.59659075E-02 0.21550137E+03</pdfrwt>
<totfact> 0.19641712E+01</totfact>
</mgrwt>
</event>
<event>
 8    1  0.3488953E-007  0.1590374E+03  0.7546771E-02  0.1189788E+00
         -5   -1    0    0    0  501 -0.00000000000E+00  0.00000000000E+00  0.58827429816E+03  0.58829307311E+03  0.47000000000E+01 0.  1.
          5   -1    0    0  501    0  0.00000000000E+00 -0.00000000000E+00 -0.43456599655E+02  0.43710022347E+02  0.47000000000E+01 0.  1.
         25    2    1    2    0    0  0.63762090811E+02 -0.74845787447E+02  0.23510121604E+03  0.28384048683E+03  0.12500137621E+03 0.  0.
         25    2    1    2    0    0 -0.63762090811E+02  0.74845787447E+02  0.30971648246E+03  0.34816260863E+03  0.12500162566E+03 0.  0.
          5    1    4    4  502    0 -0.19810445201E+02  0.16751186903E+02  0.25643559115E+03  0.25778742873E+03  0.47000000000E+01 0. -1.
         -5    1    4    4    0  502 -0.43951645609E+02  0.58094600544E+02  0.53280891314E+02  0.90375179908E+02  0.47000000000E+01 0. -1.
          5    1    3    3  503    0 -0.10953044808E+02 -0.80623955882E+02  0.97416270942E+02  0.12701264227E+03  0.47000000000E+01 0.  1.
         -5    1    3    3    0  503  0.74715135619E+02  0.57781684354E+01  0.13768494510E+03  0.15682784455E+03  0.47000000000E+01 0.  1.
<mgrwt>
<rscale>  0 0.15903738E+03</rscale>
<asrwt>0</asrwt>
<pdfrwt beam="2">  1        5 0.67065694E-02 0.15903742E+03</pdfrwt>
<pdfrwt beam="1">  1       -5 0.90524671E-01 0.15903742E+03</pdfrwt>
<totfact> 0.12187358E+02</totfact>
</mgrwt>
</event>
<event>
 8    1  0.3488953E-007  0.1337706E+03  0.7546771E-02  0.1221976E+00
          5   -1    0    0  501    0  0.00000000000E+00  0.00000000000E+00  0.18854914128E+03  0.18860771107E+03  0.47000000000E+01 0. -1.
         -5   -1    0    0    0  501 -0.00000000000E+00 -0.00000000000E+00 -0.10281062319E+03  0.10291799765E+03  0.47000000000E+01 0. -1.
         25    2    1    2    0    0  0.47027571352E+02 -0.75883761705E+01  0.21031830997E+01  0.13378717971E+03  0.12500164061E+03 0.  0.
         25    2    1    2    0    0 -0.47027571352E+02  0.75883761705E+01  0.83635334989E+02  0.15773852901E+03  0.12496958973E+03 0.  0.
          5    1    4    4  502    0 -0.57365195420E+02 -0.37232367188E+02  0.87712690341E+02  0.11132214900E+03  0.47000000000E+01 0.  1.
         -5    1    4    4    0  502  0.10337624068E+02  0.44820743358E+02 -0.40773553522E+01  0.46416380010E+02  0.47000000000E+01 0.  1.
          5    1    3    3  503    0 -0.32606449119E+02  0.24674365174E+02  0.20209404034E+02  0.45853187810E+02  0.47000000000E+01 0.  1.
         -5    1    3    3    0  503  0.79634020471E+02 -0.32262741345E+02 -0.18106220935E+02  0.87933991903E+02  0.47000000000E+01 0.  1.
<mgrwt>
<rscale>  0 0.13376316E+03</rscale>
<asrwt>0</asrwt>
<pdfrwt beam="1">  1        5 0.29020325E-01 0.13377065E+03</pdfrwt>
<pdfrwt beam="2">  1       -5 0.15829784E-01 0.13377065E+03</pdfrwt>
<totfact> 0.29231098E+02</totfact>
</mgrwt>
</event>
<event>
 8    1  0.3488953E-007  0.2311509E+03  0.7546771E-02  0.1125833E+00
         -5   -1    0    0    0  501 -0.00000000000E+00  0.00000000000E+00  0.16029220478E+03  0.16036109539E+03  0.47000000000E+01 0.  1.
          5   -1    0    0  501    0  0.00000000000E+00 -0.00000000000E+00 -0.38381235919E+03  0.38384113519E+03  0.47000000000E+01 0.  1.
         25    2    1    2    0    0  0.14549363614E+03  0.12898792449E+03 -0.12933254178E+02  0.23150814138E+03  0.12498987015E+03 0.  0.
         25    2    1    2    0    0 -0.14549363614E+03 -0.12898792449E+03 -0.21058690023E+03  0.31269408920E+03  0.12499787217E+03 0.  0.
          5    1    4    4  502    0 -0.53265974737E+02 -0.93116979146E+02 -0.38394675528E+02  0.11403629676E+03  0.47000000000E+01 0. -1.
         -5    1    4    4    0  502 -0.92227661405E+02 -0.35870945348E+02 -0.17219222470E+03  0.19865779244E+03  0.47000000000E+01 0. -1.
          5    1    3    3  503    0  0.15458781946E+03  0.93293577434E+02  0.20195928851E+02  0.18174446637E+03  0.47000000000E+01 0. -1.
         -5    1    3    3    0  503 -0.90941833153E+01  0.35694347061E+02 -0.33129183029E+02  0.49763675009E+02  0.47000000000E+01 0. -1.
<mgrwt>
<rscale>  0 0.23114984E+03</rscale>
<asrwt>0</asrwt>
<pdfrwt beam="2">  1        5 0.59055568E-01 0.23115093E+03</pdfrwt>
<pdfrwt beam="1">  1       -5 0.24667852E-01 0.23115093E+03</pdfrwt>
<totfact> 0.34370143E+01</totfact>
</mgrwt>
</event>
<event>
 8    1  0.3488953E-007  0.1283521E+03  0.7546771E-02  0.1229923E+00
          5   -1    0    0  501    0  0.00000000000E+00  0.00000000000E+00  0.61732874806E+03  0.61734663940E+03  0.47000000000E+01 0. -1.
         -5   -1    0    0    0  501 -0.00000000000E+00 -0.00000000000E+00 -0.35896287671E+02  0.36202672119E+02  0.47000000000E+01 0. -1.
         25    2    1    2    0    0  0.22514455523E+02  0.18500478868E+02  0.12405539600E+03  0.17850490976E+03  0.12500037242E+03 0.  0.
         25    2    1    2    0    0 -0.22514455523E+02 -0.18500478868E+02  0.45737706439E+03  0.47504440176E+03  0.12499694473E+03 0.  0.
          5    1    3    3  502    0 -0.42765598668E+02  0.15570585092E+02  0.97890618147E+01  0.46789478312E+02  0.47000000000E+01 0.  1.
         -5    1    3    3    0  502  0.65280054191E+02  0.29298937764E+01  0.11426633418E+03  0.13171543144E+03  0.47000000000E+01 0.  1.
          5    1    4    4  503    0  0.47649849056E+02  0.15332908743E+02  0.18467491856E+03  0.19139624278E+03  0.47000000000E+01 0.  1.
         -5    1    4    4    0  503 -0.70164304579E+02 -0.33833387611E+02  0.27270214583E+03  0.28364815898E+03  0.47000000000E+01 0.  1.
<mgrwt>
<rscale>  0 0.12835127E+03</rscale>
<asrwt>0</asrwt>
<pdfrwt beam="1">  1        5 0.94998590E-01 0.12835210E+03</pdfrwt>
<pdfrwt beam="2">  1       -5 0.55474506E-02 0.12835210E+03</pdfrwt>
<totfact> 0.13947923E+02</totfact>
</mgrwt>
</event>
<event>
 8    1  0.3488953E-007  0.1264482E+03  0.7546771E-02  0.1232825E+00
          5   -1    0    0  501    0  0.00000000000E+00  0.00000000000E+00  0.34327561340E+03  0.34330778720E+03  0.47000000000E+01 0.  1.
         -5   -1    0    0    0  501 -0.00000000000E+00 -0.00000000000E+00 -0.68739893621E+02  0.68900384434E+02  0.47000000000E+01 0.  1.
         25    2    1    2    0    0 -0.66225502743E+01 -0.17901858619E+02  0.20032651823E+02  0.12802520270E+03  0.12499924269E+03 0.  0.
         25    2    1    2    0    0  0.66225502743E+01  0.17901858619E+02  0.25450306795E+03  0.28418296893E+03  0.12499525399E+03 0.  0.
          5    1    4    4  502    0  0.36582947018E+02  0.25241312976E+02  0.24840082091E+03  0.25238956738E+03  0.47000000000E+01 0. -1.
         -5    1    4    4    0  502 -0.29960396744E+02 -0.73394543573E+01  0.61022470428E+01  0.31793401553E+02  0.47000000000E+01 0. -1.
          5    1    3    3  503    0 -0.29685181826E+02  0.47879245918E+02  0.71281536991E+01  0.56978353652E+02  0.47000000000E+01 0.  1.
         -5    1    3    3    0  503  0.23062631552E+02 -0.65781104537E+02  0.12904498124E+02  0.71046849051E+02  0.47000000000E+01 0.  1.
<mgrwt>
<rscale>  0 0.12644721E+03</rscale>
<asrwt>0</asrwt>
<pdfrwt beam="1">  1        5 0.52826452E-01 0.12644819E+03</pdfrwt>
<pdfrwt beam="2">  1       -5 0.10590189E-01 0.12644819E+03</pdfrwt>
<totfact> 0.17302740E+02</totfact>
</mgrwt>
</event>
<event>
 8    1  0.3488953E-007  0.1269996E+03  0.7546771E-02  0.1231983E+00
         -5   -1    0    0    0  501 -0.00000000000E+00  0.00000000000E+00  0.40805834818E+02  0.41075615092E+02  0.47000000000E+01 0.  1.
          5   -1    0    0  501    0  0.00000000000E+00 -0.00000000000E+00 -0.43530572033E+03  0.43533109256E+03  0.47000000000E+01 0.  1.
         25    2    1    2    0    0  0.22386032006E+02 -0.15865780381E+01 -0.12357751157E+03  0.17720131107E+03  0.12500100648E+03 0.  0.
         25    2    1    2    0    0 -0.22386032006E+02  0.15865780381E+01 -0.27092237394E+03  0.29920539658E+03  0.12498513905E+03 0.  0.
          5    1    3    3  502    0 -0.12375359031E+02 -0.44460560531E+01 -0.13833528603E+03  0.13903833388E+03  0.47000000000E+01 0.  1.
         -5    1    3    3    0  502  0.34761391036E+02  0.28594780150E+01  0.14757774462E+02  0.38162977195E+02  0.47000000000E+01 0.  1.
          5    1    4    4  503    0 -0.17594878672E+02  0.37846009548E+02 -0.25600445299E+03  0.25942681077E+03  0.47000000000E+01 0.  1.
         -5    1    4    4    0  503 -0.47911533334E+01 -0.36259431510E+02 -0.14917920946E+02  0.39778585810E+02  0.47000000000E+01 0.  1.
<mgrwt>
<rscale>  0 0.12699571E+03</rscale>
<asrwt>0</asrwt>
<pdfrwt beam="2">  1        5 0.66992812E-01 0.12699962E+03</pdfrwt>
<pdfrwt beam="1">  1       -5 0.63005251E-02 0.12699962E+03</pdfrwt>
<totfact> 0.25153647E+02</totfact>
</mgrwt>
</event>
<event>
 8    1  0.3488953E-007  0.1265365E+03  0.7546771E-02  0.1232687E+00
          5   -1    0    0  501    0  0.00000000000E+00  0.00000000000E+00  0.26509690458E+02  0.26923106956E+02  0.47000000000E+01 0. -1.
         -5   -1    0    0    0  501 -0.00000000000E+00 -0.00000000000E+00 -0.60255558308E+03  0.60257391306E+03  0.47000000000E+01 0. -1.
         25    2    1    2    0    0  0.77851377233E+00  0.19675612770E+02 -0.31256590621E+03  0.33720746597E+03  0.12499477412E+03 0.  0.
         25    2    1    2    0    0 -0.77851377233E+00 -0.19675612770E+02 -0.26347998641E+03  0.29228955405E+03  0.12499497728E+03 0.  0.
          5    1    3    3  502    0  0.20164734195E+02 -0.29568815450E+02 -0.22987955401E+02  0.42795647510E+02  0.47000000000E+01 0. -1.
         -5    1    3    3    0  502 -0.19386220423E+02  0.49244428220E+02 -0.28957795081E+03  0.29441181846E+03  0.47000000000E+01 0. -1.
          5    1    4    4  503    0 -0.45437116850E+02  0.28552405352E+02 -0.72936699859E+02  0.90673169270E+02  0.47000000000E+01 0. -1.
         -5    1    4    4    0  503  0.44658603078E+02 -0.48228018122E+02 -0.19054328655E+03  0.20161638478E+03  0.47000000000E+01 0. -1.
<mgrwt>
<rscale>  0 0.12653643E+03</rscale>
<asrwt>0</asrwt>
<pdfrwt beam="1">  1        5 0.41116256E-02 0.12653648E+03</pdfrwt>
<pdfrwt beam="2">  1       -5 0.92734060E-01 0.12653648E+03</pdfrwt>
<totfact> 0.24131698E+02</totfact>
</mgrwt>
</event>
<event>
 8    1  0.3488953E-007  0.3224730E+03  0.7546771E-02  0.1074517E+00
         -5   -1    0    0    0  501 -0.00000000000E+00  0.00000000000E+00  0.16018367445E+03  0.16025261171E+03  0.47000000000E+01 0.  1.
          5   -1    0    0  501    0  0.00000000000E+00 -0.00000000000E+00 -0.76670705760E+03  0.76672146323E+03  0.47000000000E+01 0.  1.
         25    2    1    2    0    0  0.64280193536E+02  0.29022704352E+03 -0.12163982968E+03  0.34465038704E+03  0.12499584413E+03 0.  0.
         25    2    1    2    0    0 -0.64280193536E+02 -0.29022704352E+03 -0.48488355347E+03  0.58232368790E+03  0.12500054798E+03 0.  0.
          5    1    3    3  502    0  0.37249154118E+02  0.92271606900E+02 -0.10402051690E+03  0.14402745175E+03  0.47000000000E+01 0. -1.
         -5    1    3    3    0  502  0.27031039418E+02  0.19795543662E+03 -0.17619312778E+02  0.20062293528E+03  0.47000000000E+01 0. -1.
          5    1    4    4  503    0  0.22516771165E+01 -0.44321149193E+02 -0.13732299782E+02  0.46691544984E+02  0.47000000000E+01 0.  1.
         -5    1    4    4    0  503 -0.66531870653E+02 -0.24590589433E+03 -0.47115125369E+03  0.53563214292E+03  0.47000000000E+01 0.  1.
<mgrwt>
<rscale>  0 0.32247252E+03</rscale>
<asrwt>0</asrwt>
<pdfrwt beam="2">  1        5 0.11796134E+00 0.32247297E+03</pdfrwt>
<pdfrwt beam="1">  1       -5 0.24650054E-01 0.32247297E+03</pdfrwt>
<totfact> 0.71222550E+00</totfact>
</mgrwt>
</event>
<event>
 8    1  0.3488953E-007  0.1372067E+03  0.7546771E-02  0.1217143E+00
         -5   -1    0    0    0  501 -0.00000000000E+00  0.00000000000E+00  0.98856963555E+02  0.98968627571E+02  0.47000000000E+01 0. -1.
          5   -1    0    0  501    0  0.00000000000E+00 -0.00000000000E+00 -0.20355678743E+03  0.20361104024E+03  0.47000000000E+01 0. -1.
         25    2    1    2    0    0 -0.14610833261E+02 -0.54650259178E+02 -0.13557736739E+02  0.13785999071E+03  0.12498574934E+03 0.  0.
         25    2    1    2    0    0  0.14610833261E+02  0.54650259178E+02 -0.91142087132E+02  0.16471967710E+03  0.12500225878E+03 0.  0.
          5    1    3    3  502    0 -0.92443264005E+01 -0.30988376940E+02  0.55559707858E+02  0.64457026097E+02  0.47000000000E+01 0.  1.
         -5    1    3    3    0  502 -0.53665068606E+01 -0.23661882238E+02 -0.69117444597E+02  0.73402964617E+02  0.47000000000E+01 0.  1.
          5    1    4    4  503    0  0.55678638340E+02  0.58580791868E+02 -0.92818853635E+02  0.12316350731E+03  0.47000000000E+01 0. -1.
         -5    1    4    4    0  503 -0.41067805078E+02 -0.39305326905E+01  0.16767665026E+01  0.41556169784E+02  0.47000000000E+01 0. -1.
<mgrwt>
<rscale>  0 0.13720299E+03</rscale>
<asrwt>0</asrwt>
<pdfrwt beam="2">  1        5 0.31329192E-01 0.13720675E+03</pdfrwt>
<pdfrwt beam="1">  1       -5 0.15221526E-01 0.13720675E+03</pdfrwt>
<totfact> 0.27242589E+02</totfact>
</mgrwt>
</event>
<event>
 8    1  0.3488953E-007  0.1361076E+03  0.7546771E-02  0.1218670E+00
         -5   -1    0    0    0  501 -0.00000000000E+00  0.00000000000E+00  0.12239910500E+04  0.12240000738E+04  0.47000000000E+01 0. -1.
          5   -1    0    0  501    0  0.00000000000E+00 -0.00000000000E+00 -0.14818357883E+02  0.15545858945E+02  0.47000000000E+01 0. -1.
         25    2    1    2    0    0  0.53832734906E+02  0.11247974326E+01  0.64276091405E+03  0.65701045703E+03  0.12498767743E+03 0.  0.
         25    2    1    2    0    0 -0.53832734906E+02 -0.11247974326E+01  0.56641177810E+03  0.58253547567E+03  0.12500419801E+03 0.  0.
          5    1    3    3  502    0 -0.29741174365E+02  0.21993444511E+02  0.87876834015E+02  0.95460342607E+02  0.47000000000E+01 0.  1.
         -5    1    3    3    0  502  0.83573909270E+02 -0.20868647078E+02  0.55488408003E+03  0.56155011443E+03  0.47000000000E+01 0.  1.
          5    1    4    4  503    0 -0.69715087684E+02 -0.19171441913E+02  0.54560809282E+03  0.55039805468E+03  0.47000000000E+01 0. -1.
         -5    1    4    4    0  503  0.15882352779E+02  0.18046644481E+02  0.20803685277E+02  0.32137420990E+02  0.47000000000E+01 0. -1.
<mgrwt>
<rscale>  0 0.13610380E+03</rscale>
<asrwt>0</asrwt>
<pdfrwt beam="2">  1        5 0.23364025E-02 0.13610760E+03</pdfrwt>
<pdfrwt beam="1">  1       -5 0.18836302E+00 0.13610760E+03</pdfrwt>
<totfact> 0.94855659E+01</totfact>
</mgrwt>
</event>
<event>
 8    1  0.3488953E-007  0.1654573E+03  0.7546771E-02  0.1182670E+00
          5   -1    0    0  501    0  0.00000000000E+00  0.00000000000E+00  0.34509468495E+03  0.34512668917E+03  0.47000000000E+01 0.  1.
         -5   -1    0    0    0  501 -0.00000000000E+00 -0.00000000000E+00 -0.24651350388E+03  0.24655830465E+03  0.47000000000E+01 0.  1.
         25    2    1    2    0    0  0.59953246931E+02 -0.90312780305E+02 -0.19435901349E+03  0.25524800514E+03  0.12500131159E+03 0.  0.
         25    2    1    2    0    0 -0.59953246931E+02  0.90312780305E+02  0.29294019456E+03  0.33643698869E+03  0.12500039866E+03 0.  0.
          5    1    3    3  502    0  0.32222560415E+01  0.16676994589E+02  0.80154818693E+01  0.19360863414E+02  0.47000000000E+01 0.  1.
         -5    1    3    3    0  502  0.56730990890E+02 -0.10698977489E+03 -0.20237449536E+03  0.23588714172E+03  0.47000000000E+01 0.  1.
          5    1    4    4  503    0  0.55590128677E+01 -0.48669260571E+01  0.15999251687E+03  0.16023197261E+03  0.47000000000E+01 0. -1.
         -5    1    4    4    0  503 -0.65512259799E+02  0.95179706363E+02  0.13294767769E+03  0.17620501608E+03  0.47000000000E+01 0. -1.
<mgrwt>
<rscale>  0 0.16545713E+03</rscale>
<asrwt>0</asrwt>
<pdfrwt beam="1">  1        5 0.53097398E-01 0.16545730E+03</pdfrwt>
<pdfrwt beam="2">  1       -5 0.37931063E-01 0.16545730E+03</pdfrwt>
<totfact> 0.16970701E+01</totfact>
</mgrwt>
</event>
<event>
 8    1  0.3488953E-007  0.1647296E+03  0.7546771E-02  0.1183459E+00
         -5   -1    0    0    0  501 -0.00000000000E+00  0.00000000000E+00  0.20452889790E+03  0.20458289292E+03  0.47000000000E+01 0. -1.
          5   -1    0    0  501    0  0.00000000000E+00 -0.00000000000E+00 -0.13693781381E+03  0.13701844712E+03  0.47000000000E+01 0. -1.
         25    2    1    2    0    0  0.10680177387E+03  0.10221969040E+02  0.64324547704E+02  0.17684315905E+03  0.12499899164E+03 0.  0.
         25    2    1    2    0    0 -0.10680177387E+03 -0.10221969040E+02  0.32665363854E+01  0.16475818100E+03  0.12499392143E+03 0.  0.
          5    1    3    3  502    0  0.11647406810E+02  0.56962875365E+02  0.27778881485E+02  0.64607952388E+02  0.47000000000E+01 0. -1.
         -5    1    3    3    0  502  0.95154367059E+02 -0.46740906325E+02  0.36545666219E+02  0.11223520666E+03  0.47000000000E+01 0. -1.
          5    1    4    4  503    0 -0.18810770275E+02  0.52834874236E+02 -0.14835123396E+01  0.56299731995E+02  0.47000000000E+01 0. -1.
         -5    1    4    4    0  503 -0.87991003594E+02 -0.63056843276E+02  0.47500487250E+01  0.10845844900E+03  0.47000000000E+01 0. -1.
<mgrwt>
<rscale>  0 0.16472868E+03</rscale>
<asrwt>0</asrwt>
<pdfrwt beam="2">  1        5 0.21077712E-01 0.16472964E+03</pdfrwt>
<pdfrwt beam="1">  1       -5 0.31476340E-01 0.16472964E+03</pdfrwt>
<totfact> 0.15708019E+02</totfact>
</mgrwt>
</event>
<event>
 8    1  0.3488953E-007  0.1298774E+03  0.7546771E-02  0.1227665E+00
         -5   -1    0    0    0  501 -0.00000000000E+00  0.00000000000E+00  0.10934737183E+04  0.10934838191E+04  0.47000000000E+01 0. -1.
          5   -1    0    0  501    0  0.00000000000E+00 -0.00000000000E+00 -0.18298915023E+02  0.18892863494E+02  0.47000000000E+01 0. -1.
         25    2    1    2    0    0 -0.21280641284E+02  0.28099873518E+02  0.76796671756E+03  0.77887162984E+03  0.12500267161E+03 0.  0.
         25    2    1    2    0    0  0.21280641284E+02 -0.28099873518E+02  0.30720808571E+03  0.33350505273E+03  0.12492535247E+03 0.  0.
          5    1    4    4  502    0  0.23551051612E+02 -0.11490931276E+02  0.31377165086E+03  0.31489908291E+03  0.47000000000E+01 0.  1.
         -5    1    4    4    0  502 -0.22704103276E+01 -0.16608942242E+02 -0.65635651543E+01  0.18605969821E+02  0.47000000000E+01 0.  1.
          5    1    3    3  503    0 -0.64600554822E+02  0.13573715797E+02  0.62986279518E+03  0.63332985734E+03  0.47000000000E+01 0. -1.
         -5    1    3    3    0  503  0.43319913538E+02  0.14526157721E+02  0.13810392237E+03  0.14554177250E+03  0.47000000000E+01 0. -1.
<mgrwt>
<rscale>  0 0.12985878E+03</rscale>
<asrwt>0</asrwt>
<pdfrwt beam="2">  1        5 0.28616827E-02 0.12987739E+03</pdfrwt>
<pdfrwt beam="1">  1       -5 0.16827321E+00 0.12987739E+03</pdfrwt>
<totfact> 0.93980183E+01</totfact>
</mgrwt>
</event>
<event>
 8    1  0.3488953E-007  0.1370526E+03  0.7546771E-02  0.1217354E+00
          5   -1    0    0  501    0  0.00000000000E+00  0.00000000000E+00  0.19172489812E+03  0.19178249805E+03  0.47000000000E+01 0.  1.
         -5   -1    0    0    0  501 -0.00000000000E+00 -0.00000000000E+00 -0.99076830020E+02  0.99188246516E+02  0.47000000000E+01 0.  1.
         25    2    1    2    0    0 -0.10727027385E+02 -0.55172752983E+02  0.62603277200E+02  0.15067377230E+03  0.12499725418E+03 0.  0.
         25    2    1    2    0    0  0.10727027385E+02  0.55172752983E+02  0.30044790897E+02  0.14029697227E+03  0.12498579591E+03 0.  0.
          5    1    3    3  502    0 -0.27494487659E+02 -0.51876152276E+02  0.96136664480E+02  0.11274497897E+03  0.47000000000E+01 0. -1.
         -5    1    3    3    0  502  0.16767460274E+02 -0.32966007070E+01 -0.33533387281E+02  0.37928793321E+02  0.47000000000E+01 0. -1.
          5    1    4    4  503    0 -0.33679200181E+02  0.60424686013E+02 -0.20833527663E+02  0.72398598602E+02  0.47000000000E+01 0.  1.
         -5    1    4    4    0  503  0.44406227566E+02 -0.52519330297E+01  0.50878318560E+02  0.67898373668E+02  0.47000000000E+01 0.  1.
<mgrwt>
<rscale>  0 0.13704999E+03</rscale>
<asrwt>0</asrwt>
<pdfrwt beam="1">  1        5 0.29509139E-01 0.13705260E+03</pdfrwt>
<pdfrwt beam="2">  1       -5 0.15255591E-01 0.13705260E+03</pdfrwt>
<totfact> 0.30508252E+02</totfact>
</mgrwt>
</event>
<event>
 8    1  0.3488953E-007  0.1252232E+03  0.7546771E-02  0.1234731E+00
         -5   -1    0    0    0  501 -0.00000000000E+00  0.00000000000E+00  0.10807186973E+04  0.10807289173E+04  0.47000000000E+01 0.  1.
          5   -1    0    0  501    0  0.00000000000E+00 -0.00000000000E+00 -0.22829592251E+02  0.23308373653E+02  0.47000000000E+01 0.  1.
         25    2    1    2    0    0  0.43253756534E+01  0.55420992727E+01  0.86541373620E+03  0.87442654108E+03  0.12502566620E+03 0.  0.
         25    2    1    2    0    0 -0.43253756534E+01 -0.55420992727E+01  0.19247536881E+03  0.22961074984E+03  0.12499962041E+03 0.  0.
          5    1    4    4  502    0 -0.40192719294E+02 -0.52021862023E+02  0.11067216047E+03  0.12881050390E+03  0.47000000000E+01 0.  1.
         -5    1    4    4    0  502  0.35867343641E+02  0.46479762751E+02  0.81803208342E+02  0.10080024593E+03  0.47000000000E+01 0.  1.
          5    1    3    3  503    0 -0.52057572476E+02 -0.19023553414E+02  0.26027246777E+03  0.26614983358E+03  0.47000000000E+01 0.  1.
         -5    1    3    3    0  503  0.56382948129E+02  0.24565652686E+02  0.60514126843E+03  0.60827670750E+03  0.47000000000E+01 0.  1.
<mgrwt>
<rscale>  0 0.12521666E+03</rscale>
<asrwt>0</asrwt>
<pdfrwt beam="2">  1        5 0.35498600E-02 0.12522316E+03</pdfrwt>
<pdfrwt beam="1">  1       -5 0.16630205E+00 0.12522316E+03</pdfrwt>
<totfact> 0.67774801E+01</totfact>
</mgrwt>
</event>
<event>
 8    1  0.3488953E-007  0.1337568E+03  0.7546771E-02  0.1221986E+00
          5   -1    0    0  501    0  0.00000000000E+00  0.00000000000E+00  0.21179888875E+02  0.21695107576E+02  0.47000000000E+01 0.  1.
         -5   -1    0    0    0  501 -0.00000000000E+00 -0.00000000000E+00 -0.95686952503E+03  0.95688106781E+03  0.47000000000E+01 0.  1.
         25    2    1    2    0    0  0.36068093825E+02 -0.31044721684E+02 -0.64310637161E+03  0.65686847337E+03  0.12500281584E+03 0.  0.
         25    2    1    2    0    0 -0.36068093825E+02  0.31044721684E+02 -0.29258326455E+03  0.32170770202E+03  0.12500478673E+03 0.  0.
          5    1    3    3  502    0  0.29640811807E+02 -0.13924945841E+02 -0.63574192082E+03  0.63660220054E+03  0.47000000000E+01 0. -1.
         -5    1    3    3    0  502  0.64272820181E+01 -0.17119775843E+02 -0.73644507865E+01  0.20266272831E+02  0.47000000000E+01 0. -1.
          5    1    4    4  503    0 -0.37460139040E+02  0.75384348011E+02 -0.14720671166E+03  0.16964070237E+03  0.47000000000E+01 0. -1.
         -5    1    4    4    0  503  0.13920452152E+01 -0.44339626327E+02 -0.14537655289E+03  0.15206699965E+03  0.47000000000E+01 0. -1.
<mgrwt>
<rscale>  0 0.13375633E+03</rscale>
<asrwt>0</asrwt>
<pdfrwt beam="1">  1        5 0.32989653E-02 0.13375679E+03</pdfrwt>
<pdfrwt beam="2">  1       -5 0.14725118E+00 0.13375679E+03</pdfrwt>
<totfact> 0.10921879E+02</totfact>
</mgrwt>
</event>
<event>
 8    1  0.3488953E-007  0.1342893E+03  0.7546771E-02  0.1221229E+00
          5   -1    0    0  501    0  0.00000000000E+00  0.00000000000E+00  0.79160457699E+03  0.79161852954E+03  0.47000000000E+01 0. -1.
         -5   -1    0    0    0  501 -0.00000000000E+00 -0.00000000000E+00 -0.27231187987E+02  0.27633812606E+02  0.47000000000E+01 0. -1.
         25    2    1    2    0    0  0.48065732355E+02 -0.98685860513E+01  0.21328354323E+03  0.25203864128E+03  0.12500361301E+03 0.  0.
         25    2    1    2    0    0 -0.48065732355E+02  0.98685860513E+01  0.55108984577E+03  0.56721370086E+03  0.12499464278E+03 0.  0.
          5    1    3    3  502    0  0.11835415720E+02  0.48081937767E+02  0.34373084932E+02  0.60461134396E+02  0.47000000000E+01 0.  1.
         -5    1    3    3    0  502  0.36230316635E+02 -0.57950523818E+02  0.17891045830E+03  0.19157750689E+03  0.47000000000E+01 0.  1.
          5    1    4    4  503    0 -0.56186057462E+02 -0.47638713002E+02  0.35770436650E+03  0.36524077517E+03  0.47000000000E+01 0. -1.
         -5    1    4    4    0  503  0.81203251070E+01  0.57507299053E+02  0.19338547926E+03  0.20197292570E+03  0.47000000000E+01 0. -1.
<mgrwt>
<rscale>  0 0.13428718E+03</rscale>
<asrwt>0</asrwt>
<pdfrwt beam="1">  1        5 0.12181736E+00 0.13428927E+03</pdfrwt>
<pdfrwt beam="2">  1       -5 0.42214582E-02 0.13428927E+03</pdfrwt>
<totfact> 0.12036068E+02</totfact>
</mgrwt>
</event>
<event>
 8    1  0.3488953E-007  0.1622094E+03  0.7546771E-02  0.1186226E+00
         -5   -1    0    0    0  501 -0.00000000000E+00  0.00000000000E+00  0.27567189047E+02  0.27964976524E+02  0.47000000000E+01 0.  1.
          5   -1    0    0  501    0  0.00000000000E+00 -0.00000000000E+00 -0.98329470873E+03  0.98330594131E+03  0.47000000000E+01 0.  1.
         25    2    1    2    0    0 -0.32566357199E+02 -0.98115147072E+02 -0.38099481788E+03  0.41408622653E+03  0.12499280796E+03 0.  0.
         25    2    1    2    0    0  0.32566357199E+02  0.98115147072E+02 -0.57473270180E+03  0.59718469130E+03  0.12499890921E+03 0.  0.
          5    1    3    3  502    0 -0.19990420282E+01  0.24850468129E+02 -0.22792149686E+02  0.34104457518E+02  0.47000000000E+01 0. -1.
         -5    1    3    3    0  502 -0.30567315171E+02 -0.12296561520E+03 -0.35820266820E+03  0.37998176901E+03  0.47000000000E+01 0. -1.
          5    1    4    4  503    0 -0.73045220321E+01  0.10184030933E+03 -0.51547722150E+03  0.52551275963E+03  0.47000000000E+01 0.  1.
         -5    1    4    4    0  503  0.39870879231E+02 -0.37251622623E+01 -0.59255480299E+02  0.71671931675E+02  0.47000000000E+01 0.  1.
<mgrwt>
<rscale>  0 0.16220819E+03</rscale>
<asrwt>0</asrwt>
<pdfrwt beam="2">  1        5 0.15130755E+00 0.16220936E+03</pdfrwt>
<pdfrwt beam="1">  1       -5 0.42725698E-02 0.16220936E+03</pdfrwt>
<totfact> 0.70389606E+01</totfact>
</mgrwt>
</event>
<event>
 8    1  0.3488953E-007  0.1430807E+03  0.7546771E-02  0.1209244E+00
         -5   -1    0    0    0  501 -0.00000000000E+00  0.00000000000E+00  0.16259230119E+02  0.16924909574E+02  0.47000000000E+01 0. -1.
          5   -1    0    0  501    0  0.00000000000E+00 -0.00000000000E+00 -0.12663060148E+04  0.12663147370E+04  0.47000000000E+01 0. -1.
         25    2    1    2    0    0 -0.46075430284E+02  0.52186018058E+02 -0.52122723730E+03  0.54050894719E+03  0.12500305330E+03 0.  0.
         25    2    1    2    0    0  0.46075430284E+02 -0.52186018058E+02 -0.72881954740E+03  0.74273069939E+03  0.12499853355E+03 0.  0.
          5    1    3    3  502    0 -0.88900867760E+02  0.30994513118E+02 -0.37143256439E+03  0.38320786007E+03  0.47000000000E+01 0. -1.
         -5    1    3    3    0  502  0.42825437475E+02  0.21191504941E+02 -0.14979467291E+03  0.15730108712E+03  0.47000000000E+01 0. -1.
          5    1    4    4  503    0  0.61727936968E+02 -0.10866237983E+02 -0.15593668221E+03  0.16812719051E+03  0.47000000000E+01 0.  1.
         -5    1    4    4    0  503 -0.15652506684E+02 -0.41319780075E+02 -0.57288286519E+03  0.57460350888E+03  0.47000000000E+01 0.  1.
<mgrwt>
<rscale>  0 0.14307972E+03</rscale>
<asrwt>0</asrwt>
<pdfrwt beam="2">  1        5 0.19486811E+00 0.14308071E+03</pdfrwt>
<pdfrwt beam="1">  1       -5 0.25532981E-02 0.14308071E+03</pdfrwt>
<totfact> 0.75324098E+01</totfact>
</mgrwt>
</event>
<event>
 8    1  0.3488953E-007  0.1440068E+03  0.7546771E-02  0.1208037E+00
          5   -1    0    0  501    0  0.00000000000E+00  0.00000000000E+00  0.15871115284E+03  0.15878072942E+03  0.47000000000E+01 0. -1.
         -5   -1    0    0    0  501 -0.00000000000E+00 -0.00000000000E+00 -0.15207862424E+03  0.15215123381E+03  0.47000000000E+01 0. -1.
         25    2    1    2    0    0 -0.70864916734E+02  0.94906553976E+01 -0.55184365048E+02  0.15421827070E+03  0.12500420756E+03 0.  0.
         25    2    1    2    0    0  0.70864916734E+02 -0.94906553976E+01  0.61816893651E+02  0.15671369253E+03  0.12500377644E+03 0.  0.
          5    1    3    3  502    0  0.91529711514E+00 -0.18630272078E+02 -0.72548422227E+02  0.75055235488E+02  0.47000000000E+01 0. -1.
         -5    1    3    3    0  502 -0.71780213849E+02  0.28120927476E+02  0.17364057178E+02  0.79163035212E+02  0.47000000000E+01 0. -1.
          5    1    4    4  503    0 -0.26552693392E+02  0.28562044240E+02  0.15334786663E+02  0.42167304627E+02  0.47000000000E+01 0. -1.
         -5    1    4    4    0  503  0.97417610125E+02 -0.38052699638E+02  0.46482106988E+02  0.11454638791E+03  0.47000000000E+01 0. -1.
<mgrwt>
<rscale>  0 0.14400671E+03</rscale>
<asrwt>0</asrwt>
<pdfrwt beam="1">  1        5 0.24428038E-01 0.14400681E+03</pdfrwt>
<pdfrwt beam="2">  1       -5 0.23407649E-01 0.14400681E+03</pdfrwt>
<totfact> 0.20200457E+02</totfact>
</mgrwt>
</event>
<event>
 8    1  0.3488953E-007  0.1425124E+03  0.7546771E-02  0.1209990E+00
         -5   -1    0    0    0  501 -0.00000000000E+00  0.00000000000E+00  0.31773872849E+02  0.32119604541E+02  0.47000000000E+01 0.  1.
          5   -1    0    0  501    0  0.00000000000E+00 -0.00000000000E+00 -0.76820297667E+03  0.76821735424E+03  0.47000000000E+01 0.  1.
         25    2    1    2    0    0 -0.64534912211E+02 -0.22810691374E+02 -0.20185184717E+03  0.24709096590E+03  0.12499877874E+03 0.  0.
         25    2    1    2    0    0  0.64534912211E+02  0.22810691374E+02 -0.53457725665E+03  0.55324599288E+03  0.12499281093E+03 0.  0.
          5    1    4    4  502    0 -0.40614209975E+01  0.60865710007E+02 -0.18169861144E+03  0.19172272999E+03  0.47000000000E+01 0. -1.
         -5    1    4    4    0  502  0.68596333208E+02 -0.38055018633E+02 -0.35287864520E+03  0.36152326289E+03  0.47000000000E+01 0. -1.
          5    1    3    3  503    0 -0.56671282551E+02 -0.35407641689E+01 -0.14854852870E+02  0.58880624408E+02  0.47000000000E+01 0.  1.
         -5    1    3    3    0  503 -0.78636296593E+01 -0.19269927205E+02 -0.18699699430E+03  0.18821034149E+03  0.47000000000E+01 0.  1.
<mgrwt>
<rscale>  0 0.14251107E+03</rscale>
<asrwt>0</asrwt>
<pdfrwt beam="2">  1        5 0.11821276E+00 0.14251238E+03</pdfrwt>
<pdfrwt beam="1">  1       -5 0.49159894E-02 0.14251238E+03</pdfrwt>
<totfact> 0.10295197E+02</totfact>
</mgrwt>
</event>
<event>
 8    1  0.3488953E-007  0.1298947E+03  0.7546771E-02  0.1227616E+00
          5   -1    0    0  501    0  0.00000000000E+00  0.00000000000E+00  0.49622970138E+03  0.49625195871E+03  0.47000000000E+01 0.  1.
         -5   -1    0    0    0  501 -0.00000000000E+00 -0.00000000000E+00 -0.34937643017E+02  0.35252360198E+02  0.47000000000E+01 0.  1.
         25    2    1    2    0    0 -0.35274817881E+02 -0.45710669388E+00  0.18318948194E+03  0.22456187589E+03  0.12500051233E+03 0.  0.
         25    2    1    2    0    0  0.35274817881E+02  0.45710669388E+00  0.27810257641E+03  0.30694244303E+03  0.12501239378E+03 0.  0.
          5    1    3    3  502    0 -0.40717276844E+02  0.93544479524E+01  0.10891195382E+01  0.42055659684E+02  0.47000000000E+01 0.  1.
         -5    1    3    3    0  502  0.54424589635E+01 -0.98115546463E+01  0.18210036241E+03  0.18250621620E+03  0.47000000000E+01 0.  1.
          5    1    4    4  503    0  0.32717856333E+02 -0.54241602718E+02  0.21018478387E+03  0.21957309252E+03  0.47000000000E+01 0.  1.
         -5    1    4    4    0  503  0.25569615474E+01  0.54698709412E+02  0.67917792548E+02  0.87369350508E+02  0.47000000000E+01 0.  1.
<mgrwt>
<rscale>  0 0.12989179E+03</rscale>
<asrwt>0</asrwt>
<pdfrwt beam="1">  1        5 0.76368949E-01 0.12989465E+03</pdfrwt>
<pdfrwt beam="2">  1       -5 0.54009433E-02 0.12989465E+03</pdfrwt>
<totfact> 0.24416309E+02</totfact>
</mgrwt>
</event>
<event>
 8    1  0.3488953E-007  0.1419174E+03  0.7546771E-02  0.1210774E+00
          5   -1    0    0  501    0  0.00000000000E+00  0.00000000000E+00  0.80318886398E+02  0.80456283236E+02  0.47000000000E+01 0.  1.
         -5   -1    0    0    0  501 -0.00000000000E+00 -0.00000000000E+00 -0.26121801530E+03  0.26126029456E+03  0.47000000000E+01 0.  1.
         25    2    1    2    0    0 -0.22168564611E+02  0.63419586550E+02 -0.12525472597E+03  0.18928629611E+03  0.12500826493E+03 0.  0.
         25    2    1    2    0    0  0.22168564611E+02 -0.63419586550E+02 -0.55644402932E+02  0.15243028169E+03  0.12500080794E+03 0.  0.
          5    1    3    3  502    0 -0.33565218024E+02  0.34804008722E+02 -0.14464657790E+03  0.15258658323E+03  0.47000000000E+01 0. -1.
         -5    1    3    3    0  502  0.11396653413E+02  0.28615577828E+02  0.19391851936E+02  0.36699712873E+02  0.47000000000E+01 0. -1.
          5    1    4    4  503    0  0.55551916219E+02 -0.36572915771E+02 -0.79028888816E+02  0.10339849530E+03  0.47000000000E+01 0. -1.
         -5    1    4    4    0  503 -0.33383351608E+02 -0.26846670779E+02  0.23384485885E+02  0.49031786390E+02  0.47000000000E+01 0. -1.
<mgrwt>
<rscale>  0 0.14191578E+03</rscale>
<asrwt>0</asrwt>
<pdfrwt beam="1">  1        5 0.12370573E-01 0.14191742E+03</pdfrwt>
<pdfrwt beam="2">  1       -5 0.40201208E-01 0.14191742E+03</pdfrwt>
<totfact> 0.24225951E+02</totfact>
</mgrwt>
</event>
<event>
 8    1  0.3488953E-007  0.1281839E+03  0.7546771E-02  0.1230180E+00
          5   -1    0    0  501    0  0.00000000000E+00  0.00000000000E+00  0.30432546349E+03  0.30436175471E+03  0.47000000000E+01 0.  1.
         -5   -1    0    0    0  501 -0.00000000000E+00 -0.00000000000E+00 -0.53845497553E+02  0.54050232254E+02  0.47000000000E+01 0.  1.
         25    2    1    2    0    0  0.27203612583E+02 -0.79789443527E+01  0.12516874338E+03  0.17916009044E+03  0.12500969401E+03 0.  0.
         25    2    1    2    0    0 -0.27203612583E+02  0.79789443527E+01  0.12531122256E+03  0.17925189653E+03  0.12499855927E+03 0.  0.
          5    1    3    3  502    0 -0.74453096181E+01  0.22499314959E+02  0.13027359283E+03  0.13249509726E+03  0.47000000000E+01 0.  1.
         -5    1    3    3    0  502  0.34648922201E+02 -0.30478259312E+02 -0.51048494494E+01  0.46664993178E+02  0.47000000000E+01 0.  1.
          5    1    4    4  503    0 -0.86717745385E+01 -0.49665366020E+02  0.14138580417E+02  0.52572214255E+02  0.47000000000E+01 0.  1.
         -5    1    4    4    0  503 -0.18531838045E+02  0.57644310372E+02  0.11117264215E+03  0.12667968227E+03  0.47000000000E+01 0.  1.
<mgrwt>
<rscale>  0 0.12818123E+03</rscale>
<asrwt>0</asrwt>
<pdfrwt beam="1">  1        5 0.46837841E-01 0.12818394E+03</pdfrwt>
<pdfrwt beam="2">  1       -5 0.83024634E-02 0.12818394E+03</pdfrwt>
<totfact> 0.34197476E+02</totfact>
</mgrwt>
</event>
<event>
 8    1  0.3488953E-007  0.1294360E+03  0.7546771E-02  0.1228297E+00
         -5   -1    0    0    0  501 -0.00000000000E+00  0.00000000000E+00  0.17151015799E+02  0.17783344538E+02  0.47000000000E+01 0. -1.
          5   -1    0    0  501    0  0.00000000000E+00 -0.00000000000E+00 -0.95899791202E+03  0.95900942918E+03  0.47000000000E+01 0. -1.
         25    2    1    2    0    0  0.20319432998E+02  0.26735693452E+02 -0.45950434834E+03  0.47738654976E+03  0.12500398025E+03 0.  0.
         25    2    1    2    0    0 -0.20319432998E+02 -0.26735693452E+02 -0.48234254787E+03  0.49940622396E+03  0.12499826550E+03 0.  0.
          5    1    4    4  502    0  0.39972665477E+02 -0.32719652919E+02 -0.34944197239E+03  0.35327067772E+03  0.47000000000E+01 0. -1.
         -5    1    4    4    0  502 -0.60292098476E+02  0.59839594671E+01 -0.13290057549E+03  0.14613554624E+03  0.47000000000E+01 0. -1.
          5    1    3    3  503    0  0.21105452714E+02 -0.45747791481E+02 -0.12060459836E+03  0.13078937153E+03  0.47000000000E+01 0.  1.
         -5    1    3    3    0  503 -0.78601971603E+00  0.72483484934E+02 -0.33889974998E+03  0.34659717822E+03  0.47000000000E+01 0.  1.
<mgrwt>
<rscale>  0 0.12943460E+03</rscale>
<asrwt>0</asrwt>
<pdfrwt beam="2">  1        5 0.14758763E+00 0.12943598E+03</pdfrwt>
<pdfrwt beam="1">  1       -5 0.26881452E-02 0.12943598E+03</pdfrwt>
<totfact> 0.14941294E+02</totfact>
</mgrwt>
</event>
<event>
 8    1  0.3488953E-007  0.1503288E+03  0.7546771E-02  0.1200073E+00
          5   -1    0    0  501    0  0.00000000000E+00  0.00000000000E+00  0.29523602759E+03  0.29527343597E+03  0.47000000000E+01 0. -1.
         -5   -1    0    0    0  501 -0.00000000000E+00 -0.00000000000E+00 -0.77757218247E+02  0.77899133432E+02  0.47000000000E+01 0. -1.
         25    2    1    2    0    0  0.34044709037E+02  0.76246839720E+02  0.84347406437E+02  0.17237526466E+03  0.12500449638E+03 0.  0.
         25    2    1    2    0    0 -0.34044709037E+02 -0.76246839720E+02  0.13313140291E+03  0.20079730474E+03  0.12499185721E+03 0.  0.
          5    1    4    4  502    0  0.27844157960E+02 -0.67319352685E+02  0.27606460531E+02  0.78047415341E+02  0.47000000000E+01 0.  1.
         -5    1    4    4    0  502 -0.61888866997E+02 -0.89274870354E+01  0.10552494238E+03  0.12274988940E+03  0.47000000000E+01 0.  1.
          5    1    3    3  503    0  0.60178535303E+02  0.40497063282E+01  0.72690274569E+02  0.94571783580E+02  0.47000000000E+01 0.  1.
         -5    1    3    3    0  503 -0.26133826266E+02  0.72197133392E+02  0.11657131868E+02  0.77803481084E+02  0.47000000000E+01 0.  1.
<mgrwt>
<rscale>  0 0.15032617E+03</rscale>
<asrwt>0</asrwt>
<pdfrwt beam="1">  1        5 0.45434722E-01 0.15032880E+03</pdfrwt>
<pdfrwt beam="2">  1       -5 0.11976443E-01 0.15032880E+03</pdfrwt>
<totfact> 0.20306070E+02</totfact>
</mgrwt>
</event>
<event>
 8    1  0.3488953E-007  0.1387269E+03  0.7546771E-02  0.1215055E+00
          5   -1    0    0  501    0  0.00000000000E+00  0.00000000000E+00  0.58616245402E+03  0.58618129661E+03  0.47000000000E+01 0.  1.
         -5   -1    0    0    0  501 -0.00000000000E+00 -0.00000000000E+00 -0.43199625691E+02  0.43454547056E+02  0.47000000000E+01 0.  1.
         25    2    1    2    0    0 -0.50356643146E+02  0.32874656090E+02  0.11641070960E+03  0.18109167004E+03  0.12500482041E+03 0.  0.
         25    2    1    2    0    0  0.50356643146E+02 -0.32874656090E+02  0.42655211873E+03  0.44854417363E+03  0.12501452390E+03 0.  0.
          5    1    3    3  502    0  0.18013310568E+02  0.25796808360E+02 -0.13093334633E+02  0.34401745464E+02  0.47000000000E+01 0. -1.
         -5    1    3    3    0  502 -0.68369953714E+02  0.70778477295E+01  0.12950404423E+03  0.14668992457E+03  0.47000000000E+01 0. -1.
          5    1    4    4  503    0  0.87619977991E+02  0.13968345075E+00  0.29643053521E+03  0.30914467852E+03  0.47000000000E+01 0.  1.
         -5    1    4    4    0  503 -0.37263334844E+02 -0.33014339541E+02  0.13012158352E+03  0.13939949511E+03  0.47000000000E+01 0.  1.
<mgrwt>
<rscale>  0 0.13872476E+03</rscale>
<asrwt>0</asrwt>
<pdfrwt beam="1">  1        5 0.90199893E-01 0.13872695E+03</pdfrwt>
<pdfrwt beam="2">  1       -5 0.66671554E-02 0.13872695E+03</pdfrwt>
<totfact> 0.11889651E+02</totfact>
</mgrwt>
</event>
<event>
 8    1  0.3488953E-007  0.1502303E+03  0.7546771E-02  0.1200191E+00
         -5   -1    0    0    0  501 -0.00000000000E+00  0.00000000000E+00  0.30681483517E+03  0.30685083196E+03  0.47000000000E+01 0. -1.
          5   -1    0    0  501    0  0.00000000000E+00 -0.00000000000E+00 -0.74705968187E+02  0.74853668465E+02  0.47000000000E+01 0. -1.
         25    2    1    2    0    0  0.19157244988E+01  0.83302435818E+02  0.14084775835E+03  0.20593018230E+03  0.12500473245E+03 0.  0.
         25    2    1    2    0    0 -0.19157244988E+01 -0.83302435818E+02  0.91261108627E+02  0.17577431813E+03  0.12500022062E+03 0.  0.
          5    1    3    3  502    0  0.42681463652E+02  0.97274015764E+02  0.91837043988E+02  0.14049937413E+03  0.47000000000E+01 0.  1.
         -5    1    3    3    0  502 -0.40765739153E+02 -0.13971579946E+02  0.49010714364E+02  0.65430808167E+02  0.47000000000E+01 0.  1.
          5    1    4    4  503    0 -0.20434299613E+02  0.13210959455E+02  0.71164830346E+02  0.75356573228E+02  0.47000000000E+01 0. -1.
         -5    1    4    4    0  503  0.18518575114E+02 -0.96513395273E+02  0.20096278280E+02  0.10041774491E+03  0.47000000000E+01 0. -1.
<mgrwt>
<rscale>  0 0.15022938E+03</rscale>
<asrwt>0</asrwt>
<pdfrwt beam="2">  1        5 0.11507357E-01 0.15023032E+03</pdfrwt>
<pdfrwt beam="1">  1       -5 0.47216412E-01 0.15023032E+03</pdfrwt>
<totfact> 0.20102634E+02</totfact>
</mgrwt>
</event>
<event>
 8    1  0.3488953E-007  0.1568628E+03  0.7546771E-02  0.1192285E+00
          5   -1    0    0  501    0  0.00000000000E+00  0.00000000000E+00  0.81754482737E+03  0.81755833722E+03  0.47000000000E+01 0. -1.
         -5   -1    0    0    0  501 -0.00000000000E+00 -0.00000000000E+00 -0.30675236378E+02  0.31033210064E+02  0.47000000000E+01 0. -1.
         25    2    1    2    0    0 -0.87141349197E+02 -0.37251463580E+02  0.32638926776E+03  0.36212667081E+03  0.12499794127E+03 0.  0.
         25    2    1    2    0    0  0.87141349197E+02  0.37251463580E+02  0.46048032323E+03  0.48646487648E+03  0.12499864673E+03 0.  0.
          5    1    4    4  502    0  0.22725636968E+02 -0.23881609187E+02  0.30915003451E+03  0.31093828917E+03  0.47000000000E+01 0.  1.
         -5    1    4    4    0  502  0.64415712230E+02  0.61133072767E+02  0.15133028871E+03  0.17552658730E+03  0.47000000000E+01 0.  1.
          5    1    3    3  503    0 -0.36359353547E+01  0.30238626467E+02  0.18324007934E+02  0.35853226121E+02  0.47000000000E+01 0.  1.
         -5    1    3    3    0  503 -0.83505413842E+02 -0.67490090047E+02  0.30806525983E+03  0.32627344469E+03  0.47000000000E+01 0.  1.
<mgrwt>
<rscale>  0 0.15686269E+03</rscale>
<asrwt>0</asrwt>
<pdfrwt beam="1">  1        5 0.12580468E+00 0.15686283E+03</pdfrwt>
<pdfrwt beam="2">  1       -5 0.47478436E-02 0.15686283E+03</pdfrwt>
<totfact> 0.95745869E+01</totfact>
</mgrwt>
</event>
<event>
 8    1  0.3488953E-007  0.1489063E+03  0.7546771E-02  0.1201826E+00
          5   -1    0    0  501    0  0.00000000000E+00  0.00000000000E+00  0.16870521071E+03  0.16877066724E+03  0.47000000000E+01 0. -1.
         -5   -1    0    0    0  501 -0.00000000000E+00 -0.00000000000E+00 -0.13181822361E+03  0.13190198662E+03  0.47000000000E+01 0. -1.
         25    2    1    2    0    0 -0.91348867537E+01 -0.80393217366E+02  0.89480986430E+01  0.14917490582E+03  0.12500627386E+03 0.  0.
         25    2    1    2    0    0  0.91348867537E+01  0.80393217366E+02  0.27938888453E+02  0.15149774804E+03  0.12499788245E+03 0.  0.
          5    1    4    4  502    0  0.58122275837E+02  0.65994491827E+02 -0.86747855504E+01  0.88491885528E+02  0.47000000000E+01 0. -1.
         -5    1    4    4    0  502 -0.48987389084E+02  0.14398725539E+02  0.36613674003E+02  0.63005862508E+02  0.47000000000E+01 0. -1.
          5    1    3    3  503    0 -0.59505310462E+02 -0.72851655485E+02 -0.98177390316E+01  0.94692785785E+02  0.47000000000E+01 0.  1.
         -5    1    3    3    0  503  0.50370423709E+02 -0.75415618815E+01  0.18765837675E+02  0.54482120038E+02  0.47000000000E+01 0.  1.
<mgrwt>
<rscale>  0 0.14890453E+03</rscale>
<asrwt>0</asrwt>
<pdfrwt beam="1">  1        5 0.25966126E-01 0.14890629E+03</pdfrwt>
<pdfrwt beam="2">  1       -5 0.20291205E-01 0.14890629E+03</pdfrwt>
<totfact> 0.23788873E+02</totfact>
</mgrwt>
</event>
<event>
 8    1  0.3488953E-007  0.1403058E+03  0.7546771E-02  0.1212918E+00
          5   -1    0    0  501    0  0.00000000000E+00  0.00000000000E+00  0.24617046891E+03  0.24621533211E+03  0.47000000000E+01 0. -1.
         -5   -1    0    0    0  501 -0.00000000000E+00 -0.00000000000E+00 -0.10667755003E+03  0.10678103615E+03  0.47000000000E+01 0. -1.
         25    2    1    2    0    0  0.45949485223E+02  0.44147233710E+02 -0.18701181882E+02  0.14154637925E+03  0.12500123935E+03 0.  0.
         25    2    1    2    0    0 -0.45949485223E+02 -0.44147233710E+02  0.15819410076E+03  0.21144998900E+03  0.12500156358E+03 0.  0.
          5    1    4    4  502    0  0.26850594420E+02 -0.12066498556E+02 -0.46313530494E+01  0.30167768217E+02  0.47000000000E+01 0.  1.
         -5    1    4    4    0  502 -0.72800079642E+02 -0.32080735154E+02  0.16282545381E+03  0.18128222078E+03  0.47000000000E+01 0.  1.
          5    1    3    3  503    0  0.36830526694E+02  0.79031453886E+02 -0.43479583184E+02  0.97544977081E+02  0.47000000000E+01 0. -1.
         -5    1    3    3    0  503  0.91189585282E+01 -0.34884220176E+02  0.24778401302E+02  0.44001402170E+02  0.47000000000E+01 0. -1.
<mgrwt>
<rscale>  0 0.14030575E+03</rscale>
<asrwt>0</asrwt>
<pdfrwt beam="1">  1        5 0.37883791E-01 0.14030582E+03</pdfrwt>
<pdfrwt beam="2">  1       -5 0.16423342E-01 0.14030582E+03</pdfrwt>
<totfact> 0.16344145E+02</totfact>
</mgrwt>
</event>
<event>
 8    1  0.3488953E-007  0.1452493E+03  0.7546771E-02  0.1206439E+00
         -5   -1    0    0    0  501 -0.00000000000E+00  0.00000000000E+00  0.34810025681E+03  0.34813198473E+03  0.47000000000E+01 0. -1.
          5   -1    0    0  501    0  0.00000000000E+00 -0.00000000000E+00 -0.70323096593E+02  0.70479982366E+02  0.47000000000E+01 0. -1.
         25    2    1    2    0    0  0.21081919672E+02 -0.70902529788E+02  0.21710391172E+03  0.26121153180E+03  0.12500295913E+03 0.  0.
         25    2    1    2    0    0 -0.21081919672E+02  0.70902529788E+02  0.60673248501E+02  0.15740043530E+03  0.12498815097E+03 0.  0.
          5    1    4    4  502    0  0.26292317107E+02  0.68412641102E+01 -0.27172813833E+02  0.38710988686E+02  0.47000000000E+01 0. -1.
         -5    1    4    4    0  502 -0.47374236779E+02  0.64061265677E+02  0.87846062334E+02  0.11868944662E+03  0.47000000000E+01 0. -1.
          5    1    3    3  503    0  0.22435071735E+02 -0.10487608736E+03  0.18667582230E+03  0.21534223640E+03  0.47000000000E+01 0.  1.
         -5    1    3    3    0  503 -0.13531520632E+01  0.33973557574E+02  0.30428089416E+02  0.45869295398E+02  0.47000000000E+01 0.  1.
<mgrwt>
<rscale>  0 0.14524610E+03</rscale>
<asrwt>0</asrwt>
<pdfrwt beam="2">  1        5 0.10833447E-01 0.14524929E+03</pdfrwt>
<pdfrwt beam="1">  1       -5 0.53568394E-01 0.14524929E+03</pdfrwt>
<totfact> 0.16912366E+02</totfact>
</mgrwt>
</event>
<event>
 8    1  0.3488953E-007  0.1312343E+03  0.7546771E-02  0.1225643E+00
         -5   -1    0    0    0  501 -0.00000000000E+00  0.00000000000E+00  0.12864330065E+03  0.12872912957E+03  0.47000000000E+01 0. -1.
          5   -1    0    0  501    0  0.00000000000E+00 -0.00000000000E+00 -0.32557277059E+03  0.32560669365E+03  0.47000000000E+01 0. -1.
         25    2    1    2    0    0  0.33533510387E+02  0.21615308671E+02  0.75893628963E+02  0.15159910898E+03  0.12502291406E+03 0.  0.
         25    2    1    2    0    0 -0.33533510387E+02 -0.21615308671E+02 -0.27282309891E+03  0.30273671424E+03  0.12500142785E+03 0.  0.
          5    1    3    3  502    0 -0.15595222844E+02  0.10189560218E+02  0.95399668707E+02  0.97315080550E+02  0.47000000000E+01 0.  1.
         -5    1    3    3    0  502  0.49128733231E+02  0.11425748454E+02 -0.19506039744E+02  0.54284028435E+02  0.47000000000E+01 0.  1.
          5    1    4    4  503    0  0.24933843173E+02  0.33142611165E+02 -0.45883608818E+02  0.62028419038E+02  0.47000000000E+01 0.  1.
         -5    1    4    4    0  503 -0.58467353560E+02 -0.54757919836E+02 -0.22693949009E+03  0.24070829520E+03  0.47000000000E+01 0.  1.
<mgrwt>
<rscale>  0 0.13122920E+03</rscale>
<asrwt>0</asrwt>
<pdfrwt beam="2">  1        5 0.50097330E-01 0.13123432E+03</pdfrwt>
<pdfrwt beam="1">  1       -5 0.19800489E-01 0.13123432E+03</pdfrwt>
<totfact> 0.63471891E+01</totfact>
</mgrwt>
</event>
<event>
 8    1  0.3488953E-007  0.1848011E+03  0.7546771E-02  0.1163236E+00
          5   -1    0    0  501    0  0.00000000000E+00  0.00000000000E+00  0.19242826994E+03  0.19248565939E+03  0.47000000000E+01 0. -1.
         -5   -1    0    0    0  501 -0.00000000000E+00 -0.00000000000E+00 -0.17948411762E+03  0.17954564455E+03  0.47000000000E+01 0. -1.
         25    2    1    2    0    0 -0.13531731933E+03  0.14680013159E+02 -0.13759376366E+02  0.18531088933E+03  0.12499810226E+03 0.  0.
         25    2    1    2    0    0  0.13531731933E+03 -0.14680013159E+02  0.26703528687E+02  0.18672041461E+03  0.12500062035E+03 0.  0.
          5    1    4    4  502    0  0.14960128432E+03  0.14810732231E+02  0.30282262727E+02  0.15342427284E+03  0.47000000000E+01 0. -1.
         -5    1    4    4    0  502 -0.14283964987E+02 -0.29490745390E+02 -0.35787340400E+01  0.33296141770E+02  0.47000000000E+01 0. -1.
          5    1    3    3  503    0 -0.85315786678E+02  0.58661862822E+01 -0.69111257867E+02  0.11005294890E+03  0.47000000000E+01 0. -1.
         -5    1    3    3    0  503 -0.50001532655E+02  0.88138268771E+01  0.55351881501E+02  0.75257940430E+02  0.47000000000E+01 0. -1.
<mgrwt>
<rscale>  0 0.18480064E+03</rscale>
<asrwt>0</asrwt>
<pdfrwt beam="1">  1        5 0.29613497E-01 0.18480107E+03</pdfrwt>
<pdfrwt beam="2">  1       -5 0.27622088E-01 0.18480107E+03</pdfrwt>
<totfact> 0.10921145E+02</totfact>
</mgrwt>
</event>
<event>
 8    1  0.3488953E-007  0.1558852E+03  0.7546771E-02  0.1193428E+00
         -5   -1    0    0    0  501 -0.00000000000E+00  0.00000000000E+00  0.18563260008E+02  0.19149010996E+02  0.47000000000E+01 0.  1.
          5   -1    0    0  501    0  0.00000000000E+00 -0.00000000000E+00 -0.13427575190E+04  0.13427657446E+04  0.47000000000E+01 0.  1.
         25    2    1    2    0    0  0.85311149839E+02  0.37367176816E+02 -0.79959576634E+03  0.81464538374E+03  0.12497765200E+03 0.  0.
         25    2    1    2    0    0 -0.85311149839E+02 -0.37367176816E+02 -0.52459849263E+03  0.54726937182E+03  0.12500355466E+03 0.  0.
          5    1    3    3  502    0 -0.14710971721E+02 -0.30830014756E+02 -0.15934003623E+03  0.16302834001E+03  0.47000000000E+01 0.  1.
         -5    1    3    3    0  502  0.10002212156E+03  0.68197191572E+02 -0.64025573011E+03  0.65161704373E+03  0.47000000000E+01 0.  1.
          5    1    4    4  503    0 -0.41088105648E+02 -0.73474392508E+02 -0.41631594897E+03  0.42476791092E+03  0.47000000000E+01 0.  1.
         -5    1    4    4    0  503 -0.44223044190E+02  0.36107215692E+02 -0.10828254366E+03  0.12250146091E+03  0.47000000000E+01 0.  1.
<mgrwt>
<rscale>  0 0.15587998E+03</rscale>
<asrwt>0</asrwt>
<pdfrwt beam="2">  1        5 0.20662370E+00 0.15588517E+03</pdfrwt>
<pdfrwt beam="1">  1       -5 0.29015777E-02 0.15588517E+03</pdfrwt>
<totfact> 0.52296061E+01</totfact>
</mgrwt>
</event>
<event>
 8    1  0.3488953E-007  0.2358191E+03  0.7546771E-02  0.1122610E+00
         -5   -1    0    0    0  501 -0.00000000000E+00  0.00000000000E+00  0.53655772807E+03  0.53657831260E+03  0.47000000000E+01 0.  1.
          5   -1    0    0  501    0  0.00000000000E+00 -0.00000000000E+00 -0.13531322968E+03  0.13539483050E+03  0.47000000000E+01 0.  1.
         25    2    1    2    0    0  0.13749039605E+03  0.14519606550E+03  0.36329510566E+03  0.43312006525E+03  0.12499660268E+03 0.  0.
         25    2    1    2    0    0 -0.13749039605E+03 -0.14519606550E+03  0.37949392737E+02  0.23885307785E+03  0.12500051979E+03 0.  0.
          5    1    3    3  502    0 -0.41499804828E+01 -0.68682484101E+01  0.86329078380E+02  0.86828537637E+02  0.47000000000E+01 0.  1.
         -5    1    3    3    0  502  0.14164037653E+03  0.15206431391E+03  0.27696602728E+03  0.34629152761E+03  0.47000000000E+01 0.  1.
          5    1    4    4  503    0 -0.14477868727E+03 -0.72137757360E+02  0.19421290437E+02  0.16298466445E+03  0.47000000000E+01 0.  1.
         -5    1    4    4    0  503  0.72882912197E+01 -0.73058308139E+02  0.18528102300E+02  0.75868413400E+02  0.47000000000E+01 0.  1.
<mgrwt>
<rscale>  0 0.23581856E+03</rscale>
<asrwt>0</asrwt>
<pdfrwt beam="2">  1        5 0.20825280E-01 0.23581908E+03</pdfrwt>
<pdfrwt beam="1">  1       -5 0.82555205E-01 0.23581908E+03</pdfrwt>
<totfact> 0.22261497E+01</totfact>
</mgrwt>
</event>
<event>
 8    1  0.3488953E-007  0.1986292E+03  0.7546771E-02  0.1150901E+00
          5   -1    0    0  501    0  0.00000000000E+00  0.00000000000E+00  0.82372052494E+02  0.82506030277E+02  0.47000000000E+01 0. -1.
         -5   -1    0    0    0  501 -0.00000000000E+00 -0.00000000000E+00 -0.51551587045E+03  0.51553729515E+03  0.47000000000E+01 0. -1.
         25    2    1    2    0    0  0.14868066493E+03  0.41510014590E+02 -0.29676356424E+03  0.35710113356E+03  0.12499434026E+03 0.  0.
         25    2    1    2    0    0 -0.14868066493E+03 -0.41510014590E+02 -0.13638025372E+03  0.24094219186E+03  0.12499817910E+03 0.  0.
          5    1    4    4  502    0 -0.34443513617E+02  0.43347398468E+02 -0.47453194417E+02  0.73070159741E+02  0.47000000000E+01 0. -1.
         -5    1    4    4    0  502 -0.11423715132E+03 -0.84857413059E+02 -0.88927059303E+02  0.16787203212E+03  0.47000000000E+01 0. -1.
          5    1    3    3  503    0  0.88429901592E+02  0.68633590203E+02 -0.10248824440E+03  0.15184316725E+03  0.47000000000E+01 0. -1.
         -5    1    3    3    0  503  0.60250763342E+02 -0.27123575612E+02 -0.19427531984E+03  0.20525796632E+03  0.47000000000E+01 0. -1.
<mgrwt>
<rscale>  0 0.19862861E+03</rscale>
<asrwt>0</asrwt>
<pdfrwt beam="1">  1        5 0.12684578E-01 0.19862922E+03</pdfrwt>
<pdfrwt beam="2">  1       -5 0.79322086E-01 0.19862922E+03</pdfrwt>
<totfact> 0.58355520E+01</totfact>
</mgrwt>
</event>
<event>
 8    1  0.3488953E-007  0.1720212E+03  0.7546771E-02  0.1175757E+00
         -5   -1    0    0    0  501 -0.00000000000E+00  0.00000000000E+00  0.65919564761E+02  0.66086905044E+02  0.47000000000E+01 0.  1.
          5   -1    0    0  501    0  0.00000000000E+00 -0.00000000000E+00 -0.44841472250E+03  0.44843935304E+03  0.47000000000E+01 0.  1.
         25    2    1    2    0    0 -0.11761578489E+03 -0.11513708764E+02 -0.19754967297E+03  0.26194878211E+03  0.12500101125E+03 0.  0.
         25    2    1    2    0    0  0.11761578489E+03  0.11513708764E+02 -0.18494548477E+03  0.25257747597E+03  0.12499804274E+03 0.  0.
          5    1    3    3  502    0 -0.19285788657E+02  0.48212861426E+02 -0.91999973224E+02  0.10574737219E+03  0.47000000000E+01 0.  1.
         -5    1    3    3    0  502 -0.98329996232E+02 -0.59726570190E+02 -0.10554969975E+03  0.15620140992E+03  0.47000000000E+01 0.  1.
          5    1    4    4  503    0  0.10846873386E+03  0.57153414805E+02 -0.15208089654E+03  0.19540385907E+03  0.47000000000E+01 0.  1.
         -5    1    4    4    0  503  0.91470510335E+01 -0.45639706042E+02 -0.32864588233E+02  0.57173616904E+02  0.47000000000E+01 0.  1.
<mgrwt>
<rscale>  0 0.17202065E+03</rscale>
<asrwt>0</asrwt>
<pdfrwt beam="2">  1        5 0.69001646E-01 0.17202119E+03</pdfrwt>
<pdfrwt beam="1">  1       -5 0.10156239E-01 0.17202119E+03</pdfrwt>
<totfact> 0.11439648E+02</totfact>
</mgrwt>
</event>
<event>
 8    1  0.3488953E-007  0.1278095E+03  0.7546771E-02  0.1230759E+00
          5   -1    0    0  501    0  0.00000000000E+00  0.00000000000E+00  0.34892574924E+03  0.34895740211E+03  0.47000000000E+01 0. -1.
         -5   -1    0    0    0  501 -0.00000000000E+00 -0.00000000000E+00 -0.64335133392E+02  0.64506584072E+02  0.47000000000E+01 0. -1.
         25    2    1    2    0    0  0.24031936013E+02  0.11572666567E+02  0.34116090948E+02  0.13228444926E+03  0.12499522909E+03 0.  0.
         25    2    1    2    0    0 -0.24031936013E+02 -0.11572666567E+02  0.25047452490E+03  0.28117953691E+03  0.12495192593E+03 0.  0.
          5    1    4    4  502    0 -0.70945357306E+02 -0.29866958688E+02  0.14653600002E+03  0.16559036278E+03  0.47000000000E+01 0. -1.
         -5    1    4    4    0  502  0.46913421293E+02  0.18294292121E+02  0.10393852488E+03  0.11558917413E+03  0.47000000000E+01 0. -1.
          5    1    3    3  503    0  0.36388765619E+02  0.51141977874E+02 -0.18057914794E+02  0.65481466468E+02  0.47000000000E+01 0.  1.
         -5    1    3    3    0  503 -0.12356829606E+02 -0.39569311307E+02  0.52174005742E+02  0.66802982796E+02  0.47000000000E+01 0.  1.
<mgrwt>
<rscale>  0 0.12779891E+03</rscale>
<asrwt>0</asrwt>
<pdfrwt beam="1">  1        5 0.53696506E-01 0.12780950E+03</pdfrwt>
<pdfrwt beam="2">  1       -5 0.99133364E-02 0.12780950E+03</pdfrwt>
<totfact> 0.18822550E+02</totfact>
</mgrwt>
</event>
<event>
 8    1  0.3488953E-007  0.1266328E+03  0.7546771E-02  0.1232545E+00
         -5   -1    0    0    0  501 -0.00000000000E+00  0.00000000000E+00  0.50863978221E+02  0.51080664448E+02  0.47000000000E+01 0. -1.
          5   -1    0    0  501    0  0.00000000000E+00 -0.00000000000E+00 -0.36826135029E+03  0.36829134135E+03  0.47000000000E+01 0. -1.
         25    2    1    2    0    0  0.83863774261E+01  0.18414674533E+02 -0.78474618432E+02  0.14896500834E+03  0.12499150535E+03 0.  0.
         25    2    1    2    0    0 -0.83863774261E+01 -0.18414674533E+02 -0.23892275363E+03  0.27040699746E+03  0.12500572189E+03 0.  0.
          5    1    3    3  502    0  0.39091819542E+02  0.28483177608E+02 -0.99078207329E+02  0.11035417042E+03  0.47000000000E+01 0. -1.
         -5    1    3    3    0  502 -0.30705442116E+02 -0.10068503075E+02  0.20603588897E+02  0.38610837923E+02  0.47000000000E+01 0. -1.
          5    1    4    4  503    0  0.49149761504E+02 -0.18507740303E+02 -0.49279014212E+02  0.72171647818E+02  0.47000000000E+01 0.  1.
         -5    1    4    4    0  503 -0.57536138931E+02  0.93065769880E-01 -0.18964373942E+03  0.19823534964E+03  0.47000000000E+01 0.  1.
<mgrwt>
<rscale>  0 0.12662928E+03</rscale>
<asrwt>0</asrwt>
<pdfrwt beam="2">  1        5 0.56674566E-01 0.12663278E+03</pdfrwt>
<pdfrwt beam="1">  1       -5 0.78442028E-02 0.12663278E+03</pdfrwt>
<totfact> 0.25014571E+02</totfact>
</mgrwt>
</event>
<event>
 8    1  0.3488953E-007  0.1446425E+03  0.7546771E-02  0.1207223E+00
         -5   -1    0    0    0  501 -0.00000000000E+00  0.00000000000E+00  0.21070755066E+03  0.21075996277E+03  0.47000000000E+01 0.  1.
          5   -1    0    0  501    0  0.00000000000E+00 -0.00000000000E+00 -0.13246906437E+03  0.13255241610E+03  0.47000000000E+01 0.  1.
         25    2    1    2    0    0 -0.45350795225E+02  0.56862083139E+02  0.12515529795E+03  0.19127283271E+03  0.12502582454E+03 0.  0.
         25    2    1    2    0    0  0.45350795225E+02 -0.56862083139E+02 -0.46916811658E+02  0.15203954616E+03  0.12499938102E+03 0.  0.
          5    1    3    3  502    0  0.37027877970E+02  0.15074044864E+02  0.64165495696E+01  0.40762147685E+02  0.47000000000E+01 0.  1.
         -5    1    3    3    0  502 -0.82378673194E+02  0.41788038274E+02  0.11873874838E+03  0.15051068503E+03  0.47000000000E+01 0.  1.
          5    1    4    4  503    0 -0.17344621654E+02 -0.27754639714E+02 -0.71298546516E+02  0.78592166666E+02  0.47000000000E+01 0. -1.
         -5    1    4    4    0  503  0.62695416878E+02 -0.29107443424E+02  0.24381734858E+02  0.73447379497E+02  0.47000000000E+01 0. -1.
<mgrwt>
<rscale>  0 0.14463677E+03</rscale>
<asrwt>0</asrwt>
<pdfrwt beam="2">  1        5 0.20390300E-01 0.14464248E+03</pdfrwt>
<pdfrwt beam="1">  1       -5 0.32426989E-01 0.14464248E+03</pdfrwt>
<totfact> 0.15117644E+02</totfact>
</mgrwt>
</event>
<event>
 8    1  0.3488953E-007  0.1409826E+03  0.7546771E-02  0.1212015E+00
         -5   -1    0    0    0  501 -0.00000000000E+00  0.00000000000E+00  0.20814419532E+03  0.20819725273E+03  0.47000000000E+01 0. -1.
          5   -1    0    0  501    0  0.00000000000E+00 -0.00000000000E+00 -0.10930149606E+03  0.10940250016E+03  0.47000000000E+01 0. -1.
         25    2    1    2    0    0  0.37822037391E+01  0.65084305941E+02  0.10608488506E+03  0.17643723276E+03  0.12500328923E+03 0.  0.
         25    2    1    2    0    0 -0.37822037391E+01 -0.65084305941E+02 -0.72421858057E+01  0.14116252014E+03  0.12499654352E+03 0.  0.
          5    1    4    4  502    0 -0.47779083254E+02  0.67712275282E+01  0.20058205718E+02  0.52470105159E+02  0.47000000000E+01 0.  1.
         -5    1    4    4    0  502  0.43996879514E+02 -0.71855533469E+02 -0.27300391524E+02  0.88692414977E+02  0.47000000000E+01 0.  1.
          5    1    3    3  503    0 -0.10733008569E+02  0.14816888612E+02  0.12049349269E+03  0.12196519767E+03  0.47000000000E+01 0. -1.
         -5    1    3    3    0  503  0.14515212308E+02  0.50267417330E+02 -0.14408607627E+02  0.54472035092E+02  0.47000000000E+01 0. -1.
<mgrwt>
<rscale>  0 0.14098111E+03</rscale>
<asrwt>0</asrwt>
<pdfrwt beam="2">  1        5 0.16827466E-01 0.14098260E+03</pdfrwt>
<pdfrwt beam="1">  1       -5 0.32034035E-01 0.14098260E+03</pdfrwt>
<totfact> 0.21915109E+02</totfact>
</mgrwt>
</event>
<event>
 8    1  0.3488953E-007  0.1524273E+03  0.7546771E-02  0.1197525E+00
          5   -1    0    0  501    0  0.00000000000E+00  0.00000000000E+00  0.19356280184E+03  0.19361985501E+03  0.47000000000E+01 0.  1.
         -5   -1    0    0    0  501 -0.00000000000E+00 -0.00000000000E+00 -0.12656703628E+03  0.12665427222E+03  0.47000000000E+01 0.  1.
         25    2    1    2    0    0 -0.69151513470E+02 -0.53153458395E+02 -0.32223484316E+01  0.15245084665E+03  0.12499462052E+03 0.  0.
         25    2    1    2    0    0  0.69151513470E+02  0.53153458395E+02  0.70218113991E+02  0.16782328059E+03  0.12500739186E+03 0.  0.
          5    1    4    4  502    0  0.52939143298E+02  0.59577733491E+02 -0.14549286894E+02  0.81153132842E+02  0.47000000000E+01 0. -1.
         -5    1    4    4    0  502  0.16212370172E+02 -0.64242750961E+01  0.84767400885E+02  0.86670147744E+02  0.47000000000E+01 0. -1.
          5    1    3    3  503    0 -0.83845498295E+02  0.25903141924E+01 -0.29333958371E+02  0.88990721009E+02  0.47000000000E+01 0. -1.
         -5    1    3    3    0  503  0.14693984825E+02 -0.55743772587E+02  0.26111609939E+02  0.63460125637E+02  0.47000000000E+01 0. -1.
<mgrwt>
<rscale>  0 0.15242464E+03</rscale>
<asrwt>0</asrwt>
<pdfrwt beam="1">  1        5 0.29789991E-01 0.15242726E+03</pdfrwt>
<pdfrwt beam="2">  1       -5 0.19482951E-01 0.15242726E+03</pdfrwt>
<totfact> 0.19797682E+02</totfact>
</mgrwt>
</event>
<event>
 8    1  0.3488953E-007  0.1345686E+03  0.7546771E-02  0.1220830E+00
         -5   -1    0    0    0  501 -0.00000000000E+00  0.00000000000E+00  0.99953200749E+01  0.11045199111E+02  0.47000000000E+01 0.  1.
          5   -1    0    0  501    0  0.00000000000E+00 -0.00000000000E+00 -0.17321909399E+04  0.17321973162E+04  0.47000000000E+01 0.  1.
         25    2    1    2    0    0  0.40187235081E+02 -0.29476106609E+02 -0.78877313448E+03  0.80016974124E+03  0.12499880953E+03 0.  0.
         25    2    1    2    0    0 -0.40187235081E+02  0.29476106609E+02 -0.93342248531E+03  0.94307277405E+03  0.12499946537E+03 0.  0.
          5    1    4    4  502    0 -0.66634822010E+02  0.13938757261E+02 -0.25596703844E+03  0.26490697089E+03  0.47000000000E+01 0.  1.
         -5    1    4    4    0  502  0.26447586929E+02  0.15537349348E+02 -0.67745544687E+03  0.67816580316E+03  0.47000000000E+01 0.  1.
          5    1    3    3  503    0 -0.25323516294E+02  0.22808606840E+02 -0.89652752170E+02  0.96027178419E+02  0.47000000000E+01 0.  1.
         -5    1    3    3    0  503  0.65510751375E+02 -0.52284713450E+02 -0.69912038231E+03  0.70414256282E+03  0.47000000000E+01 0.  1.
<mgrwt>
<rscale>  0 0.13456850E+03</rscale>
<asrwt>0</asrwt>
<pdfrwt beam="2">  1        5 0.26657194E+00 0.13456865E+03</pdfrwt>
<pdfrwt beam="1">  1       -5 0.16189933E-02 0.13456865E+03</pdfrwt>
<totfact> 0.52388252E+01</totfact>
</mgrwt>
</event>
<event>
 8    1  0.3488953E-007  0.1519359E+03  0.7546771E-02  0.1198116E+00
          5   -1    0    0  501    0  0.00000000000E+00  0.00000000000E+00  0.10577711468E+03  0.10588148087E+03  0.47000000000E+01 0. -1.
         -5   -1    0    0    0  501 -0.00000000000E+00 -0.00000000000E+00 -0.40853580882E+03  0.40856284350E+03  0.47000000000E+01 0. -1.
         25    2    1    2    0    0  0.84277609714E+02  0.18870377693E+02 -0.32701460316E+03  0.36058442121E+03  0.12499506984E+03 0.  0.
         25    2    1    2    0    0 -0.84277609714E+02 -0.18870377693E+02  0.24255909031E+02  0.15385990315E+03  0.12500285606E+03 0.  0.
          5    1    3    3  502    0 -0.19223526562E+02  0.15384829904E+02 -0.98920233943E+01  0.26947710320E+02  0.47000000000E+01 0.  1.
         -5    1    3    3    0  502  0.10350113628E+03  0.34855477883E+01 -0.31712257977E+03  0.33363671089E+03  0.47000000000E+01 0.  1.
          5    1    4    4  503    0 -0.27499128149E+02  0.94110114056E+01 -0.48800458511E+02  0.56994244758E+02  0.47000000000E+01 0.  1.
         -5    1    4    4    0  503 -0.56778481566E+02 -0.28281389098E+02  0.73056367542E+02  0.96865658397E+02  0.47000000000E+01 0.  1.
<mgrwt>
<rscale>  0 0.15193431E+03</rscale>
<asrwt>0</asrwt>
<pdfrwt beam="1">  1        5 0.16283510E-01 0.15193591E+03</pdfrwt>
<pdfrwt beam="2">  1       -5 0.62861770E-01 0.15193591E+03</pdfrwt>
<totfact> 0.58322057E+01</totfact>
</mgrwt>
</event>
<event>
 8    1  0.3488953E-007  0.2453187E+03  0.7546771E-02  0.1116300E+00
         -5   -1    0    0    0  501 -0.00000000000E+00  0.00000000000E+00  0.14342862460E+03  0.14350561088E+03  0.47000000000E+01 0.  1.
          5   -1    0    0  501    0  0.00000000000E+00 -0.00000000000E+00 -0.45161507533E+03  0.45163953134E+03  0.47000000000E+01 0.  1.
         25    2    1    2    0    0  0.93866436303E+02  0.18906452849E+03 -0.74610173867E+02  0.25641348953E+03  0.12499958308E+03 0.  0.
         25    2    1    2    0    0 -0.93866436303E+02 -0.18906452849E+03 -0.23357627687E+03  0.33873165269E+03  0.12499980647E+03 0.  0.
          5    1    3    3  502    0  0.22007882008E+02  0.12047534296E+03 -0.94788555645E+02  0.15493745646E+03  0.47000000000E+01 0. -1.
         -5    1    3    3    0  502  0.71858554295E+02  0.68589185528E+02  0.20178381777E+02  0.10147603307E+03  0.47000000000E+01 0. -1.
          5    1    4    4  503    0  0.12610595461E+02 -0.37549863522E+01  0.80408616022E+01  0.16120561271E+02  0.47000000000E+01 0.  1.
         -5    1    4    4    0  503 -0.10647703176E+03 -0.18530954214E+03 -0.24161713847E+03  0.32261109141E+03  0.47000000000E+01 0.  1.
<mgrwt>
<rscale>  0 0.24531865E+03</rscale>
<asrwt>0</asrwt>
<pdfrwt beam="2">  1        5 0.69487045E-01 0.24531868E+03</pdfrwt>
<pdfrwt beam="1">  1       -5 0.22073746E-01 0.24531868E+03</pdfrwt>
<totfact> 0.29961360E+01</totfact>
</mgrwt>
</event>
<event>
 8    1  0.3488953E-007  0.1274480E+03  0.7546771E-02  0.1231310E+00
          5   -1    0    0  501    0  0.00000000000E+00  0.00000000000E+00  0.53172161122E+02  0.53379478438E+02  0.47000000000E+01 0.  1.
         -5   -1    0    0    0  501 -0.00000000000E+00 -0.00000000000E+00 -0.33140744554E+03  0.33144077142E+03  0.47000000000E+01 0.  1.
         25    2    1    2    0    0 -0.60964423967E+01  0.24049193741E+02 -0.19389730294E+03  0.23203267462E+03  0.12500987031E+03 0.  0.
         25    2    1    2    0    0  0.60964423967E+01 -0.24049193741E+02 -0.84337981481E+02  0.15278757524E+03  0.12496246515E+03 0.  0.
          5    1    4    4  502    0 -0.15291707589E+02 -0.70269717489E+02 -0.29703584135E+02  0.77949101518E+02  0.47000000000E+01 0.  1.
         -5    1    4    4    0  502  0.21388149985E+02  0.46220523748E+02 -0.54634397346E+02  0.74838473720E+02  0.47000000000E+01 0.  1.
          5    1    3    3  503    0 -0.45350425557E+02 -0.34190917015E+02 -0.82993033483E+02  0.10067578414E+03  0.47000000000E+01 0. -1.
         -5    1    3    3    0  503  0.39253983160E+02  0.58240110756E+02 -0.11090426945E+03  0.13135689048E+03  0.47000000000E+01 0. -1.
<mgrwt>
<rscale>  0 0.12743639E+03</rscale>
<asrwt>0</asrwt>
<pdfrwt beam="1">  1        5 0.81988437E-02 0.12744802E+03</pdfrwt>
<pdfrwt beam="2">  1       -5 0.51004271E-01 0.12744802E+03</pdfrwt>
<totfact> 0.29134402E+02</totfact>
</mgrwt>
</event>
<event>
 8    1  0.3488953E-007  0.1303869E+03  0.7546771E-02  0.1226893E+00
          5   -1    0    0  501    0  0.00000000000E+00  0.00000000000E+00  0.47006200717E+02  0.47240585367E+02  0.47000000000E+01 0.  1.
         -5   -1    0    0    0  501 -0.00000000000E+00 -0.00000000000E+00 -0.36697461888E+03  0.36700471509E+03  0.47000000000E+01 0.  1.
         25    2    1    2    0    0  0.31750622530E+02  0.19116466252E+02 -0.18761661034E+03  0.22847480706E+03  0.12500881437E+03 0.  0.
         25    2    1    2    0    0 -0.31750622530E+02 -0.19116466252E+02 -0.13235180782E+03  0.18577049341E+03  0.12498053398E+03 0.  0.
          5    1    4    4  502    0  0.27674342128E+02 -0.53154907843E+01 -0.11999344545E+03  0.12334764127E+03  0.47000000000E+01 0. -1.
         -5    1    4    4    0  502 -0.59424964659E+02 -0.13800975468E+02 -0.12358362366E+02  0.62422852137E+02  0.47000000000E+01 0. -1.
          5    1    3    3  503    0 -0.48345545922E+02  0.85748290904E+01 -0.65984296927E+02  0.82382261109E+02  0.47000000000E+01 0. -1.
         -5    1    3    3    0  503  0.80096168452E+02  0.10541637162E+02 -0.12163231341E+03  0.14609254595E+03  0.47000000000E+01 0. -1.
<mgrwt>
<rscale>  0 0.13038013E+03</rscale>
<asrwt>0</asrwt>
<pdfrwt beam="1">  1        5 0.72520681E-02 0.13038690E+03</pdfrwt>
<pdfrwt beam="2">  1       -5 0.56477977E-01 0.13038690E+03</pdfrwt>
<totfact> 0.29118338E+02</totfact>
</mgrwt>
</event>
<event>
 8    1  0.3488953E-007  0.1728143E+03  0.7546771E-02  0.1174951E+00
         -5   -1    0    0    0  501 -0.00000000000E+00  0.00000000000E+00  0.11052836919E+03  0.11062825315E+03  0.47000000000E+01 0. -1.
          5   -1    0    0  501    0  0.00000000000E+00 -0.00000000000E+00 -0.28822046000E+03  0.28825877882E+03  0.47000000000E+01 0. -1.
         25    2    1    2    0    0 -0.83438545242E+01 -0.11900626729E+03 -0.38607778849E+02  0.17707438097E+03  0.12503065322E+03 0.  0.
         25    2    1    2    0    0  0.83438545242E+01  0.11900626729E+03 -0.13908431197E+03  0.22181265100E+03  0.12499717894E+03 0.  0.
          5    1    4    4  502    0 -0.56061775733E+02  0.38345680876E+02 -0.69166643893E+02  0.97053740616E+02  0.47000000000E+01 0.  1.
         -5    1    4    4    0  502  0.64405630257E+02  0.80660586419E+02 -0.69917668075E+02  0.12475891038E+03  0.47000000000E+01 0.  1.
          5    1    3    3  503    0 -0.53228854103E+02 -0.79644185469E+02 -0.60405317770E+02  0.11334637005E+03  0.47000000000E+01 0.  1.
         -5    1    3    3    0  503  0.44884999579E+02 -0.39362081826E+02  0.21797538921E+02  0.63728010921E+02  0.47000000000E+01 0.  1.
<mgrwt>
<rscale>  0 0.17280823E+03</rscale>
<asrwt>0</asrwt>
<pdfrwt beam="2">  1        5 0.44352240E-01 0.17281428E+03</pdfrwt>
<pdfrwt beam="1">  1       -5 0.17014996E-01 0.17281428E+03</pdfrwt>
<totfact> 0.11824016E+02</totfact>
</mgrwt>
</event>
<event>
 8    1  0.3488953E-007  0.1323176E+03  0.7546771E-02  0.1224058E+00
          5   -1    0    0  501    0  0.00000000000E+00  0.00000000000E+00  0.40458080528E+03  0.40460810422E+03  0.47000000000E+01 0.  1.
         -5   -1    0    0    0  501 -0.00000000000E+00 -0.00000000000E+00 -0.60157326141E+02  0.60340648724E+02  0.47000000000E+01 0.  1.
         25    2    1    2    0    0 -0.63607227017E+01  0.42913732351E+02  0.48737559290E+02  0.14100818716E+03  0.12500364772E+03 0.  0.
         25    2    1    2    0    0  0.63607227017E+01 -0.42913732351E+02  0.29568591985E+03  0.32394056579E+03  0.12500111899E+03 0.  0.
          5    1    3    3  502    0 -0.12470527623E+02  0.76374411083E+02  0.66686264712E+02  0.10226295824E+03  0.47000000000E+01 0. -1.
         -5    1    3    3    0  502  0.61098049214E+01 -0.33460678732E+02 -0.17948705422E+02  0.38745228915E+02  0.47000000000E+01 0. -1.
          5    1    4    4  503    0  0.33400790938E+02  0.34861323007E+02  0.88116154449E+02  0.10058564188E+03  0.47000000000E+01 0. -1.
         -5    1    4    4    0  503 -0.27040068236E+02 -0.77775055358E+02  0.20756976540E+03  0.22335492391E+03  0.47000000000E+01 0. -1.
<mgrwt>
<rscale>  0 0.13231705E+03</rscale>
<asrwt>0</asrwt>
<pdfrwt beam="1">  1        5 0.62259402E-01 0.13231764E+03</pdfrwt>
<pdfrwt beam="2">  1       -5 0.92711749E-02 0.13231764E+03</pdfrwt>
<totfact> 0.15523302E+02</totfact>
</mgrwt>
</event>
<event>
 8    1  0.3488953E-007  0.1266262E+03  0.7546771E-02  0.1232554E+00
         -5   -1    0    0    0  501 -0.00000000000E+00  0.00000000000E+00  0.60212847503E+02  0.60396001560E+02  0.47000000000E+01 0.  1.
          5   -1    0    0  501    0  0.00000000000E+00 -0.00000000000E+00 -0.26586109696E+03  0.26590263797E+03  0.47000000000E+01 0.  1.
         25    2    1    2    0    0  0.18206875703E+02  0.86624789753E+01 -0.98328492428E+02  0.16032054627E+03  0.12501062462E+03 0.  0.
         25    2    1    2    0    0 -0.18206875703E+02 -0.86624789753E+01 -0.10731975703E+03  0.16597809326E+03  0.12499867330E+03 0.  0.
          5    1    4    4  502    0  0.45150958929E+02 -0.35159939332E+02 -0.55057562847E+02  0.79550334083E+02  0.47000000000E+01 0.  1.
         -5    1    4    4    0  502 -0.63357834633E+02  0.26497460356E+02 -0.52262194185E+02  0.86427759174E+02  0.47000000000E+01 0.  1.
          5    1    3    3  503    0  0.42527307398E+02 -0.41353505919E+02 -0.17371187213E+02  0.61988163963E+02  0.47000000000E+01 0. -1.
         -5    1    3    3    0  503 -0.24320431695E+02  0.50015984895E+02 -0.80957305215E+02  0.98332382309E+02  0.47000000000E+01 0. -1.
<mgrwt>
<rscale>  0 0.12662321E+03</rscale>
<asrwt>0</asrwt>
<pdfrwt beam="2">  1        5 0.40918991E-01 0.12662616E+03</pdfrwt>
<pdfrwt beam="1">  1       -5 0.92807993E-02 0.12662616E+03</pdfrwt>
<totfact> 0.37165172E+02</totfact>
</mgrwt>
</event>
<event>
 8    1  0.3488953E-007  0.1453169E+03  0.7546771E-02  0.1206349E+00
          5   -1    0    0  501    0  0.00000000000E+00  0.00000000000E+00  0.46238372045E+03  0.46240760692E+03  0.47000000000E+01 0. -1.
         -5   -1    0    0    0  501 -0.00000000000E+00 -0.00000000000E+00 -0.56026790332E+02  0.56223582551E+02  0.47000000000E+01 0. -1.
         25    2    1    2    0    0  0.52680448038E+01  0.73918510826E+02  0.91143816848E+02  0.17153423640E+03  0.12500040148E+03 0.  0.
         25    2    1    2    0    0 -0.52680448038E+01 -0.73918510826E+02  0.31521311327E+03  0.34709695307E+03  0.12500115805E+03 0.  0.
          5    1    4    4  502    0 -0.51056465706E+02 -0.49711213374E+02  0.84693901614E+02  0.11078408909E+03  0.47000000000E+01 0.  1.
         -5    1    4    4    0  502  0.45788420902E+02 -0.24207297452E+02  0.23051921165E+03  0.23631286398E+03  0.47000000000E+01 0.  1.
          5    1    3    3  503    0 -0.12761477058E+02 -0.28331703834E+02  0.51429173668E+02  0.60270976789E+02  0.47000000000E+01 0.  1.
         -5    1    3    3    0  503  0.18029521862E+02  0.10225021466E+03  0.39714643180E+02  0.11126325961E+03  0.47000000000E+01 0.  1.
<mgrwt>
<rscale>  0 0.14531669E+03</rscale>
<asrwt>0</asrwt>
<pdfrwt beam="1">  1        5 0.71152934E-01 0.14531685E+03</pdfrwt>
<pdfrwt beam="2">  1       -5 0.86364813E-02 0.14531685E+03</pdfrwt>
<totfact> 0.13432720E+02</totfact>
</mgrwt>
</event>
<event>
 8    1  0.3488953E-007  0.1361828E+03  0.7546771E-02  0.1218561E+00
          5   -1    0    0  501    0  0.00000000000E+00  0.00000000000E+00  0.32800202853E+03  0.32803570037E+03  0.47000000000E+01 0.  1.
         -5   -1    0    0    0  501 -0.00000000000E+00 -0.00000000000E+00 -0.86168562295E+02  0.86296646099E+02  0.47000000000E+01 0.  1.
         25    2    1    2    0    0 -0.46305521914E+02 -0.27853589883E+02 -0.69941630453E+00  0.13618139959E+03  0.12499944233E+03 0.  0.
         25    2    1    2    0    0  0.46305521914E+02  0.27853589883E+02  0.24253288254E+03  0.27815094688E+03  0.12500290520E+03 0.  0.
          5    1    4    4  502    0 -0.33737230317E+02  0.32595739328E+02  0.46136305636E+02  0.65964624077E+02  0.47000000000E+01 0.  1.
         -5    1    4    4    0  502  0.80042752231E+02 -0.47421494449E+01  0.19639657690E+03  0.21218632280E+03  0.47000000000E+01 0.  1.
          5    1    3    3  503    0  0.11090078257E+02  0.36867940408E+02  0.24601293639E+02  0.45929821623E+02  0.47000000000E+01 0. -1.
         -5    1    3    3    0  503 -0.57395600171E+02 -0.64721530291E+02 -0.25300709943E+02  0.90251577968E+02  0.47000000000E+01 0. -1.
<mgrwt>
<rscale>  0 0.13618199E+03</rscale>
<asrwt>0</asrwt>
<pdfrwt beam="1">  1        5 0.50474292E-01 0.13618278E+03</pdfrwt>
<pdfrwt beam="2">  1       -5 0.13269145E-01 0.13618278E+03</pdfrwt>
<totfact> 0.13122653E+02</totfact>
</mgrwt>
</event>
<event>
 8    1  0.3488953E-007  0.1274760E+03  0.7546771E-02  0.1231252E+00
         -5   -1    0    0    0  501 -0.00000000000E+00  0.00000000000E+00  0.94913299804E+02  0.95029597914E+02  0.47000000000E+01 0.  1.
          5   -1    0    0  501    0  0.00000000000E+00 -0.00000000000E+00 -0.17095152336E+03  0.17101612012E+03  0.47000000000E+01 0.  1.
         25    2    1    2    0    0 -0.23852202625E+02  0.73240442354E+01 -0.37363196943E+02  0.13283878135E+03  0.12501025618E+03 0.  0.
         25    2    1    2    0    0  0.23852202625E+02 -0.73240442354E+01 -0.38675026616E+02  0.13320693669E+03  0.12500304438E+03 0.  0.
          5    1    4    4  502    0  0.13830718548E+02 -0.59788545591E+02 -0.48916076408E+02  0.78618264358E+02  0.47000000000E+01 0. -1.
         -5    1    4    4    0  502  0.10021484078E+02  0.52464501356E+02  0.10241049792E+02  0.54588672328E+02  0.47000000000E+01 0. -1.
          5    1    3    3  503    0  0.15753260452E+02 -0.29380276131E+02  0.30883647407E+02  0.45686491631E+02  0.47000000000E+01 0. -1.
         -5    1    3    3    0  503 -0.39605463077E+02  0.36704320367E+02 -0.68246844350E+02  0.87152289716E+02  0.47000000000E+01 0. -1.
<mgrwt>
<rscale>  0 0.12747424E+03</rscale>
<asrwt>0</asrwt>
<pdfrwt beam="2">  1        5 0.26314149E-01 0.12747601E+03</pdfrwt>
<pdfrwt beam="1">  1       -5 0.14615961E-01 0.12747601E+03</pdfrwt>
<totfact> 0.40126439E+02</totfact>
</mgrwt>
</event>
<event>
 8    1  0.3488953E-007  0.1285776E+03  0.7546771E-02  0.1229583E+00
         -5   -1    0    0    0  501 -0.00000000000E+00  0.00000000000E+00  0.24407927357E+04  0.24407972609E+04  0.47000000000E+01 0.  1.
          5   -1    0    0  501    0  0.00000000000E+00 -0.00000000000E+00 -0.70319964197E+01  0.84580715087E+01  0.47000000000E+01 0.  1.
         25    2    1    2    0    0  0.28340087211E+02 -0.10173122643E+02  0.16515815332E+04  0.16565789349E+04  0.12500221500E+03 0.  0.
         25    2    1    2    0    0 -0.28340087211E+02  0.10173122643E+02  0.78217920607E+03  0.79267639747E+03  0.12499963093E+03 0.  0.
          5    1    4    4  502    0  0.37073554670E+02 -0.18837668009E+02  0.49163476983E+03  0.49341275125E+03  0.47000000000E+01 0.  1.
         -5    1    4    4    0  502 -0.65413641882E+02  0.29010790651E+02  0.29054443624E+03  0.29926364622E+03  0.47000000000E+01 0.  1.
          5    1    3    3  503    0  0.76978026331E+02  0.53497675273E+01  0.99392624906E+03  0.99692813940E+03  0.47000000000E+01 0. -1.
         -5    1    3    3    0  503 -0.48637939119E+02 -0.15522890170E+02  0.65765528416E+03  0.65965079552E+03  0.47000000000E+01 0. -1.
<mgrwt>
<rscale>  0 0.12857700E+03</rscale>
<asrwt>0</asrwt>
<pdfrwt beam="2">  1        5 0.11918916E-02 0.12857763E+03</pdfrwt>
<pdfrwt beam="1">  1       -5 0.37561668E+00 0.12857763E+03</pdfrwt>
<totfact> 0.16583954E+01</totfact>
</mgrwt>
</event>
<event>
 8    1  0.3488953E-007  0.1601484E+03  0.7546771E-02  0.1188545E+00
          5   -1    0    0  501    0  0.00000000000E+00  0.00000000000E+00  0.58182402099E+03  0.58184300408E+03  0.47000000000E+01 0. -1.
         -5   -1    0    0    0  501 -0.00000000000E+00 -0.00000000000E+00 -0.43982185834E+02  0.44232597377E+02  0.47000000000E+01 0. -1.
         25    2    1    2    0    0 -0.64242357065E+01 -0.99825133547E+02  0.28048606155E+03  0.32295929743E+03  0.12499579583E+03 0.  0.
         25    2    1    2    0    0  0.64242357065E+01  0.99825133547E+02  0.25735577360E+03  0.30311630404E+03  0.12506466917E+03 0.  0.
          5    1    4    4  502    0  0.52943770767E+02  0.99890228641E+02  0.17438528333E+03  0.20787837233E+03  0.47000000000E+01 0.  1.
         -5    1    4    4    0  502 -0.46519535060E+02 -0.65095093908E-01  0.82970490268E+02  0.95237931702E+02  0.47000000000E+01 0.  1.
          5    1    3    3  503    0  0.37800490216E+02 -0.10408699031E+03  0.16162491042E+03  0.19597877508E+03  0.47000000000E+01 0.  1.
         -5    1    3    3    0  503 -0.44224725923E+02  0.42618567672E+01  0.11886115114E+03  0.12698052235E+03  0.47000000000E+01 0.  1.
<mgrwt>
<rscale>  0 0.16013492E+03</rscale>
<asrwt>0</asrwt>
<pdfrwt beam="1">  1        5 0.89532113E-01 0.16014837E+03</pdfrwt>
<pdfrwt beam="2">  1       -5 0.67872126E-02 0.16014837E+03</pdfrwt>
<totfact> 0.12286460E+02</totfact>
</mgrwt>
</event>
<event>
 8    1  0.3488953E-007  0.1380510E+03  0.7546771E-02  0.1215980E+00
          5   -1    0    0  501    0  0.00000000000E+00  0.00000000000E+00  0.74957698665E+03  0.74959172148E+03  0.47000000000E+01 0.  1.
         -5   -1    0    0    0  501 -0.00000000000E+00 -0.00000000000E+00 -0.26177367352E+02  0.26595950096E+02  0.47000000000E+01 0.  1.
         25    2    1    2    0    0 -0.52624433596E+02  0.25731206229E+02  0.28696450477E+03  0.31843916689E+03  0.12499379996E+03 0.  0.
         25    2    1    2    0    0  0.52624433596E+02 -0.25731206229E+02  0.43643511453E+03  0.45774850469E+03  0.12500663328E+03 0.  0.
          5    1    4    4  502    0  0.18175898717E+01  0.37131696353E+02  0.47632356847E+02  0.60605263185E+02  0.47000000000E+01 0. -1.
         -5    1    4    4    0  502  0.50806843725E+02 -0.62862902581E+02  0.38880275768E+03  0.39714324150E+03  0.47000000000E+01 0. -1.
          5    1    3    3  503    0  0.21079746062E+02  0.45109729661E+01  0.20463522228E+03  0.20582120583E+03  0.47000000000E+01 0.  1.
         -5    1    3    3    0  503 -0.73704179658E+02  0.21220233263E+02  0.82329282492E+02  0.11261796106E+03  0.47000000000E+01 0.  1.
<mgrwt>
<rscale>  0 0.13804812E+03</rscale>
<asrwt>0</asrwt>
<pdfrwt beam="1">  1        5 0.11535288E+00 0.13805102E+03</pdfrwt>
<pdfrwt beam="2">  1       -5 0.40606190E-02 0.13805102E+03</pdfrwt>
<totfact> 0.14861181E+02</totfact>
</mgrwt>
</event>
<event>
 8    1  0.3488953E-007  0.3660914E+03  0.7546771E-02  0.1056199E+00
         -5   -1    0    0    0  501 -0.00000000000E+00  0.00000000000E+00  0.73854708123E+03  0.73856203612E+03  0.47000000000E+01 0.  1.
          5   -1    0    0  501    0  0.00000000000E+00 -0.00000000000E+00 -0.21131866209E+03  0.21137092266E+03  0.47000000000E+01 0.  1.
         25    2    1    2    0    0 -0.21268558421E+03 -0.27046876163E+03  0.44225535762E+03  0.57411908838E+03  0.12503766453E+03 0.  0.
         25    2    1    2    0    0  0.21268558421E+03  0.27046876163E+03  0.84973061532E+02  0.37581387040E+03  0.12500854070E+03 0.  0.
          5    1    3    3  502    0 -0.19371087316E+03 -0.26794566354E+03  0.44479985081E+03  0.55424523297E+03  0.47000000000E+01 0.  1.
         -5    1    3    3    0  502 -0.18974711048E+02 -0.25230980978E+01 -0.25444931917E+01  0.19873855413E+02  0.47000000000E+01 0.  1.
          5    1    4    4  503    0  0.20053815938E+03  0.20963555202E+03  0.10783106796E+03  0.30953553472E+03  0.47000000000E+01 0.  1.
         -5    1    4    4    0  503  0.12147424830E+02  0.60833209616E+02 -0.22858006430E+02  0.66278335677E+02  0.47000000000E+01 0.  1.
<mgrwt>
<rscale>  0 0.36608893E+03</rscale>
<asrwt>0</asrwt>
<pdfrwt beam="2">  1        5 0.32515734E-01 0.36609142E+03</pdfrwt>
<pdfrwt beam="1">  1       -5 0.11362780E+00 0.36609142E+03</pdfrwt>
<totfact> 0.46292662E+00</totfact>
</mgrwt>
</event>
<event>
 8    1  0.3488953E-007  0.1273462E+03  0.7546771E-02  0.1231447E+00
          5   -1    0    0  501    0  0.00000000000E+00  0.00000000000E+00  0.38489800750E+02  0.38775698082E+02  0.47000000000E+01 0.  1.
         -5   -1    0    0    0  501 -0.00000000000E+00 -0.00000000000E+00 -0.44990724980E+03  0.44993179863E+03  0.47000000000E+01 0.  1.
         25    2    1    2    0    0  0.23664794003E+02 -0.56670767518E+01 -0.26923740129E+03  0.29783525032E+03  0.12499967939E+03 0.  0.
         25    2    1    2    0    0 -0.23664794003E+02  0.56670767518E+01 -0.14218004776E+03  0.19087224639E+03  0.12499964091E+03 0.  0.
          5    1    3    3  502    0  0.17992153268E+02 -0.23314489983E+02 -0.19729821491E+01  0.29887550601E+02  0.47000000000E+01 0. -1.
         -5    1    3    3    0  502  0.56726407355E+01  0.17647413231E+02 -0.26726441914E+03  0.26794769972E+03  0.47000000000E+01 0. -1.
          5    1    4    4  503    0  0.16267261698E+02 -0.42652538193E+02 -0.11221302018E+03  0.12123413181E+03  0.47000000000E+01 0.  1.
         -5    1    4    4    0  503 -0.39932055701E+02  0.48319614945E+02 -0.29967027578E+02  0.69638114584E+02  0.47000000000E+01 0.  1.
<mgrwt>
<rscale>  0 0.12734620E+03</rscale>
<asrwt>0</asrwt>
<pdfrwt beam="1">  1        5 0.59453886E-02 0.12734621E+03</pdfrwt>
<pdfrwt beam="2">  1       -5 0.69240377E-01 0.12734621E+03</pdfrwt>
<totfact> 0.25781184E+02</totfact>
</mgrwt>
</event>
<event>
 8    1  0.3488953E-007  0.1489026E+03  0.7546771E-02  0.1201829E+00
          5   -1    0    0  501    0  0.00000000000E+00  0.00000000000E+00  0.55230325552E+02  0.55429945522E+02  0.47000000000E+01 0. -1.
         -5   -1    0    0    0  501 -0.00000000000E+00 -0.00000000000E+00 -0.40100370140E+03  0.40103124384E+03  0.47000000000E+01 0. -1.
         25    2    1    2    0    0  0.75869074510E+02  0.28107251144E+02 -0.18100271445E+03  0.23437996322E+03  0.12500340190E+03 0.  0.
         25    2    1    2    0    0 -0.75869074510E+02 -0.28107251144E+02 -0.16477066140E+03  0.22208122614E+03  0.12499826445E+03 0.  0.
          5    1    4    4  502    0 -0.89518462914E+01 -0.52731582610E+01  0.20645585410E+02  0.23585418101E+02  0.47000000000E+01 0. -1.
         -5    1    4    4    0  502 -0.66917228218E+02 -0.22834092883E+02 -0.18541624681E+03  0.19849580804E+03  0.47000000000E+01 0. -1.
          5    1    3    3  503    0  0.63501784718E+02  0.43767210449E+02 -0.31439185758E+02  0.83417970330E+02  0.47000000000E+01 0. -1.
         -5    1    3    3    0  503  0.12367289791E+02 -0.15659959305E+02 -0.14956352869E+03  0.15096199289E+03  0.47000000000E+01 0. -1.
<mgrwt>
<rscale>  0 0.14890152E+03</rscale>
<asrwt>0</asrwt>
<pdfrwt beam="1">  1        5 0.85144475E-02 0.14890260E+03</pdfrwt>
<pdfrwt beam="2">  1       -5 0.61710349E-01 0.14890260E+03</pdfrwt>
<totfact> 0.19067888E+02</totfact>
</mgrwt>
</event>
<event>
 8    1  0.3488953E-007  0.2030874E+03  0.7546771E-02  0.1147161E+00
         -5   -1    0    0    0  501 -0.00000000000E+00  0.00000000000E+00  0.97082644533E+02  0.97196346996E+02  0.47000000000E+01 0. -1.
          5   -1    0    0  501    0  0.00000000000E+00 -0.00000000000E+00 -0.44856744277E+03  0.44859206493E+03  0.47000000000E+01 0. -1.
         25    2    1    2    0    0  0.91700245279E+02  0.13118665941E+03 -0.11247971993E+03  0.23215553555E+03  0.12500252278E+03 0.  0.
         25    2    1    2    0    0 -0.91700245279E+02 -0.13118665941E+03 -0.23900507831E+03  0.31363287637E+03  0.12499311616E+03 0.  0.
          5    1    3    3  502    0  0.10184543790E+03  0.14989834243E+03 -0.10091420104E+03  0.20747957069E+03  0.47000000000E+01 0. -1.
         -5    1    3    3    0  502 -0.10145192622E+02 -0.18711683015E+02 -0.11565518889E+02  0.24675964860E+02  0.47000000000E+01 0. -1.
          5    1    4    4  503    0 -0.17405993605E+02  0.64853080565E+01 -0.10754515653E+03  0.10923863112E+03  0.47000000000E+01 0.  1.
         -5    1    4    4    0  503 -0.74294251674E+02 -0.13767196747E+03 -0.13145992178E+03  0.20439424525E+03  0.47000000000E+01 0.  1.
<mgrwt>
<rscale>  0 0.20308599E+03</rscale>
<asrwt>0</asrwt>
<pdfrwt beam="2">  1        5 0.69021015E-01 0.20308743E+03</pdfrwt>
<pdfrwt beam="1">  1       -5 0.14946432E-01 0.20308743E+03</pdfrwt>
<totfact> 0.60039215E+01</totfact>
</mgrwt>
</event>
<event>
 8    1  0.3488953E-007  0.1569106E+03  0.7546771E-02  0.1192234E+00
         -5   -1    0    0    0  501 -0.00000000000E+00  0.00000000000E+00  0.53061392329E+02  0.53269140747E+02  0.47000000000E+01 0.  1.
          5   -1    0    0  501    0  0.00000000000E+00 -0.00000000000E+00 -0.47013136585E+03  0.47015485869E+03  0.47000000000E+01 0.  1.
         25    2    1    2    0    0 -0.88346209182E+01  0.94433655149E+02 -0.17593944883E+03  0.23573518094E+03  0.12498247927E+03 0.  0.
         25    2    1    2    0    0  0.88346209182E+01 -0.94433655149E+02 -0.24113052468E+03  0.28768881850E+03  0.12500064242E+03 0.  0.
          5    1    3    3  502    0 -0.13290989407E+02  0.64460264664E+02 -0.97022888946E+01  0.66693331974E+02  0.47000000000E+01 0. -1.
         -5    1    3    3    0  502  0.44563684889E+01  0.29973390485E+02 -0.16623715994E+03  0.16904184896E+03  0.47000000000E+01 0. -1.
          5    1    4    4  503    0  0.56487735664E+02 -0.10093998276E+02 -0.11474868914E+03  0.12838264969E+03  0.47000000000E+01 0. -1.
         -5    1    4    4    0  503 -0.47653114745E+02 -0.84339656873E+02 -0.12638183554E+03  0.15930616881E+03  0.47000000000E+01 0. -1.
<mgrwt>
<rscale>  0 0.15690695E+03</rscale>
<asrwt>0</asrwt>
<pdfrwt beam="2">  1        5 0.72345688E-01 0.15691057E+03</pdfrwt>
<pdfrwt beam="1">  1       -5 0.81810792E-02 0.15691057E+03</pdfrwt>
<totfact> 0.14555406E+02</totfact>
</mgrwt>
</event>
<event>
 8    1  0.3488953E-007  0.1277402E+03  0.7546771E-02  0.1230850E+00
         -5   -1    0    0    0  501 -0.00000000000E+00  0.00000000000E+00  0.10731287399E+04  0.10731390321E+04  0.47000000000E+01 0. -1.
          5   -1    0    0  501    0  0.00000000000E+00 -0.00000000000E+00 -0.25329259807E+02  0.25761626547E+02  0.47000000000E+01 0. -1.
         25    2    1    2    0    0  0.29660359358E+01 -0.26113014087E+02  0.87357465370E+03  0.88286399104E+03  0.12500185682E+03 0.  0.
         25    2    1    2    0    0 -0.29660359358E+01  0.26113014087E+02  0.17422482636E+03  0.21603666766E+03  0.12500745890E+03 0.  0.
          5    1    4    4  502    0 -0.20291168068E+01  0.75408737021E+02  0.83167568073E+02  0.11238117864E+03  0.47000000000E+01 0.  1.
         -5    1    4    4    0  502 -0.93691912895E+00 -0.49295722933E+02  0.91057258284E+02  0.10365548902E+03  0.47000000000E+01 0.  1.
          5    1    3    3  503    0  0.57397865541E+02 -0.33371454914E+02  0.60788268077E+03  0.61151583181E+03  0.47000000000E+01 0. -1.
         -5    1    3    3    0  503 -0.54431829605E+02  0.72584408266E+01  0.26569197293E+03  0.27134815923E+03  0.47000000000E+01 0. -1.
<mgrwt>
<rscale>  0 0.12773880E+03</rscale>
<asrwt>0</asrwt>
<pdfrwt beam="2">  1        5 0.39308600E-02 0.12774017E+03</pdfrwt>
<pdfrwt beam="1">  1       -5 0.16513078E+00 0.12774017E+03</pdfrwt>
<totfact> 0.58924048E+01</totfact>
</mgrwt>
</event>
<event>
 8    1  0.3488953E-007  0.1507499E+03  0.7546771E-02  0.1199557E+00
         -5   -1    0    0    0  501 -0.00000000000E+00  0.00000000000E+00  0.10818225020E+04  0.10818327116E+04  0.47000000000E+01 0.  1.
          5   -1    0    0  501    0  0.00000000000E+00 -0.00000000000E+00 -0.20957630532E+02  0.21478181429E+02  0.47000000000E+01 0.  1.
         25    2    1    2    0    0  0.60980393473E+02 -0.58146768551E+02  0.58692742082E+03  0.60597799413E+03  0.12500350789E+03 0.  0.
         25    2    1    2    0    0 -0.60980393473E+02  0.58146768551E+02  0.47393745068E+03  0.49733289890E+03  0.12499460025E+03 0.  0.
          5    1    4    4  502    0 -0.77694393691E+02 -0.11715048803E+02  0.25343551880E+03  0.26537768061E+03  0.47000000000E+01 0.  1.
         -5    1    4    4    0  502  0.16714000218E+02  0.69861817353E+02  0.22050193188E+03  0.23195521828E+03  0.47000000000E+01 0.  1.
          5    1    3    3  503    0  0.96822673881E+02 -0.59498662710E+02  0.41630997105E+03  0.43156784291E+03  0.47000000000E+01 0. -1.
         -5    1    3    3    0  503 -0.35842280408E+02  0.13518941596E+01  0.17061744977E+03  0.17441015122E+03  0.47000000000E+01 0. -1.
<mgrwt>
<rscale>  0 0.15074805E+03</rscale>
<asrwt>0</asrwt>
<pdfrwt beam="2">  1        5 0.32650784E-02 0.15074990E+03</pdfrwt>
<pdfrwt beam="1">  1       -5 0.16647507E+00 0.15074990E+03</pdfrwt>
<totfact> 0.81898689E+01</totfact>
</mgrwt>
</event>
<event>
 8    1  0.3488953E-007  0.1361901E+03  0.7546771E-02  0.1218550E+00
         -5   -1    0    0    0  501 -0.00000000000E+00  0.00000000000E+00  0.70747060950E+03  0.70748622129E+03  0.47000000000E+01 0. -1.
          5   -1    0    0  501    0  0.00000000000E+00 -0.00000000000E+00 -0.26429792898E+02  0.26844439883E+02  0.47000000000E+01 0. -1.
         25    2    1    2    0    0 -0.35197131489E+02  0.41025965923E+02  0.38749885986E+03  0.41073427435E+03  0.12500123913E+03 0.  0.
         25    2    1    2    0    0  0.35197131489E+02 -0.41025965923E+02  0.29354195674E+03  0.32359638682E+03  0.12500309296E+03 0.  0.
          5    1    4    4  502    0 -0.81286920099E+00 -0.24438663736E+02  0.28048963490E+03  0.28159267450E+03  0.47000000000E+01 0.  1.
         -5    1    4    4    0  502  0.36010000690E+02 -0.16587302187E+02  0.13052321838E+02  0.42003712323E+02  0.47000000000E+01 0.  1.
          5    1    3    3  503    0  0.42348523937E+02  0.76759004367E+01  0.71184827622E+02  0.83316784688E+02  0.47000000000E+01 0. -1.
         -5    1    3    3    0  503 -0.77545655426E+02  0.33350065486E+02  0.31631403224E+03  0.32741748966E+03  0.47000000000E+01 0. -1.
<mgrwt>
<rscale>  0 0.13618967E+03</rscale>
<asrwt>0</asrwt>
<pdfrwt beam="2">  1        5 0.40992187E-02 0.13619009E+03</pdfrwt>
<pdfrwt beam="1">  1       -5 0.10887473E+00 0.13619009E+03</pdfrwt>
<totfact> 0.16828274E+02</totfact>
</mgrwt>
</event>
<event>
 8    1  0.3488953E-007  0.1399939E+03  0.7546771E-02  0.1213352E+00
         -5   -1    0    0    0  501 -0.00000000000E+00  0.00000000000E+00  0.36183586397E+03  0.36186638757E+03  0.47000000000E+01 0. -1.
          5   -1    0    0  501    0  0.00000000000E+00 -0.00000000000E+00 -0.54040063285E+02  0.54244063637E+02  0.47000000000E+01 0. -1.
         25    2    1    2    0    0  0.63011623259E+02  0.86794808697E+00  0.15862944503E+03  0.21154040053E+03  0.12495928227E+03 0.  0.
         25    2    1    2    0    0 -0.63011623259E+02 -0.86794808697E+00  0.14916635565E+03  0.20457005067E+03  0.12500834362E+03 0.  0.
          5    1    4    4  502    0  0.27172136929E+02 -0.23160842694E+02  0.82835935755E+02  0.90325145513E+02  0.47000000000E+01 0.  1.
         -5    1    4    4    0  502 -0.90183760188E+02  0.22292894607E+02  0.66330419891E+02  0.11424490516E+03  0.47000000000E+01 0.  1.
          5    1    3    3  503    0  0.95481429212E+02  0.19067766392E+02  0.13729249512E+03  0.16837934034E+03  0.47000000000E+01 0.  1.
         -5    1    3    3    0  503 -0.32469805952E+02 -0.18199818305E+02  0.21336949919E+02  0.43161060190E+02  0.47000000000E+01 0.  1.
<mgrwt>
<rscale>  0 0.13998299E+03</rscale>
<asrwt>0</asrwt>
<pdfrwt beam="2">  1        5 0.83318963E-02 0.13999394E+03</pdfrwt>
<pdfrwt beam="1">  1       -5 0.55685096E-01 0.13999394E+03</pdfrwt>
<totfact> 0.24263525E+02</totfact>
</mgrwt>
</event>
<event>
 8    1  0.3488953E-007  0.2310352E+03  0.7546771E-02  0.1125916E+00
         -5   -1    0    0    0  501 -0.00000000000E+00  0.00000000000E+00  0.28839866637E+03  0.28843696151E+03  0.47000000000E+01 0.  1.
          5   -1    0    0  501    0  0.00000000000E+00 -0.00000000000E+00 -0.36240139616E+03  0.36243187213E+03  0.47000000000E+01 0.  1.
         25    2    1    2    0    0  0.19198766653E+03  0.29737208380E+02  0.19067161640E+03  0.29955457397E+03  0.12503484244E+03 0.  0.
         25    2    1    2    0    0 -0.19198766653E+03 -0.29737208380E+02 -0.26467434618E+03  0.35131425967E+03  0.12500253540E+03 0.  0.
          5    1    3    3  502    0  0.37690151928E+02  0.39253003841E+02  0.75152936284E+00  0.54626007170E+02  0.47000000000E+01 0.  1.
         -5    1    3    3    0  502  0.15429751460E+03 -0.95157954615E+01  0.18992008703E+03  0.24492856680E+03  0.47000000000E+01 0.  1.
          5    1    4    4  503    0 -0.14232580910E+02 -0.13152388377E+02 -0.11952991823E+03  0.12118185933E+03  0.47000000000E+01 0. -1.
         -5    1    4    4    0  503 -0.17775508562E+03 -0.16584820003E+02 -0.14514442795E+03  0.23013240033E+03  0.47000000000E+01 0. -1.
<mgrwt>
<rscale>  0 0.23103086E+03</rscale>
<asrwt>0</asrwt>
<pdfrwt beam="2">  1        5 0.55759351E-01 0.23103523E+03</pdfrwt>
<pdfrwt beam="1">  1       -5 0.44374316E-01 0.23103523E+03</pdfrwt>
<totfact> 0.11976641E+01</totfact>
</mgrwt>
</event>
<event>
 8    1  0.3488953E-007  0.1551360E+03  0.7546771E-02  0.1194301E+00
         -5   -1    0    0    0  501 -0.00000000000E+00  0.00000000000E+00  0.51034851517E+03  0.51037015679E+03  0.47000000000E+01 0.  1.
          5   -1    0    0  501    0  0.00000000000E+00 -0.00000000000E+00 -0.47054577358E+02  0.47288722232E+02  0.47000000000E+01 0.  1.
         25    2    1    2    0    0 -0.49686594498E+02 -0.77283983426E+02  0.23939341034E+03  0.28526463745E+03  0.12500054679E+03 0.  0.
         25    2    1    2    0    0  0.49686594498E+02  0.77283983426E+02  0.22390052747E+03  0.27239424157E+03  0.12500241946E+03 0.  0.
          5    1    4    4  502    0  0.36105476049E+02 -0.99731532191E+00  0.17550727245E+03  0.17924701593E+03  0.47000000000E+01 0. -1.
         -5    1    4    4    0  502  0.13581118449E+02  0.78281298748E+02  0.48393255023E+02  0.93147225637E+02  0.47000000000E+01 0. -1.
          5    1    3    3  503    0 -0.43231393166E+02 -0.10865798234E+03  0.21477504598E+03  0.24459337860E+03  0.47000000000E+01 0.  1.
         -5    1    3    3    0  503 -0.64552013321E+01  0.31373998915E+02  0.24618364365E+02  0.40671258846E+02  0.47000000000E+01 0.  1.
<mgrwt>
<rscale>  0 0.15513562E+03</rscale>
<asrwt>0</asrwt>
<pdfrwt beam="2">  1        5 0.72588417E-02 0.15513599E+03</pdfrwt>
<pdfrwt beam="1">  1       -5 0.78534831E-01 0.15513599E+03</pdfrwt>
<totfact> 0.14749028E+02</totfact>
</mgrwt>
</event>
<event>
 8    1  0.3488953E-007  0.1482085E+03  0.7546771E-02  0.1202692E+00
         -5   -1    0    0    0  501 -0.00000000000E+00  0.00000000000E+00  0.20194372077E+04  0.20194426771E+04  0.47000000000E+01 0. -1.
          5   -1    0    0  501    0  0.00000000000E+00 -0.00000000000E+00 -0.12478579314E+02  0.13334351941E+02  0.47000000000E+01 0. -1.
         25    2    1    2    0    0  0.76460011959E+02 -0.22251222388E+02  0.14069635625E+04  0.14147480295E+04  0.12499708153E+03 0.  0.
         25    2    1    2    0    0 -0.76460011959E+02  0.22251222388E+02  0.59999506589E+03  0.61802899950E+03  0.12499805921E+03 0.  0.
          5    1    3    3  502    0  0.54433247250E+02 -0.14987067955E+02  0.13679179846E+04  0.13690906812E+04  0.47000000000E+01 0.  1.
         -5    1    3    3    0  502  0.22026764709E+02 -0.72641544335E+01  0.39045577888E+02  0.45657348321E+02  0.47000000000E+01 0.  1.
          5    1    4    4  503    0 -0.62175196480E+02  0.23497438592E+02  0.11582705254E+03  0.13362589861E+03  0.47000000000E+01 0.  1.
         -5    1    4    4    0  503 -0.14284815479E+02 -0.12462162040E+01  0.48416801335E+03  0.48440310090E+03  0.47000000000E+01 0.  1.
<mgrwt>
<rscale>  0 0.14820831E+03</rscale>
<asrwt>0</asrwt>
<pdfrwt beam="2">  1        5 0.19860296E-02 0.14820852E+03</pdfrwt>
<pdfrwt beam="1">  1       -5 0.31074908E+00 0.14820852E+03</pdfrwt>
<totfact> 0.20443812E+01</totfact>
</mgrwt>
</event>
<event>
 8    1  0.3488953E-007  0.1322420E+03  0.7546771E-02  0.1224167E+00
         -5   -1    0    0    0  501 -0.00000000000E+00  0.00000000000E+00  0.47662141235E+02  0.47893315891E+02  0.47000000000E+01 0. -1.
          5   -1    0    0  501    0  0.00000000000E+00 -0.00000000000E+00 -0.39991372974E+03  0.39994134724E+03  0.47000000000E+01 0. -1.
         25    2    1    2    0    0  0.42982694410E+02  0.36463568362E+01 -0.11072151985E+03  0.17247178891E+03  0.12500582017E+03 0.  0.
         25    2    1    2    0    0 -0.42982694410E+02 -0.36463568362E+01 -0.24153006866E+03  0.27536287422E+03  0.12500852170E+03 0.  0.
          5    1    4    4  502    0 -0.42750901010E+02 -0.39238989847E+02 -0.23059701936E+03  0.23783274206E+03  0.47000000000E+01 0. -1.
         -5    1    4    4    0  502 -0.23179340007E+00  0.35592633011E+02 -0.10933049303E+02  0.37530132159E+02  0.47000000000E+01 0. -1.
          5    1    3    3  503    0 -0.85693703216E+01 -0.26523514628E+02  0.15869834954E+02  0.32417165166E+02  0.47000000000E+01 0. -1.
         -5    1    3    3    0  503  0.51552064732E+02  0.30169871465E+02 -0.12659135480E+03  0.14005462375E+03  0.47000000000E+01 0. -1.
<mgrwt>
<rscale>  0 0.13224133E+03</rscale>
<asrwt>0</asrwt>
<pdfrwt beam="2">  1        5 0.61545094E-01 0.13224197E+03</pdfrwt>
<pdfrwt beam="1">  1       -5 0.73525445E-02 0.13224197E+03</pdfrwt>
<totfact> 0.23706997E+02</totfact>
</mgrwt>
</event>
<event>
 8    1  0.3488953E-007  0.1536789E+03  0.7546771E-02  0.1196024E+00
          5   -1    0    0  501    0  0.00000000000E+00  0.00000000000E+00  0.24150227731E+03  0.24154800754E+03  0.47000000000E+01 0. -1.
         -5   -1    0    0    0  501 -0.00000000000E+00 -0.00000000000E+00 -0.11803324680E+03  0.11812678507E+03  0.47000000000E+01 0. -1.
         25    2    1    2    0    0 -0.69166675258E+02  0.56638984723E+02 -0.12895327233E+02  0.15421895560E+03  0.12500077298E+03 0.  0.
         25    2    1    2    0    0  0.69166675258E+02 -0.56638984723E+02  0.13636435774E+03  0.20545583701E+03  0.12499943736E+03 0.  0.
          5    1    3    3  502    0 -0.78456244484E+02 -0.94382517595E+01 -0.30847508454E+02  0.84959529617E+02  0.47000000000E+01 0. -1.
         -5    1    3    3    0  502  0.92895692265E+01  0.66077236482E+02  0.17952181222E+02  0.69259425988E+02  0.47000000000E+01 0. -1.
          5    1    4    4  503    0 -0.66030803219E+01 -0.24303839728E+02  0.11822708459E+03  0.12097111567E+03  0.47000000000E+01 0. -1.
         -5    1    4    4    0  503  0.75769755580E+02 -0.32335144995E+02  0.18137273153E+02  0.84484721340E+02  0.47000000000E+01 0. -1.
<mgrwt>
<rscale>  0 0.15367860E+03</rscale>
<asrwt>0</asrwt>
<pdfrwt beam="1">  1        5 0.37164910E-01 0.15367888E+03</pdfrwt>
<pdfrwt beam="2">  1       -5 0.18169674E-01 0.15367888E+03</pdfrwt>
<totfact> 0.14535870E+02</totfact>
</mgrwt>
</event>
<event>
 8    1  0.3488953E-007  0.1277912E+03  0.7546771E-02  0.1230773E+00
          5   -1    0    0  501    0  0.00000000000E+00  0.00000000000E+00  0.36402494109E+02  0.36704653347E+02  0.47000000000E+01 0.  1.
         -5   -1    0    0    0  501 -0.00000000000E+00 -0.00000000000E+00 -0.46717973135E+03  0.46720337261E+03  0.47000000000E+01 0.  1.
         25    2    1    2    0    0 -0.22263795778E+02  0.14451252080E+02 -0.26847784337E+03  0.29733677023E+03  0.12499714902E+03 0.  0.
         25    2    1    2    0    0  0.22263795778E+02 -0.14451252080E+02 -0.16229939387E+03  0.20657125573E+03  0.12500430054E+03 0.  0.
          5    1    4    4  502    0  0.47705257040E+02 -0.40582474171E+02 -0.15740694026E+03  0.16947496452E+03  0.47000000000E+01 0. -1.
         -5    1    4    4    0  502 -0.25441461261E+02  0.26131222092E+02 -0.48924536174E+01  0.37096291210E+02  0.47000000000E+01 0. -1.
          5    1    3    3  503    0  0.24836460542E+02  0.52489344225E+02 -0.18603740992E+03  0.19494611799E+03  0.47000000000E+01 0. -1.
         -5    1    3    3    0  503 -0.47100256320E+02 -0.38038092145E+02 -0.82440433441E+02  0.10239065224E+03  0.47000000000E+01 0. -1.
<mgrwt>
<rscale>  0 0.12778945E+03</rscale>
<asrwt>0</asrwt>
<pdfrwt beam="1">  1        5 0.56254456E-02 0.12779120E+03</pdfrwt>
<pdfrwt beam="2">  1       -5 0.71898862E-01 0.12779120E+03</pdfrwt>
<totfact> 0.26013827E+02</totfact>
</mgrwt>
</event>
<event>
 8    1  0.3488953E-007  0.1550107E+03  0.7546771E-02  0.1194449E+00
         -5   -1    0    0    0  501 -0.00000000000E+00  0.00000000000E+00  0.78995725617E+02  0.79135419793E+02  0.47000000000E+01 0.  1.
          5   -1    0    0  501    0  0.00000000000E+00 -0.00000000000E+00 -0.30705306961E+03  0.30708903848E+03  0.47000000000E+01 0.  1.
         25    2    1    2    0    0  0.67353565969E+02 -0.62165708500E+02 -0.93956879170E+02  0.18126285767E+03  0.12500900073E+03 0.  0.
         25    2    1    2    0    0 -0.67353565969E+02  0.62165708500E+02 -0.13410046482E+03  0.20496160061E+03  0.12500097958E+03 0.  0.
          5    1    3    3  502    0  0.14420976728E+02  0.46283978754E+01 -0.94585831994E+02  0.95905976094E+02  0.47000000000E+01 0.  1.
         -5    1    3    3    0  502  0.52932589240E+02 -0.66794106375E+02  0.62895282359E+00  0.85356881573E+02  0.47000000000E+01 0.  1.
          5    1    4    4  503    0  0.14785907882E+02 -0.26396890770E+02 -0.11273391308E+02  0.32628182079E+02  0.47000000000E+01 0. -1.
         -5    1    4    4    0  503 -0.82139473850E+02  0.88562599270E+02 -0.12282707352E+03  0.17233341853E+03  0.47000000000E+01 0. -1.
<mgrwt>
<rscale>  0 0.15500912E+03</rscale>
<asrwt>0</asrwt>
<pdfrwt beam="2">  1        5 0.47252446E-01 0.15501074E+03</pdfrwt>
<pdfrwt beam="1">  1       -5 0.12166701E-01 0.15501074E+03</pdfrwt>
<totfact> 0.18369395E+02</totfact>
</mgrwt>
</event>
<event>
 8    1  0.3488953E-007  0.1497215E+03  0.7546771E-02  0.1200819E+00
          5   -1    0    0  501    0  0.00000000000E+00  0.00000000000E+00  0.33756238546E+03  0.33759510375E+03  0.47000000000E+01 0. -1.
         -5   -1    0    0    0  501 -0.00000000000E+00 -0.00000000000E+00 -0.73175666097E+02  0.73326448903E+02  0.47000000000E+01 0. -1.
         25    2    1    2    0    0 -0.78121162891E+02  0.26216139735E+02  0.19516259608E+03  0.24597153972E+03  0.12499342930E+03 0.  0.
         25    2    1    2    0    0  0.78121162891E+02 -0.26216139735E+02  0.69224123281E+02  0.16495001294E+03  0.12500530169E+03 0.  0.
          5    1    3    3  502    0  0.35807966630E+01 -0.30033214123E+02  0.44188048027E+01  0.30926233059E+02  0.47000000000E+01 0.  1.
         -5    1    3    3    0  502 -0.81701959554E+02  0.56249353859E+02  0.19074379128E+03  0.21504530666E+03  0.47000000000E+01 0.  1.
          5    1    4    4  503    0 -0.33011131320E+02  0.53668261411E+01  0.11218426733E+02  0.35587648309E+02  0.47000000000E+01 0. -1.
         -5    1    4    4    0  503  0.11113229421E+03 -0.31582965876E+02  0.58005696547E+02  0.12936236463E+03  0.47000000000E+01 0. -1.
<mgrwt>
<rscale>  0 0.14971902E+03</rscale>
<asrwt>0</asrwt>
<pdfrwt beam="1">  1        5 0.51946790E-01 0.14972150E+03</pdfrwt>
<pdfrwt beam="2">  1       -5 0.11271910E-01 0.14972150E+03</pdfrwt>
<totfact> 0.17011361E+02</totfact>
</mgrwt>
</event>
<event>
 8    1  0.3488953E-007  0.1566589E+03  0.7546771E-02  0.1192537E+00
          5   -1    0    0  501    0  0.00000000000E+00  0.00000000000E+00  0.30660404696E+02  0.31018549549E+02  0.47000000000E+01 0.  1.
         -5   -1    0    0    0  501 -0.00000000000E+00 -0.00000000000E+00 -0.79847879326E+03  0.79849262569E+03  0.47000000000E+01 0.  1.
         25    2    1    2    0    0  0.94252077730E+02  0.40672862033E+01 -0.41073640407E+03  0.43959798872E+03  0.12506798587E+03 0.  0.
         25    2    1    2    0    0 -0.94252077730E+02 -0.40672862033E+01 -0.35708198450E+03  0.38991318652E+03  0.12499900958E+03 0.  0.
          5    1    4    4  502    0  0.18041308771E+02  0.31760268234E+02 -0.11240175360E+03  0.11828122282E+03  0.47000000000E+01 0. -1.
         -5    1    4    4    0  502 -0.11229338650E+03 -0.35827554437E+02 -0.24468023090E+03  0.27163196370E+03  0.47000000000E+01 0. -1.
          5    1    3    3  503    0  0.81072019448E+02 -0.37572296078E+01 -0.10194379818E+03  0.13038948232E+03  0.47000000000E+01 0. -1.
         -5    1    3    3    0  503  0.13180058282E+02  0.78245158111E+01 -0.30879260588E+03  0.30920850640E+03  0.47000000000E+01 0. -1.
<mgrwt>
<rscale>  0 0.15664509E+03</rscale>
<asrwt>0</asrwt>
<pdfrwt beam="1">  1        5 0.47455996E-02 0.15665886E+03</pdfrwt>
<pdfrwt beam="2">  1       -5 0.12287149E+00 0.15665886E+03</pdfrwt>
<totfact> 0.10180427E+02</totfact>
</mgrwt>
</event>
<event>
 8    1  0.3488953E-007  0.1268121E+03  0.7546771E-02  0.1232266E+00
          5   -1    0    0  501    0  0.00000000000E+00  0.00000000000E+00  0.89723775951E+03  0.89725006943E+03  0.47000000000E+01 0. -1.
         -5   -1    0    0    0  501 -0.00000000000E+00 -0.00000000000E+00 -0.18037349530E+02  0.18639634601E+02  0.47000000000E+01 0. -1.
         25    2    1    2    0    0  0.16848431004E+02  0.13126813853E+02  0.50958884332E+03  0.52513054953E+03  0.12500048779E+03 0.  0.
         25    2    1    2    0    0 -0.16848431004E+02 -0.13126813853E+02  0.36961156666E+03  0.39075915450E+03  0.12499529489E+03 0.  0.
          5    1    3    3  502    0  0.28989637548E+02 -0.52296953779E+02  0.22957419677E+03  0.23727994497E+03  0.47000000000E+01 0. -1.
         -5    1    3    3    0  502 -0.12141206545E+02  0.65423767632E+02  0.28001464654E+03  0.28785060456E+03  0.47000000000E+01 0. -1.
          5    1    4    4  503    0 -0.87975827292E+01 -0.67221264540E+02  0.25142755864E+03  0.26044961722E+03  0.47000000000E+01 0.  1.
         -5    1    4    4    0  503 -0.80508482744E+01  0.54094450687E+02  0.11818400802E+03  0.13030953728E+03  0.47000000000E+01 0.  1.
<mgrwt>
<rscale>  0 0.12681080E+03</rscale>
<asrwt>0</asrwt>
<pdfrwt beam="1">  1        5 0.13808388E+00 0.12681208E+03</pdfrwt>
<pdfrwt beam="2">  1       -5 0.28222528E-02 0.12681208E+03</pdfrwt>
<totfact> 0.16402740E+02</totfact>
</mgrwt>
</event>
<event>
 8    1  0.3488953E-007  0.2115160E+03  0.7546771E-02  0.1140374E+00
          5   -1    0    0  501    0  0.00000000000E+00  0.00000000000E+00  0.37510112110E+02  0.37803419296E+02  0.47000000000E+01 0.  1.
         -5   -1    0    0    0  501 -0.00000000000E+00 -0.00000000000E+00 -0.20065794681E+04  0.20065849725E+04  0.47000000000E+01 0.  1.
         25    2    1    2    0    0  0.16154822953E+03  0.54918963106E+02 -0.16375064221E+04  0.16511106302E+04  0.12500043063E+03 0.  0.
         25    2    1    2    0    0 -0.16154822953E+03 -0.54918963106E+02 -0.33156293387E+03  0.39327776160E+03  0.12497798077E+03 0.  0.
          5    1    4    4  502    0 -0.18246348720E+03 -0.46668216045E+02 -0.29094921192E+03  0.34661849412E+03  0.47000000000E+01 0. -1.
         -5    1    4    4    0  502  0.20915257672E+02 -0.82507470604E+01 -0.40613721956E+02  0.46659267479E+02  0.47000000000E+01 0. -1.
          5    1    3    3  503    0  0.13239218933E+03 -0.15008687415E+02 -0.11550709921E+04  0.11627398846E+04  0.47000000000E+01 0.  1.
         -5    1    3    3    0  503  0.29156040194E+02  0.69927650521E+02 -0.48243543003E+03  0.48837074557E+03  0.47000000000E+01 0.  1.
<mgrwt>
<rscale>  0 0.21151271E+03</rscale>
<asrwt>0</asrwt>
<pdfrwt beam="1">  1        5 0.57937735E-02 0.21151603E+03</pdfrwt>
<pdfrwt beam="2">  1       -5 0.30872744E+00 0.21151603E+03</pdfrwt>
<totfact> 0.39209938E+00</totfact>
</mgrwt>
</event>
<event>
 8    1  0.3488953E-007  0.1297158E+03  0.7546771E-02  0.1227879E+00
         -5   -1    0    0    0  501 -0.00000000000E+00  0.00000000000E+00  0.64291429750E+03  0.64293147686E+03  0.47000000000E+01 0. -1.
          5   -1    0    0  501    0  0.00000000000E+00 -0.00000000000E+00 -0.33332226240E+02  0.33661956362E+02  0.47000000000E+01 0. -1.
         25    2    1    2    0    0 -0.19245000339E+02  0.28822924309E+02  0.46314333773E+03  0.48096499170E+03  0.12499776382E+03 0.  0.
         25    2    1    2    0    0  0.19245000339E+02 -0.28822924309E+02  0.14643873354E+03  0.19562844152E+03  0.12500021379E+03 0.  0.
          5    1    3    3  502    0  0.12016808363E+02  0.48599617697E+02  0.70720576066E+02  0.86774514707E+02  0.47000000000E+01 0. -1.
         -5    1    3    3    0  502 -0.31261808702E+02 -0.19776693388E+02  0.39242276166E+03  0.39419047700E+03  0.47000000000E+01 0. -1.
          5    1    4    4  503    0 -0.36711365961E+02 -0.33848819260E+02  0.14593711677E+02  0.52235365190E+02  0.47000000000E+01 0.  1.
         -5    1    4    4    0  503  0.55956366300E+02  0.50258949510E+01  0.13184502186E+03  0.14339307633E+03  0.47000000000E+01 0.  1.
<mgrwt>
<rscale>  0 0.12971519E+03</rscale>
<asrwt>0</asrwt>
<pdfrwt beam="2">  1        5 0.51547203E-02 0.12971578E+03</pdfrwt>
<pdfrwt beam="1">  1       -5 0.98936575E-01 0.12971578E+03</pdfrwt>
<totfact> 0.14346120E+02</totfact>
</mgrwt>
</event>
<event>
 8    1  0.3488953E-007  0.1304448E+03  0.7546771E-02  0.1226798E+00
         -5   -1    0    0    0  501 -0.00000000000E+00  0.00000000000E+00  0.10626025450E+03  0.10636414662E+03  0.47000000000E+01 0.  1.
          5   -1    0    0  501    0  0.00000000000E+00 -0.00000000000E+00 -0.16526810284E+03  0.16533492013E+03  0.47000000000E+01 0.  1.
         25    2    1    2    0    0  0.30471226590E+02 -0.21569203555E+02 -0.50699174543E+01  0.13054324074E+03  0.12498842926E+03 0.  0.
         25    2    1    2    0    0 -0.30471226590E+02  0.21569203555E+02 -0.53937930884E+02  0.14115582601E+03  0.12498776195E+03 0.  0.
          5    1    4    4  502    0  0.39546795288E+02  0.30884614375E+02 -0.48841997410E+02  0.70181472866E+02  0.47000000000E+01 0. -1.
         -5    1    4    4    0  502 -0.70018021878E+02 -0.93154108200E+01 -0.50959334743E+01  0.70974353146E+02  0.47000000000E+01 0. -1.
          5    1    3    3  503    0 -0.65152089126E+00  0.36834840132E+02  0.36643869383E+02  0.52173681971E+02  0.47000000000E+01 0. -1.
         -5    1    3    3    0  503  0.31122747481E+02 -0.58404043687E+02 -0.41713786837E+02  0.78369558772E+02  0.47000000000E+01 0. -1.
<mgrwt>
<rscale>  0 0.13044459E+03</rscale>
<asrwt>0</asrwt>
<pdfrwt beam="2">  1        5 0.25438994E-01 0.13044475E+03</pdfrwt>
<pdfrwt beam="1">  1       -5 0.16360863E-01 0.13044475E+03</pdfrwt>
<totfact> 0.35198302E+02</totfact>
</mgrwt>
</event>
<event>
 8    1  0.3488953E-007  0.1368592E+03  0.7546771E-02  0.1217623E+00
         -5   -1    0    0    0  501 -0.00000000000E+00  0.00000000000E+00  0.57874684885E+02  0.58065214635E+02  0.47000000000E+01 0.  1.
          5   -1    0    0  501    0  0.00000000000E+00 -0.00000000000E+00 -0.32471873700E+03  0.32475274927E+03  0.47000000000E+01 0.  1.
         25    2    1    2    0    0  0.55568434800E+02  0.42014691317E+01 -0.11899712355E+03  0.18135806187E+03  0.12499971160E+03 0.  0.
         25    2    1    2    0    0 -0.55568434800E+02 -0.42014691317E+01 -0.14784692856E+03  0.20145990204E+03  0.12498749760E+03 0.  0.
          5    1    4    4  502    0  0.68708683347E+00  0.29567561809E+02  0.90887406341E+01  0.31295494978E+02  0.47000000000E+01 0.  1.
         -5    1    4    4    0  502 -0.56255521633E+02 -0.33769030940E+02 -0.15693566919E+03  0.17016440706E+03  0.47000000000E+01 0.  1.
          5    1    3    3  503    0  0.29213900775E+02  0.46947381761E+02 -0.11857628242E+03  0.13091956846E+03  0.47000000000E+01 0. -1.
         -5    1    3    3    0  503  0.26354534025E+02 -0.42745912629E+02 -0.42084113583E+00  0.50438493410E+02  0.47000000000E+01 0. -1.
<mgrwt>
<rscale>  0 0.13685638E+03</rscale>
<asrwt>0</asrwt>
<pdfrwt beam="2">  1        5 0.49974000E-01 0.13685917E+03</pdfrwt>
<pdfrwt beam="1">  1       -5 0.89210704E-02 0.13685917E+03</pdfrwt>
<totfact> 0.26976681E+02</totfact>
</mgrwt>
</event>
<event>
 8    1  0.3488953E-007  0.1259980E+03  0.7546771E-02  0.1233520E+00
         -5   -1    0    0    0  501 -0.00000000000E+00  0.00000000000E+00  0.73864251582E+03  0.73865746878E+03  0.47000000000E+01 0. -1.
          5   -1    0    0  501    0  0.00000000000E+00 -0.00000000000E+00 -0.22867713792E+02  0.23345713398E+02  0.47000000000E+01 0. -1.
         25    2    1    2    0    0  0.15785423324E+02  0.25200385334E-01  0.45904089852E+03  0.47601754532E+03  0.12499990686E+03 0.  0.
         25    2    1    2    0    0 -0.15785423324E+02 -0.25200385334E-01  0.25673390351E+03  0.28598563685E+03  0.12500522809E+03 0.  0.
          5    1    4    4  502    0 -0.28309957528E+02 -0.22751656164E+02  0.10159768133E+02  0.38005294920E+02  0.47000000000E+01 0. -1.
         -5    1    4    4    0  502  0.12524534204E+02  0.22726455778E+02  0.24657413537E+03  0.24798034193E+03  0.47000000000E+01 0. -1.
          5    1    3    3  503    0  0.51162218562E+01 -0.62206969494E+02  0.21950958002E+03  0.22825956388E+03  0.47000000000E+01 0.  1.
         -5    1    3    3    0  503  0.10669201468E+02  0.62232169879E+02  0.23953131850E+03  0.24775798145E+03  0.47000000000E+01 0.  1.
<mgrwt>
<rscale>  0 0.12599665E+03</rscale>
<asrwt>0</asrwt>
<pdfrwt beam="2">  1        5 0.35560297E-02 0.12599797E+03</pdfrwt>
<pdfrwt beam="1">  1       -5 0.11367522E+00 0.12599797E+03</pdfrwt>
<totfact> 0.18568954E+02</totfact>
</mgrwt>
</event>
<event>
 8    1  0.3488953E-007  0.1296049E+03  0.7546771E-02  0.1228045E+00
         -5   -1    0    0    0  501 -0.00000000000E+00  0.00000000000E+00  0.39064847117E+03  0.39067674365E+03  0.47000000000E+01 0.  1.
          5   -1    0    0  501    0  0.00000000000E+00 -0.00000000000E+00 -0.86096710151E+02  0.86224900689E+02  0.47000000000E+01 0.  1.
         25    2    1    2    0    0 -0.33566105930E+01  0.34037571347E+02  0.32108164044E+03  0.34625258916E+03  0.12501044984E+03 0.  0.
         25    2    1    2    0    0  0.33566105930E+01 -0.34037571347E+02 -0.16529879425E+02  0.13064905518E+03  0.12500446235E+03 0.  0.
          5    1    4    4  502    0 -0.16553886963E+02  0.94757940004E+00  0.49922366171E+02  0.52813461583E+02  0.47000000000E+01 0. -1.
         -5    1    4    4    0  502  0.19910497556E+02 -0.34985150747E+02 -0.66452245596E+02  0.77835593596E+02  0.47000000000E+01 0. -1.
          5    1    3    3  503    0  0.43230120504E+02  0.43695546871E+02  0.82834695974E+02  0.10325609421E+03  0.47000000000E+01 0.  1.
         -5    1    3    3    0  503 -0.46586731097E+02 -0.96579755238E+01  0.23824694447E+03  0.24299649494E+03  0.47000000000E+01 0.  1.
<mgrwt>
<rscale>  0 0.12960348E+03</rscale>
<asrwt>0</asrwt>
<pdfrwt beam="2">  1        5 0.13257683E-01 0.12960492E+03</pdfrwt>
<pdfrwt beam="1">  1       -5 0.60111802E-01 0.12960492E+03</pdfrwt>
<totfact> 0.88732490E+01</totfact>
</mgrwt>
</event>
<event>
 8    1  0.3488953E-007  0.1995207E+03  0.7546771E-02  0.1150146E+00
          5   -1    0    0  501    0  0.00000000000E+00  0.00000000000E+00  0.17693934550E+02  0.18307520855E+02  0.47000000000E+01 0.  1.
         -5   -1    0    0    0  501 -0.00000000000E+00 -0.00000000000E+00 -0.22111669168E+04  0.22111719119E+04  0.47000000000E+01 0.  1.
         25    2    1    2    0    0  0.85983320311E+02  0.12957146391E+03 -0.11115913882E+04  0.11293538551E+04  0.12499127982E+03 0.  0.
         25    2    1    2    0    0 -0.85983320311E+02 -0.12957146391E+03 -0.10818815940E+04  0.11001255776E+04  0.12500642970E+03 0.  0.
          5    1    3    3  502    0  0.32381387588E+02  0.71458167101E+02 -0.90001756948E+03  0.90344260431E+03  0.47000000000E+01 0.  1.
         -5    1    3    3    0  502  0.53601932724E+02  0.58113296813E+02 -0.21157381876E+03  0.22591125081E+03  0.47000000000E+01 0.  1.
          5    1    4    4  503    0 -0.12203748597E+02  0.19465371129E+02 -0.29056812794E+03  0.29151287987E+03  0.47000000000E+01 0.  1.
         -5    1    4    4    0  503 -0.73779571714E+02 -0.14903683504E+03 -0.79131346604E+03  0.80861269774E+03  0.47000000000E+01 0.  1.
<mgrwt>
<rscale>  0 0.19951831E+03</rscale>
<asrwt>0</asrwt>
<pdfrwt beam="1">  1        5 0.27697287E-02 0.19952068E+03</pdfrwt>
<pdfrwt beam="2">  1       -5 0.34022690E+00 0.19952068E+03</pdfrwt>
<totfact> 0.81922404E+00</totfact>
</mgrwt>
</event>
<event>
 8    1  0.3488953E-007  0.1622150E+03  0.7546771E-02  0.1186219E+00
         -5   -1    0    0    0  501 -0.00000000000E+00  0.00000000000E+00  0.94920118895E+03  0.94921282498E+03  0.47000000000E+01 0. -1.
          5   -1    0    0  501    0  0.00000000000E+00 -0.00000000000E+00 -0.27563167998E+02  0.27961012680E+02  0.47000000000E+01 0. -1.
         25    2    1    2    0    0 -0.24703634119E+02 -0.10039265160E+03  0.48196293017E+03  0.50852909873E+03  0.12499849664E+03 0.  0.
         25    2    1    2    0    0  0.24703634119E+02  0.10039265160E+03  0.43967509078E+03  0.46864473893E+03  0.12499900735E+03 0.  0.
          5    1    4    4  502    0  0.76411158438E+01  0.12392410707E+03  0.28074855568E+03  0.30701370081E+03  0.47000000000E+01 0.  1.
         -5    1    4    4    0  502  0.17062518275E+02 -0.23531455468E+02  0.15892653510E+03  0.16163103812E+03  0.47000000000E+01 0.  1.
          5    1    3    3  503    0 -0.65096355046E+02 -0.93939892165E+02  0.28096530644E+03  0.30335759790E+03  0.47000000000E+01 0. -1.
         -5    1    3    3    0  503  0.40392720927E+02 -0.64527594352E+01  0.20099762373E+03  0.20517150083E+03  0.47000000000E+01 0. -1.
<mgrwt>
<rscale>  0 0.16221490E+03</rscale>
<asrwt>0</asrwt>
<pdfrwt beam="2">  1        5 0.42719862E-02 0.16221500E+03</pdfrwt>
<pdfrwt beam="1">  1       -5 0.14606244E+00 0.16221500E+03</pdfrwt>
<totfact> 0.77530687E+01</totfact>
</mgrwt>
</event>
<event>
 8    1  0.3488953E-007  0.1439390E+03  0.7546771E-02  0.1208128E+00
         -5   -1    0    0    0  501 -0.00000000000E+00  0.00000000000E+00  0.28162874734E+03  0.28166796290E+03  0.47000000000E+01 0.  1.
          5   -1    0    0  501    0  0.00000000000E+00 -0.00000000000E+00 -0.10951253239E+03  0.10961334203E+03  0.47000000000E+01 0.  1.
         25    2    1    2    0    0  0.52774940146E+02  0.48016932316E+02  0.19825496677E+03  0.24499689033E+03  0.12501049687E+03 0.  0.
         25    2    1    2    0    0 -0.52774940146E+02 -0.48016932316E+02 -0.26138751823E+02  0.14628441461E+03  0.12500030206E+03 0.  0.
          5    1    4    4  502    0 -0.18264444649E+02 -0.88335621237E+02 -0.21170408838E+02  0.92774178132E+02  0.47000000000E+01 0.  1.
         -5    1    4    4    0  502 -0.34510495497E+02  0.40318688921E+02 -0.49683429843E+01  0.53510236476E+02  0.47000000000E+01 0.  1.
          5    1    3    3  503    0 -0.26947277829E+02  0.49375677415E+02  0.12265399009E+03  0.13501927487E+03  0.47000000000E+01 0.  1.
         -5    1    3    3    0  503  0.79722217974E+02 -0.13587450987E+01  0.75600976677E+02  0.10997761546E+03  0.47000000000E+01 0.  1.
<mgrwt>
<rscale>  0 0.14393682E+03</rscale>
<asrwt>0</asrwt>
<pdfrwt beam="2">  1        5 0.16858853E-01 0.14393903E+03</pdfrwt>
<pdfrwt beam="1">  1       -5 0.43338270E-01 0.14393903E+03</pdfrwt>
<totfact> 0.11923136E+02</totfact>
</mgrwt>
</event>
<event>
 8    1  0.3488953E-007  0.1541678E+03  0.7546771E-02  0.1195446E+00
          5   -1    0    0  501    0  0.00000000000E+00  0.00000000000E+00  0.56564918544E+03  0.56566871134E+03  0.47000000000E+01 0.  1.
         -5   -1    0    0    0  501 -0.00000000000E+00 -0.00000000000E+00 -0.49275684514E+02  0.49499324080E+02  0.47000000000E+01 0.  1.
         25    2    1    2    0    0  0.88707488601E+02 -0.16486597530E+02  0.13921105824E+03  0.20771348608E+03  0.12499738851E+03 0.  0.
         25    2    1    2    0    0 -0.88707488601E+02  0.16486597530E+02  0.37716244269E+03  0.40745454934E+03  0.12500750045E+03 0.  0.
          5    1    3    3  502    0 -0.23665283353E+02 -0.32227860946E+02  0.42583896066E+02  0.58601696745E+02  0.47000000000E+01 0. -1.
         -5    1    3    3    0  502  0.11237277195E+03  0.15741263416E+02  0.96627162172E+02  0.14911178934E+03  0.47000000000E+01 0. -1.
          5    1    4    4  503    0 -0.11518298341E+03 -0.67219989557E+01  0.31952824856E+03  0.33975387646E+03  0.47000000000E+01 0.  1.
         -5    1    4    4    0  503  0.26475494806E+02  0.23208596485E+02  0.57634194130E+02  0.67700672885E+02  0.47000000000E+01 0.  1.
<mgrwt>
<rscale>  0 0.15416572E+03</rscale>
<asrwt>0</asrwt>
<pdfrwt beam="1">  1        5 0.87041657E-01 0.15416777E+03</pdfrwt>
<pdfrwt beam="2">  1       -5 0.75995796E-02 0.15416777E+03</pdfrwt>
<totfact> 0.10704295E+02</totfact>
</mgrwt>
</event>
<event>
 8    1  0.3488953E-007  0.1485203E+03  0.7546771E-02  0.1202304E+00
         -5   -1    0    0    0  501 -0.00000000000E+00  0.00000000000E+00  0.12124923353E+04  0.12125014446E+04  0.47000000000E+01 0. -1.
          5   -1    0    0  501    0  0.00000000000E+00 -0.00000000000E+00 -0.19856159186E+02  0.20404829272E+02  0.47000000000E+01 0. -1.
         25    2    1    2    0    0 -0.15422344944E+02  0.78702062142E+02  0.78801084572E+03  0.80188428938E+03  0.12500182908E+03 0.  0.
         25    2    1    2    0    0  0.15422344944E+02 -0.78702062142E+02  0.40462533037E+03  0.43102198448E+03  0.12500571911E+03 0.  0.
          5    1    3    3  502    0 -0.76622123568E+01 -0.15383122882E+01  0.55863156547E+03  0.55870599768E+03  0.47000000000E+01 0.  1.
         -5    1    3    3    0  502 -0.77601325869E+01  0.80240374430E+02  0.22937928025E+03  0.24317829170E+03  0.47000000000E+01 0.  1.
          5    1    4    4  503    0  0.52718562890E+02 -0.77731488029E+02  0.36274706466E+03  0.37473851420E+03  0.47000000000E+01 0.  1.
         -5    1    4    4    0  503 -0.37296217946E+02 -0.97057411314E+00  0.41878265717E+02  0.56283470279E+02  0.47000000000E+01 0.  1.
<mgrwt>
<rscale>  0 0.14851953E+03</rscale>
<asrwt>0</asrwt>
<pdfrwt beam="2">  1        5 0.30976992E-02 0.14852035E+03</pdfrwt>
<pdfrwt beam="1">  1       -5 0.18658023E+00 0.14852035E+03</pdfrwt>
<totfact> 0.63624894E+01</totfact>
</mgrwt>
</event>
<event>
 8    1  0.3488953E-007  0.1444663E+03  0.7546771E-02  0.1207447E+00
          5   -1    0    0  501    0  0.00000000000E+00  0.00000000000E+00  0.33941268979E+02  0.34265138843E+02  0.47000000000E+01 0.  1.
         -5   -1    0    0    0  501 -0.00000000000E+00 -0.00000000000E+00 -0.72916700377E+03  0.72918215104E+03  0.47000000000E+01 0.  1.
         25    2    1    2    0    0 -0.53404145299E+02 -0.48875689047E+02 -0.50084655944E+03  0.52126186652E+03  0.12500328662E+03 0.  0.
         25    2    1    2    0    0  0.53404145299E+02  0.48875689047E+02 -0.19437917535E+03  0.24218542336E+03  0.12501871765E+03 0.  0.
          5    1    4    4  502    0 -0.83065219937E+01  0.66888178691E+02 -0.14825456297E+03  0.16292492811E+03  0.47000000000E+01 0. -1.
         -5    1    4    4    0  502  0.61710667293E+02 -0.18012489644E+02 -0.46124612377E+02  0.79260495254E+02  0.47000000000E+01 0. -1.
          5    1    3    3  503    0 -0.10207292756E+02  0.35422125585E+02 -0.25611760962E+03  0.25879960541E+03  0.47000000000E+01 0.  1.
         -5    1    3    3    0  503 -0.43196852543E+02 -0.84297814633E+02 -0.24472894983E+03  0.26246226111E+03  0.47000000000E+01 0.  1.
<mgrwt>
<rscale>  0 0.14446297E+03</rscale>
<asrwt>0</asrwt>
<pdfrwt beam="1">  1        5 0.52478125E-02 0.14446631E+03</pdfrwt>
<pdfrwt beam="2">  1       -5 0.11220561E+00 0.14446631E+03</pdfrwt>
<totfact> 0.10571786E+02</totfact>
</mgrwt>
</event>
<event>
 8    1  0.3488953E-007  0.1255237E+03  0.7546771E-02  0.1234272E+00
         -5   -1    0    0    0  501 -0.00000000000E+00  0.00000000000E+00  0.29385858276E+03  0.29389616646E+03  0.47000000000E+01 0. -1.
          5   -1    0    0  501    0  0.00000000000E+00 -0.00000000000E+00 -0.57339184632E+02  0.57531487851E+02  0.47000000000E+01 0. -1.
         25    2    1    2    0    0  0.58626939287E+01  0.95471280273E+01  0.16388664259E+03  0.20640448945E+03  0.12497384852E+03 0.  0.
         25    2    1    2    0    0 -0.58626939287E+01 -0.95471280273E+01  0.72632755539E+02  0.14502316486E+03  0.12502272727E+03 0.  0.
          5    1    4    4  502    0 -0.59125605676E+02  0.20434071047E+02  0.47859110761E+02  0.78904835016E+02  0.47000000000E+01 0.  1.
         -5    1    4    4    0  502  0.53262911747E+02 -0.29981199074E+02  0.24773644778E+02  0.66118329843E+02  0.47000000000E+01 0.  1.
          5    1    3    3  503    0 -0.10418993405E+02  0.51500568301E+02  0.21439446922E+02  0.56943865721E+02  0.47000000000E+01 0. -1.
         -5    1    3    3    0  503  0.16281687334E+02 -0.41953440274E+02  0.14244719567E+03  0.14946062373E+03  0.47000000000E+01 0. -1.
<mgrwt>
<rscale>  0 0.12551153E+03</rscale>
<asrwt>0</asrwt>
<pdfrwt beam="2">  1        5 0.88390967E-02 0.12552371E+03</pdfrwt>
<pdfrwt beam="1">  1       -5 0.45226696E-01 0.12552371E+03</pdfrwt>
<totfact> 0.32777501E+02</totfact>
</mgrwt>
</event>
<event>
 8    1  0.3488953E-007  0.1448579E+03  0.7546771E-02  0.1206940E+00
          5   -1    0    0  501    0  0.00000000000E+00  0.00000000000E+00  0.72808402634E+02  0.72959944450E+02  0.47000000000E+01 0. -1.
         -5   -1    0    0    0  501 -0.00000000000E+00 -0.00000000000E+00 -0.33117110884E+03  0.33120445850E+03  0.47000000000E+01 0. -1.
         25    2    1    2    0    0  0.29946378205E+02  0.66788820276E+02 -0.20235834958E+03  0.24886282620E+03  0.12500509004E+03 0.  0.
         25    2    1    2    0    0 -0.29946378205E+02 -0.66788820276E+02 -0.56004356629E+02  0.15530157676E+03  0.12499823879E+03 0.  0.
          5    1    4    4  502    0 -0.36958145620E+02 -0.15744904723E+02 -0.86327680750E+02  0.95332916750E+02  0.47000000000E+01 0.  1.
         -5    1    4    4    0  502  0.70117674143E+01 -0.51043915554E+02  0.30323324121E+02  0.59968660007E+02  0.47000000000E+01 0.  1.
          5    1    3    3  503    0  0.29020200251E+02  0.38810281988E+02 -0.44072283214E+01  0.48886845594E+02  0.47000000000E+01 0.  1.
         -5    1    3    3    0  503  0.92617795412E+00  0.27978538288E+02 -0.19795112126E+03  0.19997598060E+03  0.47000000000E+01 0.  1.
<mgrwt>
<rscale>  0 0.14485640E+03</rscale>
<asrwt>0</asrwt>
<pdfrwt beam="1">  1        5 0.11215515E-01 0.14485788E+03</pdfrwt>
<pdfrwt beam="2">  1       -5 0.50963623E-01 0.14485788E+03</pdfrwt>
<totfact> 0.17684203E+02</totfact>
</mgrwt>
</event>
<event>
 8    1  0.3488953E-007  0.1615049E+03  0.7546771E-02  0.1187009E+00
         -5   -1    0    0    0  501 -0.00000000000E+00  0.00000000000E+00  0.14981477298E+02  0.15701422294E+02  0.47000000000E+01 0.  1.
          5   -1    0    0  501    0  0.00000000000E+00 -0.00000000000E+00 -0.17234176732E+04  0.17234240820E+04  0.47000000000E+01 0.  1.
         25    2    1    2    0    0  0.78213850437E+02 -0.65884968479E+02 -0.75168561201E+03  0.76883919484E+03  0.12499685091E+03 0.  0.
         25    2    1    2    0    0 -0.78213850437E+02  0.65884968479E+02 -0.95675058391E+03  0.97028630945E+03  0.12500242801E+03 0.  0.
          5    1    4    4  502    0 -0.10117297396E+03  0.46667322546E+02 -0.48898200960E+03  0.50153694317E+03  0.47000000000E+01 0.  1.
         -5    1    4    4    0  502  0.22959123523E+02  0.19217645934E+02 -0.46776857431E+03  0.46874936627E+03  0.47000000000E+01 0.  1.
          5    1    3    3  503    0  0.43648673279E+02  0.32819845125E+02 -0.31858006487E+03  0.32326103484E+03  0.47000000000E+01 0. -1.
         -5    1    3    3    0  503  0.34565177158E+02 -0.98704813604E+02 -0.43310554714E+03  0.44557816000E+03  0.47000000000E+01 0. -1.
<mgrwt>
<rscale>  0 0.16150385E+03</rscale>
<asrwt>0</asrwt>
<pdfrwt beam="2">  1        5 0.26519690E+00 0.16150493E+03</pdfrwt>
<pdfrwt beam="1">  1       -5 0.23607174E-02 0.16150493E+03</pdfrwt>
<totfact> 0.30776798E+01</totfact>
</mgrwt>
</event>
<event>
 8    1  0.3488953E-007  0.1340971E+03  0.7546771E-02  0.1221533E+00
          5   -1    0    0  501    0  0.00000000000E+00  0.00000000000E+00  0.36687429871E+02  0.36987261464E+02  0.47000000000E+01 0. -1.
         -5   -1    0    0    0  501 -0.00000000000E+00 -0.00000000000E+00 -0.62629487436E+03  0.62631250958E+03  0.47000000000E+01 0. -1.
         25    2    1    2    0    0 -0.22506812252E+02  0.42740053709E+02 -0.45097208772E+03  0.47048681518E+03  0.12509496617E+03 0.  0.
         25    2    1    2    0    0  0.22506812252E+02 -0.42740053709E+02 -0.13863535677E+03  0.19281295587E+03  0.12499521997E+03 0.  0.
          5    1    3    3  502    0  0.15979603935E+02 -0.39667533793E+02 -0.14565600004E+03  0.15187699406E+03  0.47000000000E+01 0.  1.
         -5    1    3    3    0  502 -0.38486416187E+02  0.82407587502E+02 -0.30531608769E+03  0.31860982111E+03  0.47000000000E+01 0.  1.
          5    1    4    4  503    0 -0.20351715163E+02 -0.20252651469E+02 -0.14115322747E+03  0.14412038657E+03  0.47000000000E+01 0.  1.
         -5    1    4    4    0  503  0.42858527415E+02 -0.22487402240E+02  0.25178706965E+01  0.48692569295E+02  0.47000000000E+01 0.  1.
<mgrwt>
<rscale>  0 0.13407378E+03</rscale>
<asrwt>0</asrwt>
<pdfrwt beam="1">  1        5 0.56686410E-02 0.13409705E+03</pdfrwt>
<pdfrwt beam="2">  1       -5 0.96377470E-01 0.13409705E+03</pdfrwt>
<totfact> 0.13189649E+02</totfact>
</mgrwt>
</event>
<event>
 8    1  0.3488953E-007  0.1401066E+03  0.7546771E-02  0.1213186E+00
          5   -1    0    0  501    0  0.00000000000E+00  0.00000000000E+00  0.71799741205E+02  0.71953407404E+02  0.47000000000E+01 0. -1.
         -5   -1    0    0    0  501 -0.00000000000E+00 -0.00000000000E+00 -0.31438072876E+03  0.31441585936E+03  0.47000000000E+01 0. -1.
         25    2    1    2    0    0 -0.21709156129E+02 -0.59437712270E+02 -0.19141924922E+03  0.23721550489E+03  0.12500295073E+03 0.  0.
         25    2    1    2    0    0  0.21709156129E+02  0.59437712270E+02 -0.51161738337E+02  0.14915376187E+03  0.12500076844E+03 0.  0.
          5    1    3    3  502    0  0.15382825987E+02  0.29231039283E+02 -0.96273104187E+02  0.10189055689E+03  0.47000000000E+01 0. -1.
         -5    1    3    3    0  502 -0.37091982117E+02 -0.88668751552E+02 -0.95146145029E+02  0.13532494801E+03  0.47000000000E+01 0. -1.
          5    1    4    4  503    0  0.66945156881E+02  0.61561278883E+02 -0.18006894457E+02  0.92832016759E+02  0.47000000000E+01 0. -1.
         -5    1    4    4    0  503 -0.45236000752E+02 -0.21235666136E+01 -0.33154843881E+02  0.56321745107E+02  0.47000000000E+01 0. -1.
<mgrwt>
<rscale>  0 0.14010614E+03</rscale>
<asrwt>0</asrwt>
<pdfrwt beam="1">  1        5 0.11060637E-01 0.14010663E+03</pdfrwt>
<pdfrwt beam="2">  1       -5 0.48380788E-01 0.14010663E+03</pdfrwt>
<totfact> 0.20011769E+02</totfact>
</mgrwt>
</event>
<event>
 8    1  0.3488953E-007  0.1322093E+03  0.7546771E-02  0.1224214E+00
         -5   -1    0    0    0  501 -0.00000000000E+00  0.00000000000E+00  0.24081110536E+03  0.24085696682E+03  0.47000000000E+01 0.  1.
          5   -1    0    0  501    0  0.00000000000E+00 -0.00000000000E+00 -0.90992654350E+02  0.91113956920E+02  0.47000000000E+01 0.  1.
         25    2    1    2    0    0  0.35522521980E+02  0.24322141278E+02  0.14975255883E+03  0.19976158264E+03  0.12500177958E+03 0.  0.
         25    2    1    2    0    0 -0.35522521980E+02 -0.24322141278E+02  0.65892177710E-01  0.13220934110E+03  0.12500355758E+03 0.  0.
          5    1    3    3  502    0 -0.42665388690E+02  0.11000120574E+02  0.22385757310E+02  0.49644236071E+02  0.47000000000E+01 0. -1.
         -5    1    3    3    0  502  0.78187910670E+02  0.13322020705E+02  0.12736680152E+03  0.15011734657E+03  0.47000000000E+01 0. -1.
          5    1    4    4  503    0 -0.56212210108E+02 -0.59952570318E+02  0.22123613525E+02  0.85238885072E+02  0.47000000000E+01 0.  1.
         -5    1    4    4    0  503  0.20689688128E+02  0.35630429039E+02 -0.22057721347E+02  0.46970456027E+02  0.47000000000E+01 0.  1.
<mgrwt>
<rscale>  0 0.13220890E+03</rscale>
<asrwt>0</asrwt>
<pdfrwt beam="2">  1        5 0.14011729E-01 0.13220932E+03</pdfrwt>
<pdfrwt beam="1">  1       -5 0.37060720E-01 0.13220932E+03</pdfrwt>
<totfact> 0.22335288E+02</totfact>
</mgrwt>
</event>
<event>
 8    1  0.3488953E-007  0.1286400E+03  0.7546771E-02  0.1229488E+00
          5   -1    0    0  501    0  0.00000000000E+00  0.00000000000E+00  0.33449801483E+03  0.33453103283E+03  0.47000000000E+01 0. -1.
         -5   -1    0    0    0  501 -0.00000000000E+00 -0.00000000000E+00 -0.49361516603E+02  0.49584769046E+02  0.47000000000E+01 0. -1.
         25    2    1    2    0    0  0.49432225221E+01  0.29988584755E+02  0.14780803735E+03  0.19594740442E+03  0.12499767489E+03 0.  0.
         25    2    1    2    0    0 -0.49432225221E+01 -0.29988584755E+02  0.13732846088E+03  0.18816839746E+03  0.12499795586E+03 0.  0.
          5    1    4    4  502    0 -0.61822975525E+01 -0.20962578077E+02 -0.20306225076E+02  0.30200716209E+02  0.47000000000E+01 0. -1.
         -5    1    4    4    0  502  0.12390750304E+01 -0.90260066774E+01  0.15763468596E+03  0.15796768125E+03  0.47000000000E+01 0. -1.
          5    1    3    3  503    0 -0.59865924215E+02  0.12589589194E+02  0.68982903172E+02  0.92320948696E+02  0.47000000000E+01 0. -1.
         -5    1    3    3    0  503  0.64809146737E+02  0.17398995561E+02  0.78825134178E+02  0.10362645572E+03  0.47000000000E+01 0. -1.
<mgrwt>
<rscale>  0 0.12863989E+03</rscale>
<asrwt>0</asrwt>
<pdfrwt beam="1">  1        5 0.51480945E-01 0.12863996E+03</pdfrwt>
<pdfrwt beam="2">  1       -5 0.76137927E-02 0.12863996E+03</pdfrwt>
<totfact> 0.32531124E+02</totfact>
</mgrwt>
</event>
<event>
 8    1  0.3488953E-007  0.1260682E+03  0.7546771E-02  0.1233413E+00
         -5   -1    0    0    0  501 -0.00000000000E+00  0.00000000000E+00  0.23204021257E+03  0.23208780720E+03  0.47000000000E+01 0.  1.
          5   -1    0    0  501    0  0.00000000000E+00 -0.00000000000E+00 -0.68591634174E+02  0.68752471073E+02  0.47000000000E+01 0.  1.
         25    2    1    2    0    0  0.78299768430E+01  0.14272720996E+02  0.90598514168E+02  0.15524583658E+03  0.12501263898E+03 0.  0.
         25    2    1    2    0    0 -0.78299768430E+01 -0.14272720996E+02  0.72850064231E+02  0.14559444169E+03  0.12500236194E+03 0.  0.
          5    1    3    3  502    0 -0.52678765179E+02 -0.46005463262E+01  0.12474662520E+02  0.54533700885E+02  0.47000000000E+01 0. -1.
         -5    1    3    3    0  502  0.60508742022E+02  0.18873267323E+02  0.78123851648E+02  0.10071213570E+03  0.47000000000E+01 0. -1.
          5    1    4    4  503    0  0.26989451066E+02 -0.32107547725E+02 -0.18519346195E+02  0.46091010764E+02  0.47000000000E+01 0.  1.
         -5    1    4    4    0  503 -0.34819427909E+02  0.17834826728E+02  0.91369410427E+02  0.99503430926E+02  0.47000000000E+01 0.  1.
<mgrwt>
<rscale>  0 0.12606560E+03</rscale>
<asrwt>0</asrwt>
<pdfrwt beam="2">  1        5 0.10568592E-01 0.12606815E+03</pdfrwt>
<pdfrwt beam="1">  1       -5 0.35714528E-01 0.12606815E+03</pdfrwt>
<totfact> 0.38991453E+02</totfact>
</mgrwt>
</event>
<event>
 8    1  0.3488953E-007  0.1480447E+03  0.7546771E-02  0.1202897E+00
         -5   -1    0    0    0  501 -0.00000000000E+00  0.00000000000E+00  0.38445730868E+03  0.38448603642E+03  0.47000000000E+01 0.  1.
          5   -1    0    0  501    0  0.00000000000E+00 -0.00000000000E+00 -0.57921118273E+02  0.58111495782E+02  0.47000000000E+01 0.  1.
         25    2    1    2    0    0 -0.14811801305E+01  0.79311259632E+02  0.19288390801E+03  0.24314787593E+03  0.12499687117E+03 0.  0.
         25    2    1    2    0    0  0.14811801305E+01 -0.79311259632E+02  0.13365228240E+03  0.19944965627E+03  0.12499905198E+03 0.  0.
          5    1    3    3  502    0  0.56742365391E+02  0.60769700966E+02  0.13635441646E+03  0.15977255544E+03  0.47000000000E+01 0.  1.
         -5    1    3    3    0  502 -0.58223545522E+02  0.18541558665E+02  0.56529491548E+02  0.83375320482E+02  0.47000000000E+01 0.  1.
          5    1    4    4  503    0  0.50741651480E+02  0.51078141694E+00  0.67486213905E+02  0.84566276729E+02  0.47000000000E+01 0.  1.
         -5    1    4    4    0  503 -0.49260471349E+02 -0.79822041049E+02  0.66166068498E+02  0.11488337954E+03  0.47000000000E+01 0.  1.
<mgrwt>
<rscale>  0 0.14804424E+03</rscale>
<asrwt>0</asrwt>
<pdfrwt beam="2">  1        5 0.89277959E-02 0.14804470E+03</pdfrwt>
<pdfrwt beam="1">  1       -5 0.59164130E-01 0.14804470E+03</pdfrwt>
<totfact> 0.19233677E+02</totfact>
</mgrwt>
</event>
<event>
 8    1  0.3488953E-007  0.1359736E+03  0.7546771E-02  0.1218853E+00
          5   -1    0    0  501    0  0.00000000000E+00  0.00000000000E+00  0.30564033946E+03  0.30567647457E+03  0.47000000000E+01 0.  1.
         -5   -1    0    0    0  501 -0.00000000000E+00 -0.00000000000E+00 -0.10820991498E+03  0.10831193702E+03  0.47000000000E+01 0.  1.
         25    2    1    2    0    0  0.36018741224E+02 -0.39578079843E+02 -0.38818186332E+02  0.14140406372E+03  0.12499793407E+03 0.  0.
         25    2    1    2    0    0 -0.36018741224E+02  0.39578079843E+02  0.23624861081E+03  0.27258434787E+03  0.12500018588E+03 0.  0.
          5    1    3    3  502    0 -0.16735947562E+02 -0.12962751536E+01 -0.67734955920E+02  0.69942022587E+02  0.47000000000E+01 0. -1.
         -5    1    3    3    0  502  0.52754688786E+02 -0.38281804689E+02  0.28916769588E+02  0.71462041131E+02  0.47000000000E+01 0. -1.
          5    1    4    4  503    0  0.33759707379E+02  0.17196199227E+02  0.16817533086E+03  0.17245422297E+03  0.47000000000E+01 0. -1.
         -5    1    4    4    0  503 -0.69778448603E+02  0.22381880616E+02  0.68073279952E+02  0.10013012490E+03  0.47000000000E+01 0. -1.
<mgrwt>
<rscale>  0 0.13597309E+03</rscale>
<asrwt>0</asrwt>
<pdfrwt beam="1">  1        5 0.47032218E-01 0.13597360E+03</pdfrwt>
<pdfrwt beam="2">  1       -5 0.16658307E-01 0.13597360E+03</pdfrwt>
<totfact> 0.10089391E+02</totfact>
</mgrwt>
</event>
<event>
 8    1  0.3488953E-007  0.1436933E+03  0.7546771E-02  0.1208444E+00
          5   -1    0    0  501    0  0.00000000000E+00  0.00000000000E+00  0.56167566810E+02  0.56363867516E+02  0.47000000000E+01 0.  1.
         -5   -1    0    0    0  501 -0.00000000000E+00 -0.00000000000E+00 -0.37364000977E+03  0.37366956914E+03  0.47000000000E+01 0.  1.
         25    2    1    2    0    0  0.61225324534E+02  0.35698294731E+02 -0.18791330566E+03  0.23655694204E+03  0.12499947110E+03 0.  0.
         25    2    1    2    0    0 -0.61225324534E+02 -0.35698294731E+02 -0.12955913731E+03  0.19347649461E+03  0.12499870118E+03 0.  0.
          5    1    4    4  502    0 -0.65309562782E+02  0.10404652316E+01 -0.14018643896E+03  0.15472798463E+03  0.47000000000E+01 0.  1.
         -5    1    4    4    0  502  0.40842382482E+01 -0.36738759962E+02  0.10627301655E+02  0.38748509985E+02  0.47000000000E+01 0.  1.
          5    1    3    3  503    0  0.63869411561E+02  0.32526557977E+02 -0.20560549494E+03  0.21779115744E+03  0.47000000000E+01 0. -1.
         -5    1    3    3    0  503 -0.26440870272E+01  0.31717367539E+01  0.17692189286E+02  0.18765784608E+02  0.47000000000E+01 0. -1.
<mgrwt>
<rscale>  0 0.14369317E+03</rscale>
<asrwt>0</asrwt>
<pdfrwt beam="1">  1        5 0.86585382E-02 0.14369334E+03</pdfrwt>
<pdfrwt beam="2">  1       -5 0.57500451E-01 0.14369334E+03</pdfrwt>
<totfact> 0.21368649E+02</totfact>
</mgrwt>
</event>
<event>
 8    1  0.3488953E-007  0.1411227E+03  0.7546771E-02  0.1211826E+00
          5   -1    0    0  501    0  0.00000000000E+00  0.00000000000E+00  0.27125431553E+02  0.27529602920E+02  0.47000000000E+01 0. -1.
         -5   -1    0    0    0  501 -0.00000000000E+00 -0.00000000000E+00 -0.76839057527E+03  0.76840494934E+03  0.47000000000E+01 0. -1.
         25    2    1    2    0    0  0.56883928439E+02 -0.32475842587E+02 -0.46144065228E+03  0.48253806995E+03  0.12500020683E+03 0.  0.
         25    2    1    2    0    0 -0.56883928439E+02  0.32475842587E+02 -0.27982449144E+03  0.31339648231E+03  0.12500058979E+03 0.  0.
          5    1    4    4  502    0 -0.49946151411E+02  0.65043909900E+02 -0.26351572204E+03  0.27602165498E+03  0.47000000000E+01 0.  1.
         -5    1    4    4    0  502 -0.69377770285E+01 -0.32568067313E+02 -0.16308769400E+02  0.37374827330E+02  0.47000000000E+01 0.  1.
          5    1    3    3  503    0 -0.23145173739E+02  0.16942144127E+02 -0.24205065663E+03  0.24378955206E+03  0.47000000000E+01 0.  1.
         -5    1    3    3    0  503  0.80029102179E+02 -0.49417986714E+02 -0.21938999565E+03  0.23874851789E+03  0.47000000000E+01 0.  1.
<mgrwt>
<rscale>  0 0.14112259E+03</rscale>
<asrwt>0</asrwt>
<pdfrwt beam="1">  1        5 0.42053397E-02 0.14112267E+03</pdfrwt>
<pdfrwt beam="2">  1       -5 0.11824611E+00 0.14112267E+03</pdfrwt>
<totfact> 0.13275622E+02</totfact>
</mgrwt>
</event>
<event>
 8    1  0.3488953E-007  0.1358271E+03  0.7546771E-02  0.1219065E+00
         -5   -1    0    0    0  501 -0.00000000000E+00  0.00000000000E+00  0.49045183062E+02  0.49269868901E+02  0.47000000000E+01 0.  1.
          5   -1    0    0  501    0  0.00000000000E+00 -0.00000000000E+00 -0.38610829636E+03  0.38613690126E+03  0.47000000000E+01 0.  1.
         25    2    1    2    0    0  0.37718857118E+02 -0.37343731707E+02 -0.13163291969E+03  0.18914604700E+03  0.12502693737E+03 0.  0.
         25    2    1    2    0    0 -0.37718857118E+02  0.37343731707E+02 -0.20543019361E+03  0.24626072317E+03  0.12500205138E+03 0.  0.
          5    1    4    4  502    0  0.41632816537E+02  0.26477168496E+02 -0.45252451858E+02  0.67113383640E+02  0.47000000000E+01 0. -1.
         -5    1    4    4    0  502 -0.79351673654E+02  0.10866563211E+02 -0.16017774175E+03  0.17914733953E+03  0.47000000000E+01 0. -1.
          5    1    3    3  503    0  0.64380505861E+02  0.23923467537E+01 -0.20036849038E+02  0.67632375215E+02  0.47000000000E+01 0.  1.
         -5    1    3    3    0  503 -0.26661648743E+02 -0.39736078461E+02 -0.11159607065E+03  0.12151367178E+03  0.47000000000E+01 0.  1.
<mgrwt>
<rscale>  0 0.13582137E+03</rscale>
<asrwt>0</asrwt>
<pdfrwt beam="2">  1        5 0.59420758E-01 0.13582710E+03</pdfrwt>
<pdfrwt beam="1">  1       -5 0.75648969E-02 0.13582710E+03</pdfrwt>
<totfact> 0.24612774E+02</totfact>
</mgrwt>
</event>
<event>
 8    1  0.3488953E-007  0.1266786E+03  0.7546771E-02  0.1232469E+00
          5   -1    0    0  501    0  0.00000000000E+00  0.00000000000E+00  0.75068199561E+02  0.75215188528E+02  0.47000000000E+01 0. -1.
         -5   -1    0    0    0  501 -0.00000000000E+00 -0.00000000000E+00 -0.26463292320E+03  0.26467465697E+03  0.47000000000E+01 0. -1.
         25    2    1    2    0    0  0.18231352147E+01  0.20471246079E+02 -0.16953836529E+03  0.21163819254E+03  0.12500028600E+03 0.  0.
         25    2    1    2    0    0 -0.18231352147E+01 -0.20471246079E+02 -0.20026358347E+02  0.12825165295E+03  0.12500014287E+03 0.  0.
          5    1    4    4  502    0  0.17882475589E+02 -0.70403547954E+02 -0.11867549616E+02  0.73752093066E+02  0.47000000000E+01 0. -1.
         -5    1    4    4    0  502 -0.19705610804E+02  0.49932301875E+02 -0.81588087312E+01  0.54499559885E+02  0.47000000000E+01 0. -1.
          5    1    3    3  503    0  0.39403497402E+02  0.10016316666E+02 -0.16735616937E+03  0.17228795557E+03  0.47000000000E+01 0. -1.
         -5    1    3    3    0  503 -0.37580362187E+02  0.10454929413E+02 -0.21821959194E+01  0.39350236977E+02  0.47000000000E+01 0. -1.
<mgrwt>
<rscale>  0 0.12667856E+03</rscale>
<asrwt>0</asrwt>
<pdfrwt beam="1">  1        5 0.11563471E-01 0.12667860E+03</pdfrwt>
<pdfrwt beam="2">  1       -5 0.40727274E-01 0.12667860E+03</pdfrwt>
<totfact> 0.25554404E+02</totfact>
</mgrwt>
</event>
<event>
 8    1  0.3488953E-007  0.1400081E+03  0.7546771E-02  0.1213319E+00
          5   -1    0    0  501    0  0.00000000000E+00  0.00000000000E+00  0.12247744858E+03  0.12256759527E+03  0.47000000000E+01 0.  1.
         -5   -1    0    0    0  501 -0.00000000000E+00 -0.00000000000E+00 -0.18250626990E+03  0.18256677834E+03  0.47000000000E+01 0.  1.
         25    2    1    2    0    0 -0.56531247188E+02 -0.27959988519E+02 -0.83732447120E+02  0.16313388252E+03  0.12499599217E+03 0.  0.
         25    2    1    2    0    0  0.56531247188E+02  0.27959988519E+02  0.23703625795E+02  0.14200049109E+03  0.12499893890E+03 0.  0.
          5    1    4    4  502    0  0.74479956439E+02  0.34768413596E+02 -0.27750818615E+02  0.86880978522E+02  0.47000000000E+01 0.  1.
         -5    1    4    4    0  502 -0.17948709251E+02 -0.68084250766E+01  0.51454444410E+02  0.55119512565E+02  0.47000000000E+01 0.  1.
          5    1    3    3  503    0  0.15227367954E+01 -0.46521301931E+02  0.13133811204E+02  0.48591534833E+02  0.47000000000E+01 0. -1.
         -5    1    3    3    0  503 -0.58053983984E+02  0.18561313412E+02 -0.96866258324E+02  0.11454234769E+03  0.47000000000E+01 0. -1.
<mgrwt>
<rscale>  0 0.14000748E+03</rscale>
<asrwt>0</asrwt>
<pdfrwt beam="1">  1        5 0.18854273E-01 0.14000813E+03</pdfrwt>
<pdfrwt beam="2">  1       -5 0.28089477E-01 0.14000813E+03</pdfrwt>
<totfact> 0.22947661E+02</totfact>
</mgrwt>
</event>
<event>
 8    1  0.3488953E-007  0.1374164E+03  0.7546771E-02  0.1216849E+00
          5   -1    0    0  501    0  0.00000000000E+00  0.00000000000E+00  0.68954524443E+02  0.69114516863E+02  0.47000000000E+01 0. -1.
         -5   -1    0    0    0  501 -0.00000000000E+00 -0.00000000000E+00 -0.28473474409E+03  0.28477353194E+03  0.47000000000E+01 0. -1.
         25    2    1    2    0    0  0.56913205232E+02 -0.43927269101E+01 -0.14325687015E+03  0.19850891377E+03  0.12499939609E+03 0.  0.
         25    2    1    2    0    0 -0.56913205232E+02  0.43927269101E+01 -0.72523349499E+02  0.15537913503E+03  0.12499852160E+03 0.  0.
          5    1    4    4  502    0  0.14575601228E+02  0.29258753643E+02  0.17739596755E+02  0.37487412673E+02  0.47000000000E+01 0.  1.
         -5    1    4    4    0  502 -0.71488806459E+02 -0.24866026733E+02 -0.90262946254E+02  0.11789172236E+03  0.47000000000E+01 0.  1.
          5    1    3    3  503    0  0.87950946423E+01  0.33585694602E+02 -0.13127815346E+03  0.13587272039E+03  0.47000000000E+01 0.  1.
         -5    1    3    3    0  503  0.48118110589E+02 -0.37978421512E+02 -0.11978716693E+02  0.62636193377E+02  0.47000000000E+01 0.  1.
<mgrwt>
<rscale>  0 0.13741617E+03</rscale>
<asrwt>0</asrwt>
<pdfrwt beam="1">  1        5 0.10623679E-01 0.13741637E+03</pdfrwt>
<pdfrwt beam="2">  1       -5 0.43820636E-01 0.13741637E+03</pdfrwt>
<totfact> 0.26250084E+02</totfact>
</mgrwt>
</event>
<event>
 8    1  0.3488953E-007  0.1312962E+03  0.7546771E-02  0.1225551E+00
          5   -1    0    0  501    0  0.00000000000E+00  0.00000000000E+00  0.13350205391E+03  0.13358476110E+03  0.47000000000E+01 0. -1.
         -5   -1    0    0    0  501 -0.00000000000E+00 -0.00000000000E+00 -0.13448203083E+03  0.13456413570E+03  0.47000000000E+01 0. -1.
         25    2    1    2    0    0  0.38246425934E+02 -0.12263691384E+02 -0.27679482036E+02  0.13416545999E+03  0.12498411781E+03 0.  0.
         25    2    1    2    0    0 -0.38246425934E+02  0.12263691384E+02  0.26699505116E+02  0.13398343682E+03  0.12500204216E+03 0.  0.
          5    1    4    4  502    0 -0.61734773144E+02  0.39562595397E+02  0.51744908386E+02  0.89866605108E+02  0.47000000000E+01 0.  1.
         -5    1    4    4    0  502  0.23488347210E+02 -0.27298904013E+02 -0.25045403271E+02  0.44116831708E+02  0.47000000000E+01 0.  1.
          5    1    3    3  503    0 -0.33938677423E+01 -0.60790401211E+02 -0.33734009007E+02  0.69764350361E+02  0.47000000000E+01 0. -1.
         -5    1    3    3    0  503  0.41640293677E+02  0.48526709826E+02  0.60545269715E+01  0.64401109625E+02  0.47000000000E+01 0. -1.
<mgrwt>
<rscale>  0 0.13129196E+03</rscale>
<asrwt>0</asrwt>
<pdfrwt beam="1">  1        5 0.20551455E-01 0.13129622E+03</pdfrwt>
<pdfrwt beam="2">  1       -5 0.20702221E-01 0.13129622E+03</pdfrwt>
<totfact> 0.34213732E+02</totfact>
</mgrwt>
</event>
<event>
 8    1  0.3488953E-007  0.1295383E+03  0.7546771E-02  0.1228143E+00
         -5   -1    0    0    0  501 -0.00000000000E+00  0.00000000000E+00  0.91557997315E+02  0.91678551867E+02  0.47000000000E+01 0. -1.
          5   -1    0    0  501    0  0.00000000000E+00 -0.00000000000E+00 -0.21820281115E+03  0.21825342333E+03  0.47000000000E+01 0. -1.
         25    2    1    2    0    0 -0.24832342357E+02  0.23226103972E+02 -0.11034464416E+01  0.12954303752E+03  0.12499633532E+03 0.  0.
         25    2    1    2    0    0  0.24832342357E+02 -0.23226103972E+02 -0.12554136740E+03  0.18038893767E+03  0.12499374694E+03 0.  0.
          5    1    4    4  502    0 -0.28061866721E+02 -0.26652633381E+02 -0.12083453441E+03  0.12696812960E+03  0.47000000000E+01 0.  1.
         -5    1    4    4    0  502  0.52894209078E+02  0.34265294083E+01 -0.47068329894E+01  0.53420808068E+02  0.47000000000E+01 0.  1.
          5    1    3    3  503    0  0.16012494743E+02 -0.12580854585E+02  0.50388147879E+02  0.54550282645E+02  0.47000000000E+01 0. -1.
         -5    1    3    3    0  503 -0.40844837100E+02  0.35806958557E+02 -0.51491594320E+02  0.74992754880E+02  0.47000000000E+01 0. -1.
<mgrwt>
<rscale>  0 0.12953771E+03</rscale>
<asrwt>0</asrwt>
<pdfrwt beam="2">  1        5 0.33582830E-01 0.12953834E+03</pdfrwt>
<pdfrwt beam="1">  1       -5 0.14099012E-01 0.12953834E+03</pdfrwt>
<totfact> 0.26715854E+02</totfact>
</mgrwt>
</event>
<event>
 8    1  0.3488953E-007  0.1276259E+03  0.7546771E-02  0.1231025E+00
          5   -1    0    0  501    0  0.00000000000E+00  0.00000000000E+00  0.34260443216E+03  0.34263666899E+03  0.47000000000E+01 0.  1.
         -5   -1    0    0    0  501 -0.00000000000E+00 -0.00000000000E+00 -0.50235634132E+02  0.50455018944E+02  0.47000000000E+01 0.  1.
         25    2    1    2    0    0 -0.25473603769E+02 -0.35522678880E+01  0.99520464823E+02  0.16184159185E+03  0.12500741914E+03 0.  0.
         25    2    1    2    0    0  0.25473603769E+02  0.35522678880E+01  0.19284833321E+03  0.23125009608E+03  0.12499841687E+03 0.  0.
          5    1    4    4  502    0  0.42554984142E+02 -0.17667672732E+02  0.11386803002E+02  0.47695100563E+02  0.47000000000E+01 0. -1.
         -5    1    4    4    0  502 -0.17081380373E+02  0.21219940620E+02  0.18146153020E+03  0.18355499552E+03  0.47000000000E+01 0. -1.
          5    1    3    3  503    0 -0.51518861783E+02  0.18191663727E+02 -0.18207046240E+01  0.54868339813E+02  0.47000000000E+01 0.  1.
         -5    1    3    3    0  503  0.26045258014E+02 -0.21743931615E+02  0.10134116945E+03  0.10697325204E+03  0.47000000000E+01 0.  1.
<mgrwt>
<rscale>  0 0.12762373E+03</rscale>
<asrwt>0</asrwt>
<pdfrwt beam="1">  1        5 0.52727728E-01 0.12762593E+03</pdfrwt>
<pdfrwt beam="2">  1       -5 0.77479148E-02 0.12762593E+03</pdfrwt>
<totfact> 0.29919107E+02</totfact>
</mgrwt>
</event>
<event>
 8    1  0.3488953E-007  0.1615683E+03  0.7546771E-02  0.1186938E+00
         -5   -1    0    0    0  501 -0.00000000000E+00  0.00000000000E+00  0.10767030791E+04  0.10767133372E+04  0.47000000000E+01 0.  1.
          5   -1    0    0  501    0  0.00000000000E+00 -0.00000000000E+00 -0.27545824270E+02  0.27943915880E+02  0.47000000000E+01 0.  1.
         25    2    1    2    0    0  0.15217630441E+02  0.10122528709E+03  0.72102959972E+03  0.73891000864E+03  0.12500472857E+03 0.  0.
         25    2    1    2    0    0 -0.15217630441E+02 -0.10122528709E+03  0.32812765511E+03  0.36574724446E+03  0.12500061505E+03 0.  0.
          5    1    3    3  502    0  0.46130957210E+02  0.82562071728E+02  0.66741049517E+03  0.67409451857E+03  0.47000000000E+01 0.  1.
         -5    1    3    3    0  502 -0.30913326769E+02  0.18663215366E+02  0.53619104552E+02  0.64815490067E+02  0.47000000000E+01 0.  1.
          5    1    4    4  503    0 -0.20178443500E+01 -0.10678904595E+03  0.13582221401E+03  0.17285177422E+03  0.47000000000E+01 0. -1.
         -5    1    4    4    0  503 -0.13199786091E+02  0.55637588582E+01  0.19230544110E+03  0.19289547025E+03  0.47000000000E+01 0. -1.
<mgrwt>
<rscale>  0 0.16156751E+03</rscale>
<asrwt>0</asrwt>
<pdfrwt beam="2">  1        5 0.42692308E-02 0.16156831E+03</pdfrwt>
<pdfrwt beam="1">  1       -5 0.16567803E+00 0.16156831E+03</pdfrwt>
<totfact> 0.54602759E+01</totfact>
</mgrwt>
</event>
<event>
 8    1  0.3488953E-007  0.1384057E+03  0.7546771E-02  0.1215491E+00
          5   -1    0    0  501    0  0.00000000000E+00  0.00000000000E+00  0.29182410148E+02  0.29558468534E+02  0.47000000000E+01 0. -1.
         -5   -1    0    0    0  501 -0.00000000000E+00 -0.00000000000E+00 -0.65814239430E+03  0.65815917617E+03  0.47000000000E+01 0. -1.
         25    2    1    2    0    0  0.13660580486E+02  0.57815228106E+02 -0.28081249347E+03  0.31306833651E+03  0.12500765887E+03 0.  0.
         25    2    1    2    0    0 -0.13660580486E+02 -0.57815228106E+02 -0.34814749068E+03  0.37464930819E+03  0.12500486710E+03 0.  0.
          5    1    3    3  502    0 -0.53624186475E+02  0.86044537105E+01 -0.99466304941E+02  0.11342497881E+03  0.47000000000E+01 0.  1.
         -5    1    3    3    0  502  0.67284766961E+02  0.49210774396E+02 -0.18134618853E+03  0.19964335770E+03  0.47000000000E+01 0.  1.
          5    1    4    4  503    0  0.23888018788E+02 -0.10739265766E+02 -0.28862559710E+03  0.28984960681E+03  0.47000000000E+01 0.  1.
         -5    1    4    4    0  503 -0.37548599274E+02 -0.47075962340E+02 -0.59521893589E+02  0.84799701380E+02  0.47000000000E+01 0.  1.
<mgrwt>
<rscale>  0 0.13840503E+03</rscale>
<asrwt>0</asrwt>
<pdfrwt beam="1">  1        5 0.45198205E-02 0.13840566E+03</pdfrwt>
<pdfrwt beam="2">  1       -5 0.10128288E+00 0.13840566E+03</pdfrwt>
<totfact> 0.17214245E+02</totfact>
</mgrwt>
</event>
<event>
 8    1  0.3488953E-007  0.1359888E+03  0.7546771E-02  0.1218835E+00
          5   -1    0    0  501    0  0.00000000000E+00  0.00000000000E+00  0.12744621409E+03  0.12753284865E+03  0.47000000000E+01 0.  1.
         -5   -1    0    0    0  501 -0.00000000000E+00 -0.00000000000E+00 -0.16360156945E+03  0.16366906710E+03  0.47000000000E+01 0.  1.
         25    2    1    2    0    0  0.18574318285E+02  0.50191009074E+02 -0.67257806984E+02  0.15170170039E+03  0.12500260241E+03 0.  0.
         25    2    1    2    0    0 -0.18574318285E+02 -0.50191009074E+02  0.31102451623E+02  0.13950021537E+03  0.12501521867E+03 0.  0.
          5    1    3    3  502    0 -0.53401822016E+02  0.14714103431E+02 -0.26906916511E+02  0.61760275181E+02  0.47000000000E+01 0.  1.
         -5    1    3    3    0  502  0.71976140300E+02  0.35476905644E+02 -0.40350890473E+02  0.89941425208E+02  0.47000000000E+01 0.  1.
          5    1    4    4  503    0  0.12436598487E+02  0.38783183542E+02  0.15742776634E+02  0.43917300961E+02  0.47000000000E+01 0.  1.
         -5    1    4    4    0  503 -0.31010916771E+02 -0.88974192616E+02  0.15359674990E+02  0.95582914406E+02  0.47000000000E+01 0.  1.
<mgrwt>
<rscale>  0 0.13598588E+03</rscale>
<asrwt>0</asrwt>
<pdfrwt beam="1">  1        5 0.19618966E-01 0.13598878E+03</pdfrwt>
<pdfrwt beam="2">  1       -5 0.25181329E-01 0.13598878E+03</pdfrwt>
<totfact> 0.26063671E+02</totfact>
</mgrwt>
</event>
<event>
 8    1  0.3488953E-007  0.1398670E+03  0.7546771E-02  0.1213510E+00
         -5   -1    0    0    0  501 -0.00000000000E+00  0.00000000000E+00  0.19560340887E+03  0.19565986702E+03  0.47000000000E+01 0.  1.
          5   -1    0    0  501    0  0.00000000000E+00 -0.00000000000E+00 -0.14871711887E+03  0.14879136885E+03  0.47000000000E+01 0.  1.
         25    2    1    2    0    0 -0.57284024527E+02 -0.25629413336E+02  0.12208532703E+03  0.18565453143E+03  0.12499780666E+03 0.  0.
         25    2    1    2    0    0  0.57284024527E+02  0.25629413336E+02 -0.75199037034E+02  0.15879670444E+03  0.12499268729E+03 0.  0.
          5    1    4    4  502    0  0.31385593811E+02  0.71651232140E+01 -0.10804292538E+03  0.11283509301E+03  0.47000000000E+01 0. -1.
         -5    1    4    4    0  502  0.25898430716E+02  0.18464290122E+02  0.32843888348E+02  0.45961611428E+02  0.47000000000E+01 0. -1.
          5    1    3    3  503    0 -0.31133268716E+02 -0.35257310704E+02 -0.11880732569E+02  0.48740129107E+02  0.47000000000E+01 0. -1.
         -5    1    3    3    0  503 -0.26150755811E+02  0.96278973677E+01  0.13396605960E+03  0.13691440232E+03  0.47000000000E+01 0. -1.
<mgrwt>
<rscale>  0 0.13986586E+03</rscale>
<asrwt>0</asrwt>
<pdfrwt beam="2">  1        5 0.22889612E-01 0.13986700E+03</pdfrwt>
<pdfrwt beam="1">  1       -5 0.30102886E-01 0.13986700E+03</pdfrwt>
<totfact> 0.13927653E+02</totfact>
</mgrwt>
</event>
<event>
 8    1  0.3488953E-007  0.1476279E+03  0.7546771E-02  0.1203423E+00
          5   -1    0    0  501    0  0.00000000000E+00  0.00000000000E+00  0.50368326803E+02  0.50587136160E+02  0.47000000000E+01 0. -1.
         -5   -1    0    0    0  501 -0.00000000000E+00 -0.00000000000E+00 -0.70910338613E+03  0.70911896197E+03  0.47000000000E+01 0. -1.
         25    2    1    2    0    0  0.35750235341E+02 -0.69926575005E+02 -0.56699605596E+03  0.58589573341E+03  0.12498591012E+03 0.  0.
         25    2    1    2    0    0 -0.35750235341E+02  0.69926575005E+02 -0.91739003363E+02  0.17381036472E+03  0.12500477162E+03 0.  0.
          5    1    4    4  502    0  0.15568504481E+02 -0.30553030454E+02 -0.24156788524E+02  0.42207895393E+02  0.47000000000E+01 0. -1.
         -5    1    4    4    0  502 -0.51318739822E+02  0.10047960546E+03 -0.67582214839E+02  0.13160246933E+03  0.47000000000E+01 0. -1.
          5    1    3    3  503    0 -0.17255598077E+02 -0.67704714532E+02 -0.47045128088E+03  0.47563450433E+03  0.47000000000E+01 0.  1.
         -5    1    3    3    0  503  0.53005833418E+02 -0.22218604732E+01 -0.96544775089E+02  0.11026122908E+03  0.47000000000E+01 0.  1.
<mgrwt>
<rscale>  0 0.14762391E+03</rscale>
<asrwt>0</asrwt>
<pdfrwt beam="1">  1        5 0.77670035E-02 0.14762790E+03</pdfrwt>
<pdfrwt beam="2">  1       -5 0.10911085E+00 0.14762790E+03</pdfrwt>
<totfact> 0.58835274E+01</totfact>
</mgrwt>
</event>
<event>
 8    1  0.3488953E-007  0.1415075E+03  0.7546771E-02  0.1211316E+00
         -5   -1    0    0    0  501 -0.00000000000E+00  0.00000000000E+00  0.51258697261E+02  0.51473721887E+02  0.47000000000E+01 0. -1.
          5   -1    0    0  501    0  0.00000000000E+00 -0.00000000000E+00 -0.55616508295E+03  0.55618494180E+03  0.47000000000E+01 0. -1.
         25    2    1    2    0    0  0.47295654409E+02 -0.46495570300E+02 -0.86217657800E+02  0.16570412584E+03  0.12500262325E+03 0.  0.
         25    2    1    2    0    0 -0.47295654409E+02  0.46495570300E+02 -0.41868872789E+03  0.44195453785E+03  0.12499938274E+03 0.  0.
          5    1    4    4  502    0 -0.71039678495E+02  0.75067569009E+02 -0.28862941586E+03  0.30661181572E+03  0.47000000000E+01 0.  1.
         -5    1    4    4    0  502  0.23744024086E+02 -0.28571998709E+02 -0.13005931202E+03  0.13534272213E+03  0.47000000000E+01 0.  1.
          5    1    3    3  503    0  0.32324800241E+02 -0.89665321353E+02 -0.61680547377E+02  0.11362808847E+03  0.47000000000E+01 0.  1.
         -5    1    3    3    0  503  0.14970854168E+02  0.43169751052E+02 -0.24537110423E+02  0.52076037372E+02  0.47000000000E+01 0.  1.
<mgrwt>
<rscale>  0 0.14150679E+03</rscale>
<asrwt>0</asrwt>
<pdfrwt beam="2">  1        5 0.85581923E-01 0.14150750E+03</pdfrwt>
<pdfrwt beam="1">  1       -5 0.79040218E-02 0.14150750E+03</pdfrwt>
<totfact> 0.10136972E+02</totfact>
</mgrwt>
</event>
<event>
 8    1  0.3488953E-007  0.1489217E+03  0.7546771E-02  0.1201808E+00
         -5   -1    0    0    0  501 -0.00000000000E+00  0.00000000000E+00  0.53354253099E+02  0.53560865599E+02  0.47000000000E+01 0. -1.
          5   -1    0    0  501    0  0.00000000000E+00 -0.00000000000E+00 -0.59471238429E+03  0.59473095601E+03  0.47000000000E+01 0. -1.
         25    2    1    2    0    0  0.80315843489E+02  0.98774813200E+01 -0.92341877881E+02  0.17522751471E+03  0.12501783932E+03 0.  0.
         25    2    1    2    0    0 -0.80315843489E+02 -0.98774813200E+01 -0.44901625331E+03  0.47306430689E+03  0.12500417339E+03 0.  0.
          5    1    4    4  502    0 -0.68814171775E+02  0.61537349704E+01 -0.90400105012E+02  0.11387505292E+03  0.47000000000E+01 0.  1.
         -5    1    4    4    0  502 -0.11501671714E+02 -0.16031216290E+02 -0.35861614830E+03  0.35918925398E+03  0.47000000000E+01 0.  1.
          5    1    3    3  503    0 -0.25799120167E+02 -0.29736669487E+01  0.89739816223E+01  0.27875789543E+02  0.47000000000E+01 0.  1.
         -5    1    3    3    0  503  0.10611496366E+03  0.12851148269E+02 -0.10131585950E+03  0.14735172517E+03  0.47000000000E+01 0.  1.
<mgrwt>
<rscale>  0 0.14891879E+03</rscale>
<asrwt>0</asrwt>
<pdfrwt beam="2">  1        5 0.91511530E-01 0.14892166E+03</pdfrwt>
<pdfrwt beam="1">  1       -5 0.82256689E-02 0.14892166E+03</pdfrwt>
<totfact> 0.82087531E+01</totfact>
</mgrwt>
</event>
<event>
 8    1  0.3488953E-007  0.1280923E+03  0.7546771E-02  0.1230317E+00
          5   -1    0    0  501    0  0.00000000000E+00  0.00000000000E+00  0.17810115391E+02  0.18419831982E+02  0.47000000000E+01 0. -1.
         -5   -1    0    0    0  501 -0.00000000000E+00 -0.00000000000E+00 -0.90843191507E+03  0.90844407330E+03  0.47000000000E+01 0. -1.
         25    2    1    2    0    0  0.20610510982E+02  0.18812644883E+02 -0.41713135457E+03  0.43635311225E+03  0.12500705114E+03 0.  0.
         25    2    1    2    0    0 -0.20610510982E+02 -0.18812644883E+02 -0.47349044510E+03  0.49051079303E+03  0.12501570982E+03 0.  0.
          5    1    3    3  502    0  0.46141501097E+02 -0.16411509193E+02 -0.36496012861E+03  0.36826126762E+03  0.47000000000E+01 0. -1.
         -5    1    3    3    0  502 -0.25530990115E+02  0.35224154076E+02 -0.52171225963E+02  0.68091844630E+02  0.47000000000E+01 0. -1.
          5    1    4    4  503    0  0.46849821057E+02  0.14423717934E+02 -0.13408819928E+03  0.14284496686E+03  0.47000000000E+01 0.  1.
         -5    1    4    4    0  503 -0.67460332040E+02 -0.33236362818E+02 -0.33940224582E+03  0.34766582616E+03  0.47000000000E+01 0.  1.
<mgrwt>
<rscale>  0 0.12809018E+03</rscale>
<asrwt>0</asrwt>
<pdfrwt beam="1">  1        5 0.27878550E-02 0.12809230E+03</pdfrwt>
<pdfrwt beam="2">  1       -5 0.13980656E+00 0.12809230E+03</pdfrwt>
<totfact> 0.16242152E+02</totfact>
</mgrwt>
</event>
<event>
 8    1  0.3488953E-007  0.1311643E+03  0.7546771E-02  0.1225739E+00
         -5   -1    0    0    0  501 -0.00000000000E+00  0.00000000000E+00  0.20229712932E+02  0.20768516685E+02  0.47000000000E+01 0.  1.
          5   -1    0    0  501    0  0.00000000000E+00 -0.00000000000E+00 -0.10088483260E+04  0.10088592741E+04  0.47000000000E+01 0.  1.
         25    2    1    2    0    0 -0.14951676619E+02  0.36803150514E+02 -0.28294679939E+03  0.31187012694E+03  0.12500424101E+03 0.  0.
         25    2    1    2    0    0  0.14951676619E+02 -0.36803150514E+02 -0.70567181370E+03  0.71775766384E+03  0.12500132329E+03 0.  0.
          5    1    4    4  502    0  0.52710879432E+02 -0.19416915780E+02 -0.14568411232E+03  0.15620948759E+03  0.47000000000E+01 0.  1.
         -5    1    4    4    0  502 -0.37759202813E+02 -0.17386234734E+02 -0.55998770138E+03  0.56154817625E+03  0.47000000000E+01 0.  1.
          5    1    3    3  503    0  0.15967019949E+02  0.40732497270E+01  0.69270713201E+01  0.18482732656E+02  0.47000000000E+01 0.  1.
         -5    1    3    3    0  503 -0.30918696568E+02  0.32729900787E+02 -0.28987387071E+03  0.29338739428E+03  0.47000000000E+01 0.  1.
<mgrwt>
<rscale>  0 0.13116365E+03</rscale>
<asrwt>0</asrwt>
<pdfrwt beam="2">  1        5 0.15524968E+00 0.13116434E+03</pdfrwt>
<pdfrwt beam="1">  1       -5 0.31545529E-02 0.13116434E+03</pdfrwt>
<totfact> 0.10100624E+02</totfact>
</mgrwt>
</event>
<event>
 8    1  0.3488953E-007  0.1276435E+03  0.7546771E-02  0.1231015E+00
          5   -1    0    0  501    0  0.00000000000E+00  0.00000000000E+00  0.11308354781E+04  0.11308452452E+04  0.47000000000E+01 0. -1.
         -5   -1    0    0    0  501 -0.00000000000E+00 -0.00000000000E+00 -0.15667691848E+02  0.16357462146E+02  0.47000000000E+01 0. -1.
         25    2    1    2    0    0  0.25449314827E+02 -0.26843142502E+01  0.37506299696E+03  0.39617144120E+03  0.12499874386E+03 0.  0.
         25    2    1    2    0    0 -0.25449314827E+02  0.26843142502E+01  0.74010478928E+03  0.75103126611E+03  0.12505195074E+03 0.  0.
          5    1    3    3  502    0 -0.46048944259E+02  0.22602623025E+02  0.15912289346E+03  0.16725300912E+03  0.47000000000E+01 0.  1.
         -5    1    3    3    0  502  0.71498259086E+02 -0.25286937275E+02  0.21594010350E+03  0.22891843208E+03  0.47000000000E+01 0.  1.
          5    1    4    4  503    0 -0.19511592205E+02 -0.59301570861E+02  0.29522547042E+03  0.30179056798E+03  0.47000000000E+01 0. -1.
         -5    1    4    4    0  503 -0.59377226220E+01  0.61985885111E+02  0.44487931887E+03  0.44924069813E+03  0.47000000000E+01 0. -1.
<mgrwt>
<rscale>  0 0.12763047E+03</rscale>
<asrwt>0</asrwt>
<pdfrwt beam="1">  1        5 0.17402851E+00 0.12764350E+03</pdfrwt>
<pdfrwt beam="2">  1       -5 0.24642245E-02 0.12764350E+03</pdfrwt>
<totfact> 0.10785589E+02</totfact>
</mgrwt>
</event>
<event>
 8    1  0.3488953E-007  0.1347340E+03  0.7546771E-02  0.1220596E+00
         -5   -1    0    0    0  501 -0.00000000000E+00  0.00000000000E+00  0.65450173537E+02  0.65618710868E+02  0.47000000000E+01 0.  1.
          5   -1    0    0  501    0  0.00000000000E+00 -0.00000000000E+00 -0.27803670241E+03  0.27807642454E+03  0.47000000000E+01 0.  1.
         25    2    1    2    0    0  0.93491054160E+01 -0.49403900389E+02 -0.94897209401E+02  0.16479908084E+03  0.12500042219E+03 0.  0.
         25    2    1    2    0    0 -0.93491054160E+01  0.49403900389E+02 -0.11768931947E+03  0.17889605457E+03  0.12499948511E+03 0.  0.
          5    1    4    4  502    0  0.29458892526E+02  0.75846255087E+02 -0.98758248845E+02  0.12804593892E+03  0.47000000000E+01 0. -1.
         -5    1    4    4    0  502 -0.38807997942E+02 -0.26442354698E+02 -0.18931070625E+02  0.50850115647E+02  0.47000000000E+01 0. -1.
          5    1    3    3  503    0 -0.24880055774E+01 -0.90442524123E+02 -0.53959013430E+02  0.10545001409E+03  0.47000000000E+01 0.  1.
         -5    1    3    3    0  503  0.11837110993E+02  0.41038623734E+02 -0.40938195971E+02  0.59349066749E+02  0.47000000000E+01 0.  1.
<mgrwt>
<rscale>  0 0.13473380E+03</rscale>
<asrwt>0</asrwt>
<pdfrwt beam="2">  1        5 0.42790897E-01 0.13473402E+03</pdfrwt>
<pdfrwt beam="1">  1       -5 0.10085278E-01 0.13473402E+03</pdfrwt>
<totfact> 0.29999132E+02</totfact>
</mgrwt>
</event>
<event>
 8    1  0.3488953E-007  0.1340259E+03  0.7546771E-02  0.1221606E+00
          5   -1    0    0  501    0  0.00000000000E+00  0.00000000000E+00  0.67431367675E+01  0.82194825546E+01  0.47000000000E+01 0. -1.
         -5   -1    0    0    0  501 -0.00000000000E+00 -0.00000000000E+00 -0.24852800535E+04  0.24852844977E+04  0.47000000000E+01 0. -1.
         25    2    1    2    0    0 -0.18577887828E+02 -0.44633582558E+02 -0.14711258804E+04  0.14772184367E+04  0.12500263664E+03 0.  0.
         25    2    1    2    0    0  0.18577887828E+02  0.44633582558E+02 -0.10074110364E+04  0.10162855435E+04  0.12498806027E+03 0.  0.
          5    1    3    3  502    0  0.10423875525E+02 -0.33005917598E+02 -0.10365094703E+03  0.10937850153E+03  0.47000000000E+01 0.  1.
         -5    1    3    3    0  502 -0.29001763353E+02 -0.11627664960E+02 -0.13674749334E+04  0.13678399352E+04  0.47000000000E+01 0.  1.
          5    1    4    4  503    0  0.63238043741E+02 -0.18110159871E+01 -0.64948548782E+03  0.65257629350E+03  0.47000000000E+01 0.  1.
         -5    1    4    4    0  503 -0.44660155913E+02  0.46444598545E+02 -0.35792554854E+03  0.36370925003E+03  0.47000000000E+01 0.  1.
<mgrwt>
<rscale>  0 0.13402255E+03</rscale>
<asrwt>0</asrwt>
<pdfrwt beam="1">  1        5 0.11513146E-02 0.13402594E+03</pdfrwt>
<pdfrwt beam="2">  1       -5 0.38246402E+00 0.13402594E+03</pdfrwt>
<totfact> 0.15864509E+01</totfact>
</mgrwt>
</event>
<event>
 8    1  0.3488953E-007  0.1368119E+03  0.7546771E-02  0.1217686E+00
         -5   -1    0    0    0  501 -0.00000000000E+00  0.00000000000E+00  0.87208054738E+02  0.87334614050E+02  0.47000000000E+01 0.  1.
          5   -1    0    0  501    0  0.00000000000E+00 -0.00000000000E+00 -0.22673076110E+03  0.22677947003E+03  0.47000000000E+01 0.  1.
         25    2    1    2    0    0 -0.35494189797E+02 -0.42792812679E+02 -0.33026669558E+02  0.14074176539E+03  0.12500568506E+03 0.  0.
         25    2    1    2    0    0  0.35494189797E+02  0.42792812679E+02 -0.10649603680E+03  0.17337231869E+03  0.12500197082E+03 0.  0.
          5    1    3    3  502    0 -0.78477990657E+02 -0.21365282743E+02  0.13673194865E+01  0.81481469592E+02  0.47000000000E+01 0. -1.
         -5    1    3    3    0  502  0.42983800860E+02 -0.21427529936E+02 -0.34393989045E+02  0.59260295797E+02  0.47000000000E+01 0. -1.
          5    1    4    4  503    0  0.21838031679E+02  0.73371224645E+02 -0.18206298550E+02  0.78827631833E+02  0.47000000000E+01 0. -1.
         -5    1    4    4    0  503  0.13656158118E+02 -0.30578411966E+02 -0.88289738250E+02  0.94544686859E+02  0.47000000000E+01 0. -1.
<mgrwt>
<rscale>  0 0.13681101E+03</rscale>
<asrwt>0</asrwt>
<pdfrwt beam="2">  1        5 0.34895137E-01 0.13681185E+03</pdfrwt>
<pdfrwt beam="1">  1       -5 0.13430106E-01 0.13681185E+03</pdfrwt>
<totfact> 0.27523655E+02</totfact>
</mgrwt>
</event>
<event>
 8    1  0.3488953E-007  0.1278533E+03  0.7546771E-02  0.1230677E+00
         -5   -1    0    0    0  501 -0.00000000000E+00  0.00000000000E+00  0.53061221897E+03  0.53063303414E+03  0.47000000000E+01 0.  1.
          5   -1    0    0  501    0  0.00000000000E+00 -0.00000000000E+00 -0.34582841960E+02  0.34900758703E+02  0.47000000000E+01 0.  1.
         25    2    1    2    0    0 -0.83194478027E+01  0.25521423118E+02  0.34341978227E+03  0.36644729884E+03  0.12500367885E+03 0.  0.
         25    2    1    2    0    0  0.83194478027E+01 -0.25521423118E+02  0.15260959474E+03  0.19908649400E+03  0.12500074974E+03 0.  0.
          5    1    3    3  502    0 -0.49892904604E+02  0.56254932821E+02  0.22046416068E+03  0.23298166353E+03  0.47000000000E+01 0.  1.
         -5    1    3    3    0  502  0.41573456802E+02 -0.30733509703E+02  0.12295562159E+03  0.13346563531E+03  0.47000000000E+01 0.  1.
          5    1    4    4  503    0  0.22352029559E+02  0.31381758413E+02  0.13069904500E+03  0.13634059685E+03  0.47000000000E+01 0.  1.
         -5    1    4    4    0  503 -0.14032581756E+02 -0.56903181530E+02  0.21910549744E+02  0.62745897149E+02  0.47000000000E+01 0.  1.
<mgrwt>
<rscale>  0 0.12785262E+03</rscale>
<asrwt>0</asrwt>
<pdfrwt beam="2">  1        5 0.53464939E-02 0.12785334E+03</pdfrwt>
<pdfrwt beam="1">  1       -5 0.81658700E-01 0.12785334E+03</pdfrwt>
<totfact> 0.21161478E+02</totfact>
</mgrwt>
</event>
<event>
 8    1  0.3488953E-007  0.1472838E+03  0.7546771E-02  0.1203851E+00
         -5   -1    0    0    0  501 -0.00000000000E+00  0.00000000000E+00  0.87086028878E+02  0.87212765268E+02  0.47000000000E+01 0.  1.
          5   -1    0    0  501    0  0.00000000000E+00 -0.00000000000E+00 -0.25010508966E+03  0.25014924720E+03  0.47000000000E+01 0.  1.
         25    2    1    2    0    0  0.29630208190E+02  0.72036743444E+02 -0.69149807447E+02  0.16270898685E+03  0.12500110754E+03 0.  0.
         25    2    1    2    0    0 -0.29630208190E+02 -0.72036743444E+02 -0.93869253339E+02  0.17465302562E+03  0.12500000398E+03 0.  0.
          5    1    4    4  502    0  0.10264597384E+02 -0.30619627297E+02  0.25930996519E+02  0.41682491717E+02  0.47000000000E+01 0.  1.
         -5    1    4    4    0  502 -0.39894805574E+02 -0.41417116147E+02 -0.11980024986E+03  0.13297053391E+03  0.47000000000E+01 0.  1.
          5    1    3    3  503    0 -0.15930518989E+02  0.33318244558E+01 -0.77856934915E+02  0.79678571798E+02  0.47000000000E+01 0.  1.
         -5    1    3    3    0  503  0.45560727179E+02  0.68704918988E+02  0.87071274680E+01  0.83030415048E+02  0.47000000000E+01 0.  1.
<mgrwt>
<rscale>  0 0.14728357E+03</rscale>
<asrwt>0</asrwt>
<pdfrwt beam="2">  1        5 0.38490852E-01 0.14728380E+03</pdfrwt>
<pdfrwt beam="1">  1       -5 0.13410996E-01 0.14728380E+03</pdfrwt>
<totfact> 0.23206114E+02</totfact>
</mgrwt>
</event>
<event>
 8    1  0.3488953E-007  0.1427662E+03  0.7546771E-02  0.1209660E+00
         -5   -1    0    0    0  501 -0.00000000000E+00  0.00000000000E+00  0.80055550312E+03  0.80056929967E+03  0.47000000000E+01 0. -1.
          5   -1    0    0  501    0  0.00000000000E+00 -0.00000000000E+00 -0.25466306279E+02  0.25896384989E+02  0.47000000000E+01 0. -1.
         25    2    1    2    0    0 -0.58153560418E+02 -0.37040690644E+02  0.42737957200E+03  0.45059459931E+03  0.12501337933E+03 0.  0.
         25    2    1    2    0    0  0.58153560418E+02  0.37040690644E+02  0.34770962484E+03  0.37587108535E+03  0.12499296078E+03 0.  0.
          5    1    4    4  502    0  0.21940665375E+02  0.37344110253E+02  0.33405481307E+03  0.33688378337E+03  0.47000000000E+01 0.  1.
         -5    1    4    4    0  502  0.36212895043E+02 -0.30341960882E+00  0.13654811774E+02  0.38987301977E+02  0.47000000000E+01 0.  1.
          5    1    3    3  503    0 -0.56182347852E+01  0.39853280247E+02  0.66586225173E+02  0.77946545089E+02  0.47000000000E+01 0. -1.
         -5    1    3    3    0  503 -0.52535325633E+02 -0.76893970891E+02  0.36079334683E+03  0.37264805422E+03  0.47000000000E+01 0. -1.
<mgrwt>
<rscale>  0 0.14276175E+03</rscale>
<asrwt>0</asrwt>
<pdfrwt beam="2">  1        5 0.39520380E-02 0.14276622E+03</pdfrwt>
<pdfrwt beam="1">  1       -5 0.12319651E+00 0.14276622E+03</pdfrwt>
<totfact> 0.13285305E+02</totfact>
</mgrwt>
</event>
<event>
 8    1  0.3488953E-007  0.1529912E+03  0.7546771E-02  0.1196849E+00
         -5   -1    0    0    0  501 -0.00000000000E+00  0.00000000000E+00  0.11513675838E+03  0.11523264785E+03  0.47000000000E+01 0.  1.
          5   -1    0    0  501    0  0.00000000000E+00 -0.00000000000E+00 -0.20322218628E+03  0.20327652839E+03  0.47000000000E+01 0.  1.
         25    2    1    2    0    0 -0.54417803059E+02  0.69382948843E+02 -0.48479129304E+02  0.16048840344E+03  0.12502404082E+03 0.  0.
         25    2    1    2    0    0  0.54417803059E+02 -0.69382948843E+02 -0.39606298590E+02  0.15802077280E+03  0.12500645931E+03 0.  0.
          5    1    4    4  502    0 -0.32609491516E+02 -0.50945579497E+02 -0.32055565610E+02  0.68618367029E+02  0.47000000000E+01 0. -1.
         -5    1    4    4    0  502  0.87027294574E+02 -0.18437369346E+02 -0.75507329797E+01  0.89402405772E+02  0.47000000000E+01 0. -1.
          5    1    3    3  503    0  0.28094619803E+02 -0.11207469125E+02 -0.31303817282E+02  0.43782804872E+02  0.47000000000E+01 0. -1.
         -5    1    3    3    0  503 -0.82512422862E+02  0.80590417967E+02 -0.17175312022E+02  0.11670559857E+03  0.47000000000E+01 0. -1.
<mgrwt>
<rscale>  0 0.15298759E+03</rscale>
<asrwt>0</asrwt>
<pdfrwt beam="2">  1        5 0.31276508E-01 0.15299118E+03</pdfrwt>
<pdfrwt beam="1">  1       -5 0.17724904E-01 0.15299118E+03</pdfrwt>
<totfact> 0.21459946E+02</totfact>
</mgrwt>
</event>
<event>
 8    1  0.3488953E-007  0.1265776E+03  0.7546771E-02  0.1232629E+00
         -5   -1    0    0    0  501 -0.00000000000E+00  0.00000000000E+00  0.85637190886E+02  0.85766068248E+02  0.47000000000E+01 0. -1.
          5   -1    0    0  501    0  0.00000000000E+00 -0.00000000000E+00 -0.22014135029E+03  0.22019151688E+03  0.47000000000E+01 0. -1.
         25    2    1    2    0    0  0.51312721908E+01 -0.19285040454E+02 -0.77138154114E+01  0.12679932440E+03  0.12498129052E+03 0.  0.
         25    2    1    2    0    0 -0.51312721908E+01  0.19285040454E+02 -0.12679034399E+03  0.17915826073E+03  0.12499459316E+03 0.  0.
          5    1    3    3  502    0  0.18232216766E+02 -0.39579432670E+02  0.48538977562E+02  0.65399293279E+02  0.47000000000E+01 0. -1.
         -5    1    3    3    0  502 -0.13100944575E+02  0.20294392216E+02 -0.56252792973E+02  0.61400031119E+02  0.47000000000E+01 0. -1.
          5    1    4    4  503    0 -0.63533889181E+02  0.21641237834E+02 -0.58615654146E+02  0.89234428112E+02  0.47000000000E+01 0. -1.
         -5    1    4    4    0  503  0.58402616990E+02 -0.23561973797E+01 -0.68174689844E+02  0.89923832618E+02  0.47000000000E+01 0. -1.
<mgrwt>
<rscale>  0 0.12657432E+03</rscale>
<asrwt>0</asrwt>
<pdfrwt beam="2">  1        5 0.33881672E-01 0.12657761E+03</pdfrwt>
<pdfrwt beam="1">  1       -5 0.13188725E-01 0.12657761E+03</pdfrwt>
<totfact> 0.29334567E+02</totfact>
</mgrwt>
</event>
<event>
 8    1  0.3488953E-007  0.1366925E+03  0.7546771E-02  0.1217851E+00
         -5   -1    0    0    0  501 -0.00000000000E+00  0.00000000000E+00  0.54115211022E+02  0.54318929149E+02  0.47000000000E+01 0. -1.
          5   -1    0    0  501    0  0.00000000000E+00 -0.00000000000E+00 -0.35237890907E+03  0.35241025178E+03  0.47000000000E+01 0. -1.
         25    2    1    2    0    0 -0.38671591232E+02  0.39536541712E+02 -0.11854477053E+03  0.18093341609E+03  0.12500163334E+03 0.  0.
         25    2    1    2    0    0  0.38671591232E+02 -0.39536541712E+02 -0.17971892752E+03  0.22579576484E+03  0.12500481755E+03 0.  0.
          5    1    3    3  502    0 -0.18862923080E+02 -0.86883882262E+01  0.22205220986E+02  0.30764586721E+02  0.47000000000E+01 0. -1.
         -5    1    3    3    0  502 -0.19808668152E+02  0.48224929939E+02 -0.14074999152E+03  0.15016882937E+03  0.47000000000E+01 0. -1.
          5    1    4    4  503    0  0.99822322744E+01  0.40925713250E+02 -0.25584559016E+02  0.49509783137E+02  0.47000000000E+01 0.  1.
         -5    1    4    4    0  503  0.28689358958E+02 -0.80462254962E+02 -0.15413436850E+03  0.17628598170E+03  0.47000000000E+01 0.  1.
<mgrwt>
<rscale>  0 0.13669175E+03</rscale>
<asrwt>0</asrwt>
<pdfrwt beam="2">  1        5 0.54230220E-01 0.13669248E+03</pdfrwt>
<pdfrwt beam="1">  1       -5 0.83434989E-02 0.13669248E+03</pdfrwt>
<totfact> 0.25420549E+02</totfact>
</mgrwt>
</event>
<event>
 8    1  0.3488953E-007  0.1370003E+03  0.7546771E-02  0.1217438E+00
          5   -1    0    0  501    0  0.00000000000E+00  0.00000000000E+00  0.29005488016E+03  0.29009295666E+03  0.47000000000E+01 0. -1.
         -5   -1    0    0    0  501 -0.00000000000E+00 -0.00000000000E+00 -0.74049538746E+02  0.74198545730E+02  0.47000000000E+01 0. -1.
         25    2    1    2    0    0 -0.51406666565E+02 -0.22134328487E+02  0.42901530259E+02  0.14356055468E+03  0.12504606230E+03 0.  0.
         25    2    1    2    0    0  0.51406666565E+02  0.22134328487E+02  0.17310381116E+03  0.22073094771E+03  0.12499859189E+03 0.  0.
          5    1    4    4  502    0 -0.17790875793E+02  0.10754995187E+02 -0.10771330049E+02  0.23880886374E+02  0.47000000000E+01 0.  1.
         -5    1    4    4    0  502  0.69197542358E+02  0.11379333301E+02  0.18387514120E+03  0.19685006134E+03  0.47000000000E+01 0.  1.
          5    1    3    3  503    0 -0.42189170180E+02 -0.48802666854E+02 -0.25416134678E+02  0.69496016249E+02  0.47000000000E+01 0.  1.
         -5    1    3    3    0  503 -0.92174963852E+01  0.26668338367E+02  0.68317664937E+02  0.74064538433E+02  0.47000000000E+01 0.  1.
<mgrwt>
<rscale>  0 0.13698950E+03</rscale>
<asrwt>0</asrwt>
<pdfrwt beam="1">  1        5 0.44638219E-01 0.13700033E+03</pdfrwt>
<pdfrwt beam="2">  1       -5 0.11406628E-01 0.13700033E+03</pdfrwt>
<totfact> 0.22268100E+02</totfact>
</mgrwt>
</event>
<event>
 8    1  0.3488953E-007  0.1267838E+03  0.7546771E-02  0.1232323E+00
          5   -1    0    0  501    0  0.00000000000E+00  0.00000000000E+00  0.17782335156E+03  0.17788545292E+03  0.47000000000E+01 0.  1.
         -5   -1    0    0    0  501 -0.00000000000E+00 -0.00000000000E+00 -0.92301856779E+02  0.92421441045E+02  0.47000000000E+01 0.  1.
         25    2    1    2    0    0  0.16835977946E+02 -0.12524084387E+02  0.22521653593E+02  0.12876865889E+03  0.12503535415E+03 0.  0.
         25    2    1    2    0    0 -0.16835977946E+02  0.12524084387E+02  0.62999841191E+02  0.14153823508E+03  0.12499515653E+03 0.  0.
          5    1    3    3  502    0 -0.28639240711E+02 -0.52553904723E+02 -0.83458715109E+01  0.60612396268E+02  0.47000000000E+01 0. -1.
         -5    1    3    3    0  502  0.45475218657E+02  0.40029820336E+02  0.30867525104E+02  0.68156262618E+02  0.47000000000E+01 0. -1.
          5    1    4    4  503    0  0.20119251321E+02  0.11013249112E+02 -0.31904242171E+02  0.39573306637E+02  0.47000000000E+01 0.  1.
         -5    1    4    4    0  503 -0.36955229267E+02  0.15108352751E+01  0.94904083362E+02  0.10196492844E+03  0.47000000000E+01 0.  1.
<mgrwt>
<rscale>  0 0.12677393E+03</rscale>
<asrwt>0</asrwt>
<pdfrwt beam="1">  1        5 0.27371414E-01 0.12678384E+03</pdfrwt>
<pdfrwt beam="2">  1       -5 0.14214262E-01 0.12678384E+03</pdfrwt>
<totfact> 0.39023160E+02</totfact>
</mgrwt>
</event>
<event>
 8    1  0.3488953E-007  0.1404229E+03  0.7546771E-02  0.1212762E+00
         -5   -1    0    0    0  501 -0.00000000000E+00  0.00000000000E+00  0.71806828071E+02  0.71960479137E+02  0.47000000000E+01 0. -1.
          5   -1    0    0  501    0  0.00000000000E+00 -0.00000000000E+00 -0.27706332415E+03  0.27710318581E+03  0.47000000000E+01 0. -1.
         25    2    1    2    0    0 -0.57362381494E+02  0.28325609523E+02 -0.12057376730E+03  0.18508545612E+03  0.12500323892E+03 0.  0.
         25    2    1    2    0    0  0.57362381494E+02 -0.28325609523E+02 -0.84682728770E+02  0.16397820883E+03  0.12499962181E+03 0.  0.
          5    1    4    4  502    0 -0.22150166185E+02 -0.27537483077E+02 -0.75880090465E+02  0.83838063940E+02  0.47000000000E+01 0. -1.
         -5    1    4    4    0  502  0.79512547679E+02 -0.78812644658E+00 -0.88026383059E+01  0.80140144890E+02  0.47000000000E+01 0. -1.
          5    1    3    3  503    0  0.15258284091E+01  0.45790343665E+02  0.38804687176E+01  0.46219387304E+02  0.47000000000E+01 0.  1.
         -5    1    3    3    0  503 -0.58888209903E+02 -0.17464734142E+02 -0.12445423602E+03  0.13886606881E+03  0.47000000000E+01 0.  1.
<mgrwt>
<rscale>  0 0.14042210E+03</rscale>
<asrwt>0</asrwt>
<pdfrwt beam="2">  1        5 0.42640012E-01 0.14042291E+03</pdfrwt>
<pdfrwt beam="1">  1       -5 0.11062090E-01 0.14042291E+03</pdfrwt>
<totfact> 0.26062324E+02</totfact>
</mgrwt>
</event>
<event>
 8    1  0.3488953E-007  0.1390660E+03  0.7546771E-02  0.1214592E+00
         -5   -1    0    0    0  501 -0.00000000000E+00  0.00000000000E+00  0.20288071745E+03  0.20293515100E+03  0.47000000000E+01 0. -1.
          5   -1    0    0  501    0  0.00000000000E+00 -0.00000000000E+00 -0.10073360212E+03  0.10084318815E+03  0.47000000000E+01 0. -1.
         25    2    1    2    0    0  0.53623880293E+02  0.28954386089E+02  0.86654989631E+02  0.16385209349E+03  0.12499817720E+03 0.  0.
         25    2    1    2    0    0 -0.53623880293E+02 -0.28954386089E+02  0.15492125699E+02  0.13992624566E+03  0.12500188500E+03 0.  0.
          5    1    3    3  502    0 -0.20185939768E+02 -0.22839268959E+02 -0.91836845966E+01  0.32179720845E+02  0.47000000000E+01 0.  1.
         -5    1    3    3    0  502  0.73809820062E+02  0.51793655048E+02  0.95838674228E+02  0.13167237265E+03  0.47000000000E+01 0.  1.
          5    1    4    4  503    0 -0.12615490638E+02  0.39634782837E+02 -0.26487417089E+02  0.49535238756E+02  0.47000000000E+01 0. -1.
         -5    1    4    4    0  503 -0.41008389655E+02 -0.68589168926E+02  0.41979542788E+02  0.90391006902E+02  0.47000000000E+01 0. -1.
<mgrwt>
<rscale>  0 0.13906515E+03</rscale>
<asrwt>0</asrwt>
<pdfrwt beam="2">  1        5 0.15510094E-01 0.13906599E+03</pdfrwt>
<pdfrwt beam="1">  1       -5 0.31225035E-01 0.13906599E+03</pdfrwt>
<totfact> 0.26625025E+02</totfact>
</mgrwt>
</event>
<event>
 8    1  0.3488953E-007  0.1635024E+03  0.7546771E-02  0.1184799E+00
          5   -1    0    0  501    0  0.00000000000E+00  0.00000000000E+00  0.24613477987E+03  0.24617964957E+03  0.47000000000E+01 0.  1.
         -5   -1    0    0    0  501 -0.00000000000E+00 -0.00000000000E+00 -0.14046930547E+03  0.14054791276E+03  0.47000000000E+01 0.  1.
         25    2    1    2    0    0  0.70500695377E+02  0.78345238009E+02 -0.39362495743E+02  0.16817289785E+03  0.12499757251E+03 0.  0.
         25    2    1    2    0    0 -0.70500695377E+02 -0.78345238009E+02  0.14502797014E+03  0.21855466448E+03  0.12499881949E+03 0.  0.
          5    1    3    3  502    0 -0.26095210609E+02  0.55271388229E+02 -0.17059990805E+00  0.61302573174E+02  0.47000000000E+01 0.  1.
         -5    1    3    3    0  502  0.96595905986E+02  0.23073849780E+02 -0.39191895835E+02  0.10687032467E+03  0.47000000000E+01 0.  1.
          5    1    4    4  503    0  0.19189369452E+02 -0.10106444193E+02 -0.11988767622E+02  0.25222859935E+02  0.47000000000E+01 0.  1.
         -5    1    4    4    0  503 -0.89690064830E+02 -0.68238793815E+02  0.15701673776E+03  0.19333180454E+03  0.47000000000E+01 0.  1.
<mgrwt>
<rscale>  0 0.16350214E+03</rscale>
<asrwt>0</asrwt>
<pdfrwt beam="1">  1        5 0.37876388E-01 0.16350238E+03</pdfrwt>
<pdfrwt beam="2">  1       -5 0.21620161E-01 0.16350238E+03</pdfrwt>
<totfact> 0.10302742E+02</totfact>
</mgrwt>
</event>
<event>
 8    1  0.3488953E-007  0.1504307E+03  0.7546771E-02  0.1199947E+00
         -5   -1    0    0    0  501 -0.00000000000E+00  0.00000000000E+00  0.38813661195E+02  0.39097190377E+02  0.47000000000E+01 0.  1.
          5   -1    0    0  501    0  0.00000000000E+00 -0.00000000000E+00 -0.75690292298E+03  0.75691751520E+03  0.47000000000E+01 0.  1.
         25    2    1    2    0    0 -0.68007698337E+02 -0.48770244342E+02 -0.16699356585E+03  0.22475822084E+03  0.12500329209E+03 0.  0.
         25    2    1    2    0    0  0.68007698337E+02  0.48770244342E+02 -0.55109569593E+03  0.57125648474E+03  0.12499568597E+03 0.  0.
          5    1    4    4  502    0  0.40903453076E+01  0.42052904865E+02 -0.44569042939E+03  0.44771333081E+03  0.47000000000E+01 0. -1.
         -5    1    4    4    0  502  0.63917353029E+02  0.67173394767E+01 -0.10540526654E+03  0.12354315393E+03  0.47000000000E+01 0. -1.
          5    1    3    3  503    0 -0.68774295997E+02 -0.72370886503E+02 -0.17313305462E+03  0.19991146441E+03  0.47000000000E+01 0.  1.
         -5    1    3    3    0  503  0.76659766074E+00  0.23600642161E+02  0.61394887672E+01  0.24846756423E+02  0.47000000000E+01 0.  1.
<mgrwt>
<rscale>  0 0.15042916E+03</rscale>
<asrwt>0</asrwt>
<pdfrwt beam="2">  1        5 0.11646953E+00 0.15043074E+03</pdfrwt>
<pdfrwt beam="1">  1       -5 0.59942655E-02 0.15043074E+03</pdfrwt>
<totfact> 0.78017482E+01</totfact>
</mgrwt>
</event>
<event>
 8    1  0.3488953E-007  0.1384800E+03  0.7546771E-02  0.1215390E+00
          5   -1    0    0  501    0  0.00000000000E+00  0.00000000000E+00  0.14441058705E+02  0.15186644676E+02  0.47000000000E+01 0.  1.
         -5   -1    0    0    0  501 -0.00000000000E+00 -0.00000000000E+00 -0.13013433943E+04  0.13013518817E+04  0.47000000000E+01 0.  1.
         25    2    1    2    0    0  0.56912670176E+02  0.17648754245E+02 -0.69379929931E+03  0.70748359225E+03  0.12500014013E+03 0.  0.
         25    2    1    2    0    0 -0.56912670176E+02 -0.17648754245E+02 -0.59310303630E+03  0.60905493409E+03  0.12500468199E+03 0.  0.
          5    1    4    4  502    0  0.31729855502E+02  0.24280689244E+02 -0.18186386462E+03  0.18626027718E+03  0.47000000000E+01 0.  1.
         -5    1    4    4    0  502 -0.88642525678E+02 -0.41929443489E+02 -0.41123917169E+03  0.42279465692E+03  0.47000000000E+01 0.  1.
          5    1    3    3  503    0 -0.23112518678E+02 -0.34149386165E+02 -0.16494957381E+03  0.17009062583E+03  0.47000000000E+01 0. -1.
         -5    1    3    3    0  503  0.80025188854E+02  0.51798140410E+02 -0.52884972550E+03  0.53739296642E+03  0.47000000000E+01 0. -1.
<mgrwt>
<rscale>  0 0.13847894E+03</rscale>
<asrwt>0</asrwt>
<pdfrwt beam="1">  1        5 0.22797080E-02 0.13847997E+03</pdfrwt>
<pdfrwt beam="2">  1       -5 0.20026459E+00 0.13847997E+03</pdfrwt>
<totfact> 0.82191859E+01</totfact>
</mgrwt>
</event>
<event>
 8    1  0.3488953E-007  0.1394065E+03  0.7546771E-02  0.1214140E+00
          5   -1    0    0  501    0  0.00000000000E+00  0.00000000000E+00  0.11973959424E+04  0.11974051666E+04  0.47000000000E+01 0. -1.
         -5   -1    0    0    0  501 -0.00000000000E+00 -0.00000000000E+00 -0.16633343521E+02  0.17284620814E+02  0.47000000000E+01 0. -1.
         25    2    1    2    0    0  0.40957927913E+02 -0.46174038356E+02  0.46335422292E+03  0.48386220847E+03  0.12496362356E+03 0.  0.
         25    2    1    2    0    0 -0.40957927913E+02  0.46174038356E+02  0.71740837600E+03  0.73082757893E+03  0.12499831396E+03 0.  0.
          5    1    4    4  502    0  0.16848891015E+02  0.27554706843E+02  0.44595579187E+02  0.55263031772E+02  0.47000000000E+01 0. -1.
         -5    1    4    4    0  502 -0.57806818929E+02  0.18619331513E+02  0.67281279681E+03  0.67556454715E+03  0.47000000000E+01 0. -1.
          5    1    3    3  503    0 -0.15191681664E+02  0.17612255338E+01  0.14426926019E+01  0.16064260615E+02  0.47000000000E+01 0. -1.
         -5    1    3    3    0  503  0.56149609577E+02 -0.47935263890E+02  0.46191153032E+03  0.46779794786E+03  0.47000000000E+01 0. -1.
<mgrwt>
<rscale>  0 0.13939872E+03</rscale>
<asrwt>0</asrwt>
<pdfrwt beam="1">  1        5 0.18426558E+00 0.13940650E+03</pdfrwt>
<pdfrwt beam="2">  1       -5 0.26097836E-02 0.13940650E+03</pdfrwt>
<totfact> 0.85475625E+01</totfact>
</mgrwt>
</event>
<event>
 8    1  0.3488953E-007  0.1308191E+03  0.7546771E-02  0.1226249E+00
          5   -1    0    0  501    0  0.00000000000E+00  0.00000000000E+00  0.56847930715E+02  0.57041890104E+02  0.47000000000E+01 0. -1.
         -5   -1    0    0    0  501 -0.00000000000E+00 -0.00000000000E+00 -0.30644854021E+03  0.30648458003E+03  0.47000000000E+01 0. -1.
         25    2    1    2    0    0 -0.22497592391E+02  0.31308545865E+02 -0.99059175475E+02  0.16409249085E+03  0.12500903407E+03 0.  0.
         25    2    1    2    0    0  0.22497592391E+02 -0.31308545865E+02 -0.15054143401E+03  0.19943397928E+03  0.12499928812E+03 0.  0.
          5    1    3    3  502    0  0.29254640793E+02 -0.13943240113E+02 -0.88522257619E+02  0.94384999056E+02  0.47000000000E+01 0.  1.
         -5    1    3    3    0  502 -0.51752233184E+02  0.45251785978E+02 -0.10536917856E+02  0.69707491790E+02  0.47000000000E+01 0.  1.
          5    1    4    4  503    0  0.60039576058E+02  0.20455733483E+02 -0.53436074845E+02  0.83070402794E+02  0.47000000000E+01 0.  1.
         -5    1    4    4    0  503 -0.37541983667E+02 -0.51764279348E+02 -0.97105359170E+02  0.11636357649E+03  0.47000000000E+01 0.  1.
<mgrwt>
<rscale>  0 0.13081673E+03</rscale>
<asrwt>0</asrwt>
<pdfrwt beam="1">  1        5 0.87635279E-02 0.13081906E+03</pdfrwt>
<pdfrwt beam="2">  1       -5 0.47163621E-01 0.13081906E+03</pdfrwt>
<totfact> 0.30939815E+02</totfact>
</mgrwt>
</event>
<event>
 8    1  0.3488953E-007  0.1463906E+03  0.7546771E-02  0.1204981E+00
          5   -1    0    0  501    0  0.00000000000E+00  0.00000000000E+00  0.85024511404E+02  0.85154316036E+02  0.47000000000E+01 0. -1.
         -5   -1    0    0    0  501 -0.00000000000E+00 -0.00000000000E+00 -0.26533538347E+03  0.26537700677E+03  0.47000000000E+01 0. -1.
         25    2    1    2    0    0 -0.30174696450E+02 -0.69961879405E+02 -0.12987537014E+03  0.19569608553E+03  0.12499667694E+03 0.  0.
         25    2    1    2    0    0  0.30174696450E+02  0.69961879405E+02 -0.50435501924E+02  0.15483523727E+03  0.12500013589E+03 0.  0.
          5    1    3    3  502    0 -0.55504860039E+01 -0.89623398677E+02 -0.13621029483E+03  0.16321303840E+03  0.47000000000E+01 0.  1.
         -5    1    3    3    0  502 -0.24624210446E+02  0.19661519272E+02  0.63349246872E+01  0.32483047132E+02  0.47000000000E+01 0.  1.
          5    1    4    4  503    0  0.78366854355E+02  0.53806737813E+02 -0.29264146090E+02  0.99574138922E+02  0.47000000000E+01 0.  1.
         -5    1    4    4    0  503 -0.48192157905E+02  0.16155141592E+02 -0.21171355833E+02  0.55261098353E+02  0.47000000000E+01 0.  1.
<mgrwt>
<rscale>  0 0.14638987E+03</rscale>
<asrwt>0</asrwt>
<pdfrwt beam="1">  1        5 0.13093881E-01 0.14639061E+03</pdfrwt>
<pdfrwt beam="2">  1       -5 0.40834015E-01 0.14639061E+03</pdfrwt>
<totfact> 0.21421978E+02</totfact>
</mgrwt>
</event>
<event>
 8    1  0.3488953E-007  0.1458730E+03  0.7546771E-02  0.1205640E+00
          5   -1    0    0  501    0  0.00000000000E+00  0.00000000000E+00  0.36119172412E+03  0.36122230215E+03  0.47000000000E+01 0. -1.
         -5   -1    0    0    0  501 -0.00000000000E+00 -0.00000000000E+00 -0.70242245191E+02  0.70399311144E+02  0.47000000000E+01 0. -1.
         25    2    1    2    0    0 -0.10507837873E+02 -0.74450302515E+02  0.58435987295E+02  0.15713763631E+03  0.12499683969E+03 0.  0.
         25    2    1    2    0    0  0.10507837873E+02  0.74450302515E+02  0.23251349163E+03  0.27448397699E+03  0.12500267050E+03 0.  0.
          5    1    3    3  502    0 -0.34303076932E+02 -0.76049633397E+02  0.86324485040E+02  0.12014264249E+03  0.47000000000E+01 0.  1.
         -5    1    3    3    0  502  0.23795239059E+02  0.15993308816E+01 -0.27888497745E+02  0.36994993818E+02  0.47000000000E+01 0.  1.
          5    1    4    4  503    0 -0.19944594408E+02  0.44135645588E+02  0.22550370445E+03  0.23069406750E+03  0.47000000000E+01 0.  1.
         -5    1    4    4    0  503  0.30452432281E+02  0.30314656927E+02  0.70097871751E+01  0.43789909485E+02  0.47000000000E+01 0.  1.
<mgrwt>
<rscale>  0 0.14587174E+03</rscale>
<asrwt>0</asrwt>
<pdfrwt beam="1">  1        5 0.55582393E-01 0.14587299E+03</pdfrwt>
<pdfrwt beam="2">  1       -5 0.10820933E-01 0.14587299E+03</pdfrwt>
<totfact> 0.15673808E+02</totfact>
</mgrwt>
</event>
<event>
 8    1  0.3488953E-007  0.1352890E+03  0.7546771E-02  0.1219815E+00
          5   -1    0    0  501    0  0.00000000000E+00  0.00000000000E+00  0.66690681521E+02  0.66856091733E+02  0.47000000000E+01 0.  1.
         -5   -1    0    0    0  501 -0.00000000000E+00 -0.00000000000E+00 -0.27491948741E+03  0.27495965988E+03  0.47000000000E+01 0.  1.
         25    2    1    2    0    0  0.20418818606E+02  0.47535573210E+02 -0.11446681041E+03  0.17721193783E+03  0.12499944540E+03 0.  0.
         25    2    1    2    0    0 -0.20418818606E+02 -0.47535573210E+02 -0.93761995481E+02  0.16460381378E+03  0.12500617921E+03 0.  0.
          5    1    4    4  502    0 -0.38369757239E-01  0.33128737924E+02  0.66523867329E+01  0.34115377733E+02  0.47000000000E+01 0.  1.
         -5    1    4    4    0  502 -0.20380448849E+02 -0.80664311134E+02 -0.10041438221E+03  0.13048843604E+03  0.47000000000E+01 0.  1.
          5    1    3    3  503    0  0.46541828457E+02  0.10434939042E+02  0.60895169883E+01  0.48313579520E+02  0.47000000000E+01 0.  1.
         -5    1    3    3    0  503 -0.26123009851E+02  0.37100634168E+02 -0.12055632740E+03  0.12889835831E+03  0.47000000000E+01 0.  1.
<mgrwt>
<rscale>  0 0.13528741E+03</rscale>
<asrwt>0</asrwt>
<pdfrwt beam="1">  1        5 0.10275919E-01 0.13528896E+03</pdfrwt>
<pdfrwt beam="2">  1       -5 0.42311119E-01 0.13528896E+03</pdfrwt>
<totfact> 0.29759134E+02</totfact>
</mgrwt>
</event>
<event>
 8    1  0.3488953E-007  0.1314150E+03  0.7546771E-02  0.1225373E+00
         -5   -1    0    0    0  501 -0.00000000000E+00  0.00000000000E+00  0.74201079883E+03  0.74202568390E+03  0.47000000000E+01 0.  1.
          5   -1    0    0  501    0  0.00000000000E+00 -0.00000000000E+00 -0.40856379577E+02  0.41125828285E+02  0.47000000000E+01 0.  1.
         25    2    1    2    0    0 -0.36237488674E+02 -0.18222478525E+02  0.60808028111E+03  0.62211857627E+03  0.12499872145E+03 0.  0.
         25    2    1    2    0    0  0.36237488674E+02  0.18222478525E+02  0.93074138140E+02  0.16103293592E+03  0.12499438768E+03 0.  0.
          5    1    4    4  502    0 -0.37173751914E+02 -0.53158466097E+01 -0.27647977288E+01  0.37945752898E+02  0.47000000000E+01 0. -1.
         -5    1    4    4    0  502  0.73411240588E+02  0.23538325135E+02  0.95838935869E+02  0.12308718302E+03  0.47000000000E+01 0. -1.
          5    1    3    3  503    0  0.15729123364E+02 -0.40152850906E+02  0.48162227109E+03  0.48357187549E+03  0.47000000000E+01 0.  1.
         -5    1    3    3    0  503 -0.51966612038E+02  0.21930372381E+02  0.12645801002E+03  0.13854670078E+03  0.47000000000E+01 0.  1.
<mgrwt>
<rscale>  0 0.13141394E+03</rscale>
<asrwt>0</asrwt>
<pdfrwt beam="2">  1        5 0.63074690E-02 0.13141497E+03</pdfrwt>
<pdfrwt beam="1">  1       -5 0.11417737E+00 0.13141497E+03</pdfrwt>
<totfact> 0.72189157E+01</totfact>
</mgrwt>
</event>
<event>
 8    1  0.3488953E-007  0.1741228E+03  0.7546771E-02  0.1173616E+00
         -5   -1    0    0    0  501 -0.00000000000E+00  0.00000000000E+00  0.69088984884E+02  0.69248666646E+02  0.47000000000E+01 0. -1.
          5   -1    0    0  501    0  0.00000000000E+00 -0.00000000000E+00 -0.80450077367E+03  0.80451450257E+03  0.47000000000E+01 0. -1.
         25    2    1    2    0    0  0.17312244448E+02 -0.11997118472E+03 -0.72920945894E+02  0.18877203057E+03  0.12499846480E+03 0.  0.
         25    2    1    2    0    0 -0.17312244448E+02  0.11997118472E+03 -0.66249084289E+03  0.68499113865E+03  0.12500377647E+03 0.  0.
          5    1    4    4  502    0  0.13386520595E+02 -0.23137540141E+02 -0.12467028784E+03  0.12759042036E+03  0.47000000000E+01 0.  1.
         -5    1    4    4    0  502 -0.30698765043E+02  0.14310872486E+03 -0.53782055505E+03  0.55740071828E+03  0.47000000000E+01 0.  1.
          5    1    3    3  503    0  0.63136940501E+02 -0.88306921556E+02 -0.76300950616E+02  0.13277164876E+03  0.47000000000E+01 0.  1.
         -5    1    3    3    0  503 -0.45824696053E+02 -0.31664263165E+02  0.33800047222E+01  0.56000381802E+02  0.47000000000E+01 0.  1.
<mgrwt>
<rscale>  0 0.17412183E+03</rscale>
<asrwt>0</asrwt>
<pdfrwt beam="2">  1        5 0.12378268E+00 0.17412278E+03</pdfrwt>
<pdfrwt beam="1">  1       -5 0.10642414E-01 0.17412278E+03</pdfrwt>
<totfact> 0.25910693E+01</totfact>
</mgrwt>
</event>
<event>
 8    1  0.3488953E-007  0.1899861E+03  0.7546771E-02  0.1158476E+00
         -5   -1    0    0    0  501 -0.00000000000E+00  0.00000000000E+00  0.31518509910E+03  0.31522014005E+03  0.47000000000E+01 0.  1.
          5   -1    0    0  501    0  0.00000000000E+00 -0.00000000000E+00 -0.13265311219E+03  0.13273634835E+03  0.47000000000E+01 0.  1.
         25    2    1    2    0    0 -0.14194433565E+03  0.17918542796E+02  0.17425558332E+03  0.25779783416E+03  0.12500178550E+03 0.  0.
         25    2    1    2    0    0  0.14194433565E+03 -0.17918542796E+02  0.82764035920E+01  0.19015865424E+03  0.12499018492E+03 0.  0.
          5    1    3    3  502    0 -0.19287643337E+02  0.42721713589E+02  0.51739724928E+01  0.47392172232E+02  0.47000000000E+01 0. -1.
         -5    1    3    3    0  502 -0.12265669232E+03 -0.24803170793E+02  0.16908161083E+03  0.21040566193E+03  0.47000000000E+01 0. -1.
          5    1    4    4  503    0  0.13415453801E+03 -0.59742910521E+02  0.10440361904E+02  0.14730154983E+03  0.47000000000E+01 0.  1.
         -5    1    4    4    0  503  0.77897976437E+01  0.41824367725E+02 -0.21639583117E+01  0.42857104411E+02  0.47000000000E+01 0.  1.
<mgrwt>
<rscale>  0 0.18998418E+03</rscale>
<asrwt>0</asrwt>
<pdfrwt beam="2">  1        5 0.20417270E-01 0.18998609E+03</pdfrwt>
<pdfrwt beam="1">  1       -5 0.48499113E-01 0.18998609E+03</pdfrwt>
<totfact> 0.71721046E+01</totfact>
</mgrwt>
</event>
<event>
 8    1  0.3488953E-007  0.1324133E+03  0.7546771E-02  0.1223920E+00
         -5   -1    0    0    0  501 -0.00000000000E+00  0.00000000000E+00  0.11226284785E+03  0.11236118995E+03  0.47000000000E+01 0. -1.
          5   -1    0    0  501    0  0.00000000000E+00 -0.00000000000E+00 -0.16202017584E+03  0.16208833203E+03  0.47000000000E+01 0. -1.
         25    2    1    2    0    0 -0.43646293866E+02  0.15894711760E+01  0.16200547418E+01  0.13242317542E+03  0.12500298966E+03 0.  0.
         25    2    1    2    0    0  0.43646293866E+02 -0.15894711760E+01 -0.51377382732E+02  0.14202634656E+03  0.12499728907E+03 0.  0.
          5    1    3    3  502    0 -0.30544281923E+01  0.46495333188E+02  0.39153874117E+02  0.61043110981E+02  0.47000000000E+01 0.  1.
         -5    1    3    3    0  502 -0.40591865673E+02 -0.44905862012E+02 -0.37533819375E+02  0.71380064435E+02  0.47000000000E+01 0.  1.
          5    1    4    4  503    0  0.44330238563E+02  0.43295876867E+01 -0.91137601576E+02  0.10154835204E+03  0.47000000000E+01 0. -1.
         -5    1    4    4    0  503 -0.68394469711E+00 -0.59190588627E+01  0.39760218844E+02  0.40477994524E+02  0.47000000000E+01 0. -1.
<mgrwt>
<rscale>  0 0.13241192E+03</rscale>
<asrwt>0</asrwt>
<pdfrwt beam="2">  1        5 0.24938988E-01 0.13241327E+03</pdfrwt>
<pdfrwt beam="1">  1       -5 0.17284015E-01 0.13241327E+03</pdfrwt>
<totfact> 0.33251027E+02</totfact>
</mgrwt>
</event>
<event>
 8    1  0.3488953E-007  0.1294691E+03  0.7546771E-02  0.1228247E+00
          5   -1    0    0  501    0  0.00000000000E+00  0.00000000000E+00  0.30152644829E+03  0.30156307635E+03  0.47000000000E+01 0.  1.
         -5   -1    0    0    0  501 -0.00000000000E+00 -0.00000000000E+00 -0.55707009110E+02  0.55904927010E+02  0.47000000000E+01 0.  1.
         25    2    1    2    0    0 -0.15001339494E+01  0.33659498761E+02  0.11080566308E+03  0.17040925371E+03  0.12500482599E+03 0.  0.
         25    2    1    2    0    0  0.15001339494E+01 -0.33659498761E+02  0.13501377610E+03  0.18705874965E+03  0.12500817503E+03 0.  0.
          5    1    4    4  502    0  0.23755078042E+02  0.28259254526E+02  0.47439086204E+00  0.37218332121E+02  0.47000000000E+01 0. -1.
         -5    1    4    4    0  502 -0.22254944093E+02 -0.61918753287E+02  0.13453938524E+03  0.14984041753E+03  0.47000000000E+01 0. -1.
          5    1    3    3  503    0 -0.48448933484E+02 -0.18527164175E+01  0.46497674981E+01  0.48933036403E+02  0.47000000000E+01 0. -1.
         -5    1    3    3    0  503  0.46948799534E+02  0.35512215178E+02  0.10615589559E+03  0.12147621731E+03  0.47000000000E+01 0. -1.
<mgrwt>
<rscale>  0 0.12946832E+03</rscale>
<asrwt>0</asrwt>
<pdfrwt beam="1">  1        5 0.46406726E-01 0.12946913E+03</pdfrwt>
<pdfrwt beam="2">  1       -5 0.85883512E-02 0.12946913E+03</pdfrwt>
<totfact> 0.33014308E+02</totfact>
</mgrwt>
</event>
<event>
 8    1  0.3488953E-007  0.1337697E+03  0.7546771E-02  0.1221970E+00
          5   -1    0    0  501    0  0.00000000000E+00  0.00000000000E+00  0.40068903294E+03  0.40071659701E+03  0.47000000000E+01 0.  1.
         -5   -1    0    0    0  501 -0.00000000000E+00 -0.00000000000E+00 -0.50836625458E+02  0.51053427779E+02  0.47000000000E+01 0.  1.
         25    2    1    2    0    0  0.29130891278E+02 -0.37683326648E+02  0.95405315506E+02  0.16430616139E+03  0.12500279401E+03 0.  0.
         25    2    1    2    0    0 -0.29130891278E+02  0.37683326648E+02  0.25444709198E+03  0.28746386340E+03  0.12499403270E+03 0.  0.
          5    1    4    4  502    0 -0.15102469382E+02  0.82914700261E+02  0.13942752981E+03  0.16298790805E+03  0.47000000000E+01 0.  1.
         -5    1    4    4    0  502 -0.14028421896E+02 -0.45231373613E+02  0.11501956217E+03  0.12447595535E+03  0.47000000000E+01 0.  1.
          5    1    3    3  503    0  0.68702564984E+02  0.59297339605E+01  0.74536888708E+02  0.10165157135E+03  0.47000000000E+01 0. -1.
         -5    1    3    3    0  503 -0.39571673706E+02 -0.43613060608E+02  0.20868426798E+02  0.62654590036E+02  0.47000000000E+01 0. -1.
<mgrwt>
<rscale>  0 0.13376768E+03</rscale>
<asrwt>0</asrwt>
<pdfrwt beam="1">  1        5 0.61663265E-01 0.13376973E+03</pdfrwt>
<pdfrwt beam="2">  1       -5 0.78398166E-02 0.13376973E+03</pdfrwt>
<totfact> 0.21241149E+02</totfact>
</mgrwt>
</event>
<event>
 8    1  0.3488953E-007  0.2172010E+03  0.7546771E-02  0.1135988E+00
         -5   -1    0    0    0  501 -0.00000000000E+00  0.00000000000E+00  0.39560612685E+03  0.39563404504E+03  0.47000000000E+01 0. -1.
          5   -1    0    0  501    0  0.00000000000E+00 -0.00000000000E+00 -0.12352536306E+03  0.12361474556E+03  0.47000000000E+01 0. -1.
         25    2    1    2    0    0 -0.23635856843E+02  0.17604612916E+03  0.18477515555E+03  0.28516336222E+03  0.12500156687E+03 0.  0.
         25    2    1    2    0    0  0.23635856843E+02 -0.17604612916E+03  0.87305608226E+02  0.23408542839E+03  0.12499130063E+03 0.  0.
          5    1    4    4  502    0 -0.17886450649E+02 -0.50199719204E+02  0.86231125578E+02  0.10147824369E+03  0.47000000000E+01 0.  1.
         -5    1    4    4    0  502  0.41522307492E+02 -0.12584640996E+03  0.10744826482E+01  0.13260718469E+03  0.47000000000E+01 0.  1.
          5    1    3    3  503    0 -0.36813074523E+02  0.16452608425E+03  0.94994615804E+02  0.19357195532E+03  0.47000000000E+01 0. -1.
         -5    1    3    3    0  503  0.13177217680E+02  0.11520044916E+02  0.89780539751E+02  0.91591406904E+02  0.47000000000E+01 0. -1.
<mgrwt>
<rscale>  0 0.21719955E+03</rscale>
<asrwt>0</asrwt>
<pdfrwt beam="2">  1        5 0.19012925E-01 0.21720102E+03</pdfrwt>
<pdfrwt beam="1">  1       -5 0.60871504E-01 0.21720102E+03</pdfrwt>
<totfact> 0.51904789E+01</totfact>
</mgrwt>
</event>
<event>
 8    1  0.3488953E-007  0.1622239E+03  0.7546771E-02  0.1186215E+00
         -5   -1    0    0    0  501 -0.00000000000E+00  0.00000000000E+00  0.12999710364E+03  0.13008203932E+03  0.47000000000E+01 0. -1.
          5   -1    0    0  501    0  0.00000000000E+00 -0.00000000000E+00 -0.22803853668E+03  0.22808696633E+03  0.47000000000E+01 0. -1.
         25    2    1    2    0    0 -0.10210403837E+03  0.16377736057E+02  0.11210157058E+02  0.16258649626E+03  0.12496093891E+03 0.  0.
         25    2    1    2    0    0  0.10210403837E+03 -0.16377736057E+02 -0.10925159010E+03  0.19558250939E+03  0.12499257238E+03 0.  0.
          5    1    3    3  502    0 -0.20832365739E+02 -0.40360889941E+02  0.38440506159E+02  0.59688787999E+02  0.47000000000E+01 0.  1.
         -5    1    3    3    0  502 -0.81271672635E+02  0.56738625998E+02 -0.27230349100E+02  0.10289770826E+03  0.47000000000E+01 0.  1.
          5    1    4    4  503    0 -0.43359612907E+01 -0.80553529069E+01  0.23209519051E+02  0.25386237321E+02  0.47000000000E+01 0. -1.
         -5    1    4    4    0  503  0.10643999966E+03 -0.83223831504E+01 -0.13246110915E+03  0.17019627207E+03  0.47000000000E+01 0. -1.
<mgrwt>
<rscale>  0 0.16221785E+03</rscale>
<asrwt>0</asrwt>
<pdfrwt beam="2">  1        5 0.35093111E-01 0.16222394E+03</pdfrwt>
<pdfrwt beam="1">  1       -5 0.20009813E-01 0.16222394E+03</pdfrwt>
<totfact> 0.13873915E+02</totfact>
</mgrwt>
</event>
<event>
 8    1  0.3488953E-007  0.1460909E+03  0.7546771E-02  0.1205373E+00
          5   -1    0    0  501    0  0.00000000000E+00  0.00000000000E+00  0.88784646609E+02  0.88908961716E+02  0.47000000000E+01 0. -1.
         -5   -1    0    0    0  501 -0.00000000000E+00 -0.00000000000E+00 -0.38142472521E+03  0.38145368133E+03  0.47000000000E+01 0. -1.
         25    2    1    2    0    0 -0.75582648682E+02 -0.23453590923E+01 -0.28948002309E+03  0.32423759633E+03  0.12495238140E+03 0.  0.
         25    2    1    2    0    0  0.75582648682E+02  0.23453590923E+01 -0.31600555158E+01  0.14612504672E+03  0.12499722331E+03 0.  0.
          5    1    4    4  502    0  0.64695452314E+02  0.56659867384E+02  0.15443393183E+02  0.87501031509E+02  0.47000000000E+01 0. -1.
         -5    1    4    4    0  502  0.10887196368E+02 -0.54314508292E+02 -0.18603448698E+02  0.58624015209E+02  0.47000000000E+01 0. -1.
          5    1    3    3  503    0 -0.87634011784E+02  0.42581051064E+02 -0.21797274127E+03  0.23880341678E+03  0.47000000000E+01 0.  1.
         -5    1    3    3    0  503  0.12051363103E+02 -0.44926410156E+02 -0.71507281816E+02  0.85434179547E+02  0.47000000000E+01 0.  1.
<mgrwt>
<rscale>  0 0.14608128E+03</rscale>
<asrwt>0</asrwt>
<pdfrwt beam="1">  1        5 0.13670967E-01 0.14609087E+03</pdfrwt>
<pdfrwt beam="2">  1       -5 0.58692516E-01 0.14609087E+03</pdfrwt>
<totfact> 0.91968522E+01</totfact>
</mgrwt>
</event>
<event>
 8    1  0.3488953E-007  0.1670202E+03  0.7546771E-02  0.1180992E+00
         -5   -1    0    0    0  501 -0.00000000000E+00  0.00000000000E+00  0.60083352777E+03  0.60085191028E+03  0.47000000000E+01 0.  1.
          5   -1    0    0  501    0  0.00000000000E+00 -0.00000000000E+00 -0.46359129287E+02  0.46596768861E+02  0.47000000000E+01 0.  1.
         25    2    1    2    0    0  0.75423482547E+02  0.81119813818E+02  0.26472654155E+03  0.31301099517E+03  0.12500646136E+03 0.  0.
         25    2    1    2    0    0 -0.75423482547E+02 -0.81119813818E+02  0.28974785693E+03  0.33443768397E+03  0.12500247179E+03 0.  0.
          5    1    3    3  502    0  0.25518631875E+02  0.91835261665E+02  0.90937780455E+02  0.13182065761E+03  0.47000000000E+01 0.  1.
         -5    1    3    3    0  502  0.49904850671E+02 -0.10715447847E+02  0.17378876110E+03  0.18119033756E+03  0.47000000000E+01 0.  1.
          5    1    4    4  503    0 -0.14346738376E+02  0.32928983460E+02  0.47149363436E+02  0.59458383145E+02  0.47000000000E+01 0.  1.
         -5    1    4    4    0  503 -0.61076744170E+02 -0.11404879728E+03  0.24259849349E+03  0.27497930083E+03  0.47000000000E+01 0.  1.
<mgrwt>
<rscale>  0 0.16701944E+03</rscale>
<asrwt>0</asrwt>
<pdfrwt beam="2">  1        5 0.71518678E-02 0.16702018E+03</pdfrwt>
<pdfrwt beam="1">  1       -5 0.92455621E-01 0.16702018E+03</pdfrwt>
<totfact> 0.10538529E+02</totfact>
</mgrwt>
</event>
<event>
 8    1  0.3488953E-007  0.1387906E+03  0.7546771E-02  0.1214970E+00
          5   -1    0    0  501    0  0.00000000000E+00  0.00000000000E+00  0.16706756864E+03  0.16713366654E+03  0.47000000000E+01 0. -1.
         -5   -1    0    0    0  501 -0.00000000000E+00 -0.00000000000E+00 -0.12109988631E+03  0.12119105769E+03  0.47000000000E+01 0. -1.
         25    2    1    2    0    0  0.42825862357E+02 -0.42474659852E+02  0.54913752599E+02  0.14924608307E+03  0.12498288631E+03 0.  0.
         25    2    1    2    0    0 -0.42825862357E+02  0.42474659852E+02 -0.89460702695E+01  0.13907864116E+03  0.12499874014E+03 0.  0.
          5    1    3    3  502    0  0.17560802550E+02 -0.61650441140E+02  0.84126120319E+02  0.10586998063E+03  0.47000000000E+01 0. -1.
         -5    1    3    3    0  502  0.25265059807E+02  0.19175781288E+02 -0.29212367720E+02  0.43376102440E+02  0.47000000000E+01 0. -1.
          5    1    4    4  503    0 -0.56100325538E+02 -0.22496607703E+02 -0.32203944660E+02  0.68647854557E+02  0.47000000000E+01 0. -1.
         -5    1    4    4    0  503  0.13274463180E+02  0.64971267555E+02  0.23257874391E+02  0.70430786604E+02  0.47000000000E+01 0. -1.
<mgrwt>
<rscale>  0 0.13878705E+03</rscale>
<asrwt>0</asrwt>
<pdfrwt beam="1">  1        5 0.25714800E-01 0.13879062E+03</pdfrwt>
<pdfrwt beam="2">  1       -5 0.18642849E-01 0.13879062E+03</pdfrwt>
<totfact> 0.27715937E+02</totfact>
</mgrwt>
</event>
<event>
 8    1  0.3488953E-007  0.1411795E+03  0.7546771E-02  0.1211752E+00
          5   -1    0    0  501    0  0.00000000000E+00  0.00000000000E+00  0.50112442454E+03  0.50114646449E+03  0.47000000000E+01 0. -1.
         -5   -1    0    0    0  501 -0.00000000000E+00 -0.00000000000E+00 -0.39612334826E+02  0.39890187646E+02  0.47000000000E+01 0. -1.
         25    2    1    2    0    0  0.27295652148E+02  0.59688389325E+02  0.22920852564E+03  0.26919916147E+03  0.12499553538E+03 0.  0.
         25    2    1    2    0    0 -0.27295652148E+02 -0.59688389325E+02  0.23230356408E+03  0.27183749067E+03  0.12499167573E+03 0.  0.
          5    1    3    3  502    0  0.72527109754E+02  0.61965241789E+02  0.16070940104E+03  0.18694778528E+03  0.47000000000E+01 0. -1.
         -5    1    3    3    0  502 -0.45231457606E+02 -0.22768524632E+01  0.68499124593E+02  0.82251376185E+02  0.47000000000E+01 0. -1.
          5    1    4    4  503    0  0.73283686993E+01 -0.91586258947E+02  0.13154297273E+03  0.16052224610E+03  0.47000000000E+01 0. -1.
         -5    1    4    4    0  503 -0.34624020847E+02  0.31897869621E+02  0.10076059134E+03  0.11131524457E+03  0.47000000000E+01 0. -1.
<mgrwt>
<rscale>  0 0.14117861E+03</rscale>
<asrwt>0</asrwt>
<pdfrwt beam="1">  1        5 0.77119135E-01 0.14117946E+03</pdfrwt>
<pdfrwt beam="2">  1       -5 0.61172739E-02 0.14117946E+03</pdfrwt>
<totfact> 0.19934819E+02</totfact>
</mgrwt>
</event>
<event>
 8    1  0.3488953E-007  0.1347556E+03  0.7546771E-02  0.1220565E+00
         -5   -1    0    0    0  501 -0.00000000000E+00  0.00000000000E+00  0.12663536870E+03  0.12672255761E+03  0.47000000000E+01 0.  1.
          5   -1    0    0  501    0  0.00000000000E+00 -0.00000000000E+00 -0.14332204415E+03  0.14339908765E+03  0.47000000000E+01 0.  1.
         25    2    1    2    0    0  0.31780071734E+02 -0.39057739407E+02 -0.11938490471E+02  0.13528243650E+03  0.12499332024E+03 0.  0.
         25    2    1    2    0    0 -0.31780071734E+02  0.39057739407E+02 -0.47481849772E+01  0.13483920876E+03  0.12499434784E+03 0.  0.
          5    1    3    3  502    0  0.21926798456E+02  0.13846127265E+02  0.47897863378E+02  0.54669873303E+02  0.47000000000E+01 0.  1.
         -5    1    3    3    0  502  0.98532732784E+01 -0.52903866672E+02 -0.59836353849E+02  0.80612563197E+02  0.47000000000E+01 0.  1.
          5    1    4    4  503    0 -0.21106381814E+02  0.40151472924E+01 -0.62517547546E+02  0.66273180943E+02  0.47000000000E+01 0. -1.
         -5    1    4    4    0  503 -0.10673689921E+02  0.35042592115E+02  0.57769362569E+02  0.68566027815E+02  0.47000000000E+01 0. -1.
<mgrwt>
<rscale>  0 0.13475534E+03</rscale>
<asrwt>0</asrwt>
<pdfrwt beam="2">  1        5 0.22062178E-01 0.13475558E+03</pdfrwt>
<pdfrwt beam="1">  1       -5 0.19494998E-01 0.13475558E+03</pdfrwt>
<totfact> 0.33808151E+02</totfact>
</mgrwt>
</event>
<event>
 8    1  0.3488953E-007  0.1297699E+03  0.7546771E-02  0.1227799E+00
         -5   -1    0    0    0  501 -0.00000000000E+00  0.00000000000E+00  0.50895129677E+02  0.51111683838E+02  0.47000000000E+01 0.  1.
          5   -1    0    0  501    0  0.00000000000E+00 -0.00000000000E+00 -0.34297400805E+03  0.34300621014E+03  0.47000000000E+01 0.  1.
         25    2    1    2    0    0 -0.17322071288E+02  0.30279545568E+02 -0.10763136433E+03  0.16859382495E+03  0.12498984834E+03 0.  0.
         25    2    1    2    0    0  0.17322071288E+02 -0.30279545568E+02 -0.18444751404E+03  0.22552406903E+03  0.12499326079E+03 0.  0.
          5    1    4    4  502    0 -0.34900553921E+02  0.32326445644E+02 -0.60770109272E+02  0.77318457906E+02  0.47000000000E+01 0. -1.
         -5    1    4    4    0  502  0.52222625209E+02 -0.62605991212E+02 -0.12367740477E+03  0.14820561113E+03  0.47000000000E+01 0. -1.
          5    1    3    3  503    0  0.74729237979E+01  0.13313303620E+02  0.26563420197E+02  0.30996676208E+02  0.47000000000E+01 0.  1.
         -5    1    3    3    0  503 -0.24794995086E+02  0.16966241948E+02 -0.13419478453E+03  0.13759714874E+03  0.47000000000E+01 0.  1.
<mgrwt>
<rscale>  0 0.12976905E+03</rscale>
<asrwt>0</asrwt>
<pdfrwt beam="2">  1        5 0.52784366E-01 0.12976987E+03</pdfrwt>
<pdfrwt beam="1">  1       -5 0.78491553E-02 0.12976987E+03</pdfrwt>
<totfact> 0.29372744E+02</totfact>
</mgrwt>
</event>
<event>
 8    1  0.3488953E-007  0.1324584E+03  0.7546771E-02  0.1223854E+00
          5   -1    0    0  501    0  0.00000000000E+00  0.00000000000E+00  0.14557271129E+03  0.14564856426E+03  0.47000000000E+01 0.  1.
         -5   -1    0    0    0  501 -0.00000000000E+00 -0.00000000000E+00 -0.12947630997E+03  0.12956158707E+03  0.47000000000E+01 0.  1.
         25    2    1    2    0    0 -0.41354764395E+02 -0.14497739493E+02 -0.28420794980E+02  0.13547312124E+03  0.12499929601E+03 0.  0.
         25    2    1    2    0    0  0.41354764395E+02  0.14497739493E+02  0.44517196292E+02  0.13973703009E+03  0.12499702327E+03 0.  0.
          5    1    4    4  502    0  0.19166346689E+02  0.29657293306E+02 -0.38440635189E+02  0.52408742833E+02  0.47000000000E+01 0. -1.
         -5    1    4    4    0  502  0.22188417705E+02 -0.15159553813E+02  0.82957831481E+02  0.87328287261E+02  0.47000000000E+01 0. -1.
          5    1    3    3  503    0  0.24489411820E+02 -0.12547012854E+02  0.34416801895E+02  0.44314389034E+02  0.47000000000E+01 0.  1.
         -5    1    3    3    0  503 -0.65844176214E+02 -0.19507266384E+01 -0.62837596875E+02  0.91158732203E+02  0.47000000000E+01 0.  1.
<mgrwt>
<rscale>  0 0.13245785E+03</rscale>
<asrwt>0</asrwt>
<pdfrwt beam="1">  1        5 0.22408196E-01 0.13245839E+03</pdfrwt>
<pdfrwt beam="2">  1       -5 0.19931827E-01 0.13245839E+03</pdfrwt>
<totfact> 0.31314585E+02</totfact>
</mgrwt>
</event>
<event>
 8    1  0.3488953E-007  0.1680141E+03  0.7546771E-02  0.1179942E+00
          5   -1    0    0  501    0  0.00000000000E+00  0.00000000000E+00  0.66520363394E+03  0.66522023767E+03  0.47000000000E+01 0. -1.
         -5   -1    0    0    0  501 -0.00000000000E+00 -0.00000000000E+00 -0.44520336863E+02  0.44767738322E+02  0.47000000000E+01 0. -1.
         25    2    1    2    0    0 -0.14197808721E+02 -0.11132313290E+03  0.23095607523E+03  0.28558716912E+03  0.12499961915E+03 0.  0.
         25    2    1    2    0    0  0.14197808721E+02  0.11132313290E+03  0.38972722184E+03  0.42440080687E+03  0.12503727339E+03 0.  0.
          5    1    3    3  502    0 -0.58231082221E+02 -0.45939139132E+02  0.17095093662E+03  0.18640701749E+03  0.47000000000E+01 0.  1.
         -5    1    3    3    0  502  0.44033273500E+02 -0.65383993767E+02  0.60005138613E+02  0.99180151623E+02  0.47000000000E+01 0.  1.
          5    1    4    4  503    0 -0.16257488087E+02  0.74565307402E+02  0.78812891043E+02  0.10980825461E+03  0.47000000000E+01 0.  1.
         -5    1    4    4    0  503  0.30455296808E+02  0.36757825498E+02  0.31091433080E+03  0.31459255226E+03  0.47000000000E+01 0.  1.
<mgrwt>
<rscale>  0 0.16800709E+03</rscale>
<asrwt>0</asrwt>
<pdfrwt beam="1">  1        5 0.10235933E+00 0.16801410E+03</pdfrwt>
<pdfrwt beam="2">  1       -5 0.68695904E-02 0.16801410E+03</pdfrwt>
<totfact> 0.88314517E+01</totfact>
</mgrwt>
</event>
<event>
 8    1  0.3488953E-007  0.2248114E+03  0.7546771E-02  0.1130347E+00
         -5   -1    0    0    0  501 -0.00000000000E+00  0.00000000000E+00  0.29220304722E+03  0.29224084383E+03  0.47000000000E+01 0. -1.
          5   -1    0    0  501    0  0.00000000000E+00 -0.00000000000E+00 -0.17386985122E+03  0.17393336415E+03  0.47000000000E+01 0. -1.
         25    2    1    2    0    0  0.17557117599E+03  0.63945043004E+02  0.76756729412E+02  0.23755052293E+03  0.12499779627E+03 0.  0.
         25    2    1    2    0    0 -0.17557117599E+03 -0.63945043004E+02  0.41576466580E+02  0.22862368505E+03  0.12500392166E+03 0.  0.
          5    1    4    4  502    0 -0.16610198114E+02  0.31833365067E+02 -0.66463487974E+01  0.36817465492E+02  0.47000000000E+01 0. -1.
         -5    1    4    4    0  502 -0.15896097787E+03 -0.95778408072E+02  0.48222815377E+02  0.19180621956E+03  0.47000000000E+01 0. -1.
          5    1    3    3  503    0  0.10585415606E+03  0.95726855912E+02  0.24999124136E+02  0.14496820171E+03  0.47000000000E+01 0.  1.
         -5    1    3    3    0  503  0.69717019927E+02 -0.31781812908E+02  0.51757605276E+02  0.92582321223E+02  0.47000000000E+01 0.  1.
<mgrwt>
<rscale>  0 0.22481060E+03</rscale>
<asrwt>0</asrwt>
<pdfrwt beam="2">  1        5 0.26757001E-01 0.22481145E+03</pdfrwt>
<pdfrwt beam="1">  1       -5 0.44962108E-01 0.22481145E+03</pdfrwt>
<totfact> 0.52409076E+01</totfact>
</mgrwt>
</event>
<event>
 8    1  0.3488953E-007  0.1570550E+03  0.7546771E-02  0.1192063E+00
          5   -1    0    0  501    0  0.00000000000E+00  0.00000000000E+00  0.42832367391E+03  0.42834945970E+03  0.47000000000E+01 0. -1.
         -5   -1    0    0    0  501 -0.00000000000E+00 -0.00000000000E+00 -0.63973895892E+02  0.64146312096E+02  0.47000000000E+01 0. -1.
         25    2    1    2    0    0  0.27875466132E+02  0.90901492316E+02  0.10375060238E+03  0.18822978927E+03  0.12500457254E+03 0.  0.
         25    2    1    2    0    0 -0.27875466132E+02 -0.90901492316E+02  0.26059917564E+03  0.30426598253E+03  0.12500293944E+03 0.  0.
          5    1    3    3  502    0  0.69564455283E+02  0.86607414544E+02  0.55897046466E+02  0.12444527912E+03  0.47000000000E+01 0. -1.
         -5    1    3    3    0  502 -0.41688989151E+02  0.42940777720E+01  0.47853555913E+02  0.63784510141E+02  0.47000000000E+01 0. -1.
          5    1    4    4  503    0  0.42384831115E+02 -0.52284415017E+02  0.17160215601E+03  0.18438959816E+03  0.47000000000E+01 0. -1.
         -5    1    4    4    0  503 -0.70260297246E+02 -0.38617077299E+02  0.88997019624E+02  0.11987638437E+03  0.47000000000E+01 0. -1.
<mgrwt>
<rscale>  0 0.15705465E+03</rscale>
<asrwt>0</asrwt>
<pdfrwt beam="1">  1        5 0.65911193E-01 0.15705498E+03</pdfrwt>
<pdfrwt beam="2">  1       -5 0.98573846E-02 0.15705498E+03</pdfrwt>
<totfact> 0.12998979E+02</totfact>
</mgrwt>
</event>
<event>
 8    1  0.3488953E-007  0.1337833E+03  0.7546771E-02  0.1221951E+00
          5   -1    0    0  501    0  0.00000000000E+00  0.00000000000E+00  0.96688713983E+02  0.96802879150E+02  0.47000000000E+01 0.  1.
         -5   -1    0    0    0  501 -0.00000000000E+00 -0.00000000000E+00 -0.20342036017E+03  0.20347464936E+03  0.47000000000E+01 0.  1.
         25    2    1    2    0    0  0.38308291682E+01  0.47511823865E+02 -0.98719270170E+02  0.16626325968E+03  0.12500371417E+03 0.  0.
         25    2    1    2    0    0 -0.38308291682E+01 -0.47511823865E+02 -0.80123760219E+01  0.13401426883E+03  0.12499430956E+03 0.  0.
          5    1    4    4  502    0 -0.12734844468E+02 -0.88559000915E+02  0.51695020507E+01  0.89742334816E+02  0.47000000000E+01 0.  1.
         -5    1    4    4    0  502  0.89040153000E+01  0.41047177050E+02 -0.13181878073E+02  0.44271934019E+02  0.47000000000E+01 0.  1.
          5    1    3    3  503    0 -0.39712417935E+02 -0.16314855332E+02 -0.31877288449E+01  0.43307069376E+02  0.47000000000E+01 0. -1.
         -5    1    3    3    0  503  0.43543247103E+02  0.63826679197E+02 -0.95531541325E+02  0.12295619030E+03  0.47000000000E+01 0. -1.
<mgrwt>
<rscale>  0 0.13378112E+03</rscale>
<asrwt>0</asrwt>
<pdfrwt beam="1">  1        5 0.14888145E-01 0.13378332E+03</pdfrwt>
<pdfrwt beam="2">  1       -5 0.31308398E-01 0.13378332E+03</pdfrwt>
<totfact> 0.28149898E+02</totfact>
</mgrwt>
</event>
<event>
 8    1  0.3488953E-007  0.1351114E+03  0.7546771E-02  0.1220081E+00
          5   -1    0    0  501    0  0.00000000000E+00  0.00000000000E+00  0.60874669662E+03  0.60876484019E+03  0.47000000000E+01 0. -1.
         -5   -1    0    0    0  501 -0.00000000000E+00 -0.00000000000E+00 -0.37976270428E+02  0.38266004699E+02  0.47000000000E+01 0. -1.
         25    2    1    2    0    0 -0.45626397722E+02  0.23123060679E+02  0.13567297251E+03  0.19143795891E+03  0.12499957015E+03 0.  0.
         25    2    1    2    0    0  0.45626397722E+02 -0.23123060679E+02  0.43509745368E+03  0.45559288597E+03  0.12505454588E+03 0.  0.
          5    1    3    3  502    0 -0.83501341641E+01 -0.45300884310E+02  0.16862087531E+02  0.49277934776E+02  0.47000000000E+01 0. -1.
         -5    1    3    3    0  502 -0.37276263558E+02  0.68423944989E+02  0.11881088498E+03  0.14216002414E+03  0.47000000000E+01 0. -1.
          5    1    4    4  503    0  0.51809938159E+02 -0.50889964469E+02  0.12877134097E+03  0.14791283390E+03  0.47000000000E+01 0.  1.
         -5    1    4    4    0  503 -0.61835404375E+01  0.27766903791E+02  0.30632611271E+03  0.30768005207E+03  0.47000000000E+01 0.  1.
<mgrwt>
<rscale>  0 0.13509865E+03</rscale>
<asrwt>0</asrwt>
<pdfrwt beam="1">  1        5 0.93677008E-01 0.13511137E+03</pdfrwt>
<pdfrwt beam="2">  1       -5 0.58661869E-02 0.13511137E+03</pdfrwt>
<totfact> 0.13365664E+02</totfact>
</mgrwt>
</event>
<event>
 8    1  0.3488953E-007  0.1443792E+03  0.7546771E-02  0.1207558E+00
          5   -1    0    0  501    0  0.00000000000E+00  0.00000000000E+00  0.28838370026E+02  0.29218856681E+02  0.47000000000E+01 0. -1.
         -5   -1    0    0    0  501 -0.00000000000E+00 -0.00000000000E+00 -0.72930203389E+03  0.72931717835E+03  0.47000000000E+01 0. -1.
         25    2    1    2    0    0  0.27670203999E+02 -0.66738786503E+02 -0.39811895010E+03  0.42348727816E+03  0.12499228185E+03 0.  0.
         25    2    1    2    0    0 -0.27670203999E+02  0.66738786503E+02 -0.30234471376E+03  0.33504875687E+03  0.12500255087E+03 0.  0.
          5    1    4    4  502    0 -0.36168285838E+02 -0.51378313761E+01 -0.22883761204E+03  0.23178283996E+03  0.47000000000E+01 0. -1.
         -5    1    4    4    0  502  0.84980818392E+01  0.71876617879E+02 -0.73507101719E+02  0.10326591691E+03  0.47000000000E+01 0. -1.
          5    1    3    3  503    0  0.73178187766E+02 -0.55589908617E+02 -0.20491226478E+03  0.22462504616E+03  0.47000000000E+01 0. -1.
         -5    1    3    3    0  503 -0.45507983767E+02 -0.11148877886E+02 -0.19320668532E+03  0.19886223200E+03  0.47000000000E+01 0. -1.
<mgrwt>
<rscale>  0 0.14437694E+03</rscale>
<asrwt>0</asrwt>
<pdfrwt beam="1">  1        5 0.44671060E-02 0.14437917E+03</pdfrwt>
<pdfrwt beam="2">  1       -5 0.11223073E+00 0.14437917E+03</pdfrwt>
<totfact> 0.13800629E+02</totfact>
</mgrwt>
</event>
<event>
 8    1  0.3488953E-007  0.1255778E+03  0.7546771E-02  0.1234174E+00
          5   -1    0    0  501    0  0.00000000000E+00  0.00000000000E+00  0.32352711690E+03  0.32356125443E+03  0.47000000000E+01 0.  1.
         -5   -1    0    0    0  501 -0.00000000000E+00 -0.00000000000E+00 -0.50097659270E+02  0.50317645656E+02  0.47000000000E+01 0.  1.
         25    2    1    2    0    0  0.10156286735E+02 -0.64452287415E+01  0.10435703562E+03  0.16327941649E+03  0.12500034332E+03 0.  0.
         25    2    1    2    0    0 -0.10156286735E+02  0.64452287415E+01  0.16907242201E+03  0.21059948360E+03  0.12498786931E+03 0.  0.
          5    1    3    3  502    0  0.16482542894E+02  0.29226516927E+02 -0.16022304809E+02  0.37478897574E+02  0.47000000000E+01 0. -1.
         -5    1    3    3    0  502 -0.63262561591E+01 -0.35671745669E+02  0.12037934043E+03  0.12580051891E+03  0.47000000000E+01 0. -1.
          5    1    4    4  503    0  0.23347086527E+02 -0.39643808548E+02  0.18987011683E+02  0.49993145711E+02  0.47000000000E+01 0. -1.
         -5    1    4    4    0  503 -0.33503373262E+02  0.46089037289E+02  0.15008541032E+03  0.16060633789E+03  0.47000000000E+01 0. -1.
<mgrwt>
<rscale>  0 0.12557467E+03</rscale>
<asrwt>0</asrwt>
<pdfrwt beam="1">  1        5 0.49792950E-01 0.12557777E+03</pdfrwt>
<pdfrwt beam="2">  1       -5 0.77268803E-02 0.12557777E+03</pdfrwt>
<totfact> 0.33747338E+02</totfact>
</mgrwt>
</event>
<event>
 8    1  0.3488953E-007  0.1343246E+03  0.7546771E-02  0.1221177E+00
          5   -1    0    0  501    0  0.00000000000E+00  0.00000000000E+00  0.22227113110E+03  0.22232081711E+03  0.47000000000E+01 0.  1.
         -5   -1    0    0    0  501 -0.00000000000E+00 -0.00000000000E+00 -0.10182163099E+03  0.10193004727E+03  0.47000000000E+01 0.  1.
         25    2    1    2    0    0  0.48709655783E+02 -0.66547079147E+01 -0.12944008567E+02  0.13494439830E+03  0.12500211026E+03 0.  0.
         25    2    1    2    0    0 -0.48709655783E+02  0.66547079147E+01  0.13339350868E+03  0.18930646608E+03  0.12500477687E+03 0.  0.
          5    1    4    4  502    0 -0.34271083414E+02 -0.16434329060E+01  0.15658616868E+03  0.16036996680E+03  0.47000000000E+01 0.  1.
         -5    1    4    4    0  502 -0.14438572369E+02  0.82981408206E+01 -0.23192659997E+02  0.28936499285E+02  0.47000000000E+01 0.  1.
          5    1    3    3  503    0  0.41390748635E+02  0.12826844652E+02  0.51261395552E+02  0.67287017249E+02  0.47000000000E+01 0. -1.
         -5    1    3    3    0  503  0.73189071485E+01 -0.19481552567E+02 -0.64205404119E+02  0.67657381049E+02  0.47000000000E+01 0. -1.
<mgrwt>
<rscale>  0 0.13432402E+03</rscale>
<asrwt>0</asrwt>
<pdfrwt beam="1">  1        5 0.34207720E-01 0.13432464E+03</pdfrwt>
<pdfrwt beam="2">  1       -5 0.15677028E-01 0.13432464E+03</pdfrwt>
<totfact> 0.21531935E+02</totfact>
</mgrwt>
</event>
<event>
 8    1  0.3488953E-007  0.1441294E+03  0.7546771E-02  0.1207879E+00
          5   -1    0    0  501    0  0.00000000000E+00  0.00000000000E+00  0.50925785968E+02  0.51142210320E+02  0.47000000000E+01 0. -1.
         -5   -1    0    0    0  501 -0.00000000000E+00 -0.00000000000E+00 -0.40734923817E+03  0.40737635160E+03  0.47000000000E+01 0. -1.
         25    2    1    2    0    0 -0.60608439765E+02  0.38437945063E+02 -0.18655452808E+03  0.23574348329E+03  0.12498615674E+03 0.  0.
         25    2    1    2    0    0  0.60608439765E+02 -0.38437945063E+02 -0.16986892412E+03  0.22277507862E+03  0.12498970230E+03 0.  0.
          5    1    3    3  502    0 -0.60373001750E+02  0.73193622221E+02 -0.82098726857E+02  0.12555674664E+03  0.47000000000E+01 0.  1.
         -5    1    3    3    0  502 -0.23543801523E+00 -0.34755677158E+02 -0.10445580122E+03  0.11018673666E+03  0.47000000000E+01 0.  1.
          5    1    4    4  503    0 -0.26996231581E+02 -0.36575839098E+02 -0.21748598703E+02  0.50613042498E+02  0.47000000000E+01 0.  1.
         -5    1    4    4    0  503  0.87604671347E+02 -0.18621059645E+01 -0.14812032542E+03  0.17216203612E+03  0.47000000000E+01 0.  1.
<mgrwt>
<rscale>  0 0.14412863E+03</rscale>
<asrwt>0</asrwt>
<pdfrwt beam="1">  1        5 0.78534703E-02 0.14412940E+03</pdfrwt>
<pdfrwt beam="2">  1       -5 0.62687845E-01 0.14412940E+03</pdfrwt>
<totfact> 0.20937587E+02</totfact>
</mgrwt>
</event>
<event>
 8    1  0.3488953E-007  0.1419942E+03  0.7546771E-02  0.1210672E+00
         -5   -1    0    0    0  501 -0.00000000000E+00  0.00000000000E+00  0.36494249140E+03  0.36497275518E+03  0.47000000000E+01 0. -1.
          5   -1    0    0  501    0  0.00000000000E+00 -0.00000000000E+00 -0.75144022310E+02  0.75290863249E+02  0.47000000000E+01 0. -1.
         25    2    1    2    0    0 -0.48672247643E+02 -0.46550935125E+02  0.25839701702E+03  0.29483869100E+03  0.12499943223E+03 0.  0.
         25    2    1    2    0    0  0.48672247643E+02  0.46550935125E+02  0.31401452071E+02  0.14542492743E+03  0.12500552418E+03 0.  0.
          5    1    3    3  502    0 -0.41306617345E+02  0.32445870802E+02  0.15932868969E+03  0.16782935538E+03  0.47000000000E+01 0.  1.
         -5    1    3    3    0  502 -0.73656302986E+01 -0.78996805927E+02  0.99068327324E+02  0.12700933562E+03  0.47000000000E+01 0.  1.
          5    1    4    4  503    0 -0.41512539455E+02  0.17095627757E+02 -0.73597159899E+00  0.45146240980E+02  0.47000000000E+01 0.  1.
         -5    1    4    4    0  503  0.90184787099E+02  0.29455307368E+02  0.32137423670E+02  0.10027868645E+03  0.47000000000E+01 0.  1.
<mgrwt>
<rscale>  0 0.14199288E+03</rscale>
<asrwt>0</asrwt>
<pdfrwt beam="2">  1        5 0.11574242E-01 0.14199422E+03</pdfrwt>
<pdfrwt beam="1">  1       -5 0.56158621E-01 0.14199422E+03</pdfrwt>
<totfact> 0.13494369E+02</totfact>
</mgrwt>
</event>
<event>
 8    1  0.3488953E-007  0.1687609E+03  0.7546771E-02  0.1179148E+00
          5   -1    0    0  501    0  0.00000000000E+00  0.00000000000E+00  0.11631997499E+04  0.11632092453E+04  0.47000000000E+01 0.  1.
         -5   -1    0    0    0  501 -0.00000000000E+00 -0.00000000000E+00 -0.27624119933E+02  0.28021099230E+02  0.47000000000E+01 0.  1.
         25    2    1    2    0    0 -0.10813975053E+03 -0.34054824142E+02  0.36119117303E+03  0.39867194231E+03  0.12500526956E+03 0.  0.
         25    2    1    2    0    0  0.10813975053E+03  0.34054824142E+02  0.77438445699E+03  0.79255840219E+03  0.12499438774E+03 0.  0.
          5    1    4    4  502    0  0.12600856057E+03  0.18788776536E+02  0.73838616367E+03  0.74931127855E+03  0.47000000000E+01 0.  1.
         -5    1    4    4    0  502 -0.17868810035E+02  0.15266047606E+02  0.35998293318E+02  0.43247123643E+02  0.47000000000E+01 0.  1.
          5    1    3    3  503    0  0.26215585005E+02 -0.39096876310E+01  0.97616570883E+02  0.10126019685E+03  0.47000000000E+01 0.  1.
         -5    1    3    3    0  503 -0.13435533554E+03 -0.30145136511E+02  0.26357460215E+03  0.29741174546E+03  0.47000000000E+01 0.  1.
<mgrwt>
<rscale>  0 0.16875892E+03</rscale>
<asrwt>0</asrwt>
<pdfrwt beam="1">  1        5 0.17898504E+00 0.16876094E+03</pdfrwt>
<pdfrwt beam="2">  1       -5 0.42811326E-02 0.16876094E+03</pdfrwt>
<totfact> 0.43934520E+01</totfact>
</mgrwt>
</event>
<event>
 8    1  0.3488953E-007  0.1342430E+03  0.7546771E-02  0.1221297E+00
          5   -1    0    0  501    0  0.00000000000E+00  0.00000000000E+00  0.16736489976E+02  0.17383903379E+02  0.47000000000E+01 0.  1.
         -5   -1    0    0    0  501 -0.00000000000E+00 -0.00000000000E+00 -0.10563957762E+04  0.10564062315E+04  0.47000000000E+01 0.  1.
         25    2    1    2    0    0 -0.42153763376E+01  0.48775243692E+02 -0.50483441864E+03  0.52237819783E+03  0.12499759008E+03 0.  0.
         25    2    1    2    0    0  0.42153763376E+01 -0.48775243692E+02 -0.53482486756E+03  0.55141193704E+03  0.12498276503E+03 0.  0.
          5    1    3    3  502    0 -0.81241254940E+01  0.35650372747E+02 -0.50646781699E+03  0.50780772949E+03  0.47000000000E+01 0.  1.
         -5    1    3    3    0  502  0.39087491565E+01  0.13124870944E+02  0.16333983448E+01  0.14570468333E+02  0.47000000000E+01 0.  1.
          5    1    4    4  503    0  0.45848457012E+02 -0.33651497023E+02 -0.10693024283E+03  0.12120507866E+03  0.47000000000E+01 0.  1.
         -5    1    4    4    0  503 -0.41633080674E+02 -0.15123746669E+02 -0.42789462473E+03  0.43020685838E+03  0.47000000000E+01 0.  1.
<mgrwt>
<rscale>  0 0.13423958E+03</rscale>
<asrwt>0</asrwt>
<pdfrwt beam="1">  1        5 0.26254507E-02 0.13424303E+03</pdfrwt>
<pdfrwt beam="2">  1       -5 0.16257298E+00 0.13424303E+03</pdfrwt>
<totfact> 0.12025239E+02</totfact>
</mgrwt>
</event>
<event>
 8    1  0.3488953E-007  0.1339512E+03  0.7546771E-02  0.1221709E+00
         -5   -1    0    0    0  501 -0.00000000000E+00  0.00000000000E+00  0.58001468189E+03  0.58003372420E+03  0.47000000000E+01 0.  1.
          5   -1    0    0  501    0  0.00000000000E+00 -0.00000000000E+00 -0.31208152809E+02  0.31560082411E+02  0.47000000000E+01 0.  1.
         25    2    1    2    0    0  0.47135519951E+02 -0.97750784665E+01  0.31177224282E+03  0.33932999729E+03  0.12500242505E+03 0.  0.
         25    2    1    2    0    0 -0.47135519951E+02  0.97750784665E+01  0.23703428626E+03  0.27226380932E+03  0.12500007841E+03 0.  0.
          5    1    3    3  502    0  0.89200558022E+01  0.52466964951E+02  0.18891774016E+03  0.19632715643E+03  0.47000000000E+01 0. -1.
         -5    1    3    3    0  502  0.38215464149E+02 -0.62242043418E+02  0.12285450266E+03  0.14300284086E+03  0.47000000000E+01 0. -1.
          5    1    4    4  503    0 -0.89882370660E+01 -0.54264343614E+02  0.68905297111E+02  0.88291774042E+02  0.47000000000E+01 0. -1.
         -5    1    4    4    0  503 -0.38147282885E+02  0.64039422080E+02  0.16812898915E+03  0.18397203528E+03  0.47000000000E+01 0. -1.
<mgrwt>
<rscale>  0 0.13395062E+03</rscale>
<asrwt>0</asrwt>
<pdfrwt beam="2">  1        5 0.48297906E-02 0.13395117E+03</pdfrwt>
<pdfrwt beam="1">  1       -5 0.89261564E-01 0.13395117E+03</pdfrwt>
<totfact> 0.20671577E+02</totfact>
</mgrwt>
</event>
<event>
 8    1  0.3488953E-007  0.1401114E+03  0.7546771E-02  0.1213180E+00
         -5   -1    0    0    0  501 -0.00000000000E+00  0.00000000000E+00  0.58930522962E+03  0.58932397174E+03  0.47000000000E+01 0.  1.
          5   -1    0    0  501    0  0.00000000000E+00 -0.00000000000E+00 -0.41154190532E+02  0.41421702022E+02  0.47000000000E+01 0.  1.
         25    2    1    2    0    0  0.51059950319E+02 -0.37416792552E+02  0.41282618755E+03  0.43595487702E+03  0.12499623506E+03 0.  0.
         25    2    1    2    0    0 -0.51059950319E+02  0.37416792552E+02  0.13532485154E+03  0.19479079674E+03  0.12499401648E+03 0.  0.
          5    1    3    3  502    0  0.84081583956E+02 -0.49173288070E+02  0.23132026251E+03  0.25103561275E+03  0.47000000000E+01 0.  1.
         -5    1    3    3    0  502 -0.33021633636E+02  0.11756495518E+02  0.18150592503E+03  0.18491926427E+03  0.47000000000E+01 0.  1.
          5    1    4    4  503    0 -0.87496647708E+02  0.32365967259E+01  0.68743737955E+02  0.11141781916E+03  0.47000000000E+01 0. -1.
         -5    1    4    4    0  503  0.36436697389E+02  0.34180195826E+02  0.66581113590E+02  0.83372977578E+02  0.47000000000E+01 0. -1.
<mgrwt>
<rscale>  0 0.14011087E+03</rscale>
<asrwt>0</asrwt>
<pdfrwt beam="2">  1        5 0.63534331E-02 0.14011136E+03</pdfrwt>
<pdfrwt beam="1">  1       -5 0.90684368E-01 0.14011136E+03</pdfrwt>
<totfact> 0.12776361E+02</totfact>
</mgrwt>
</event>
<event>
 8    1  0.3488953E-007  0.1286548E+03  0.7546771E-02  0.1229469E+00
          5   -1    0    0  501    0  0.00000000000E+00  0.00000000000E+00  0.33582706491E+03  0.33585995225E+03  0.47000000000E+01 0.  1.
         -5   -1    0    0    0  501 -0.00000000000E+00 -0.00000000000E+00 -0.71057185833E+02  0.71212454378E+02  0.47000000000E+01 0.  1.
         25    2    1    2    0    0  0.86536113167E+01  0.29184162043E+02  0.19508600969E+02  0.13011547545E+03  0.12499140425E+03 0.  0.
         25    2    1    2    0    0 -0.86536113167E+01 -0.29184162043E+02  0.24526127811E+03  0.27695693117E+03  0.12500178753E+03 0.  0.
          5    1    4    4  502    0 -0.40662469486E+02 -0.14338065467E+02  0.18055780173E+02  0.46979971729E+02  0.47000000000E+01 0.  1.
         -5    1    4    4    0  502  0.32008858169E+02 -0.14846096576E+02  0.22720549793E+03  0.22997695944E+03  0.47000000000E+01 0.  1.
          5    1    3    3  503    0  0.14559841116E+02 -0.47596986102E+02 -0.19566591453E+01  0.50033794322E+02  0.47000000000E+01 0.  1.
         -5    1    3    3    0  503 -0.59062297988E+01  0.76781148144E+02  0.21465260114E+02  0.80081681130E+02  0.47000000000E+01 0.  1.
<mgrwt>
<rscale>  0 0.12865224E+03</rscale>
<asrwt>0</asrwt>
<pdfrwt beam="1">  1        5 0.51680175E-01 0.12865476E+03</pdfrwt>
<pdfrwt beam="2">  1       -5 0.10946348E-01 0.12865476E+03</pdfrwt>
<totfact> 0.17214794E+02</totfact>
</mgrwt>
</event>
<event>
 8    1  0.3488953E-007  0.1494497E+03  0.7546771E-02  0.1201155E+00
          5   -1    0    0  501    0  0.00000000000E+00  0.00000000000E+00  0.60257809455E+03  0.60259642384E+03  0.47000000000E+01 0.  1.
         -5   -1    0    0    0  501 -0.00000000000E+00 -0.00000000000E+00 -0.36950548571E+02  0.37248262237E+02  0.47000000000E+01 0.  1.
         25    2    1    2    0    0  0.21440425532E+02  0.79040167327E+02  0.27045395218E+03  0.30899928287E+03  0.12501270601E+03 0.  0.
         25    2    1    2    0    0 -0.21440425532E+02 -0.79040167327E+02  0.29517359379E+03  0.33084540321E+03  0.12499676178E+03 0.  0.
          5    1    4    4  502    0 -0.94955581111E+01 -0.10381053574E+03  0.14822547972E+03  0.18127238012E+03  0.47000000000E+01 0. -1.
         -5    1    4    4    0  502 -0.11944867421E+02  0.24770368414E+02  0.14694811407E+03  0.14957302309E+03  0.47000000000E+01 0. -1.
          5    1    3    3  503    0  0.26791837896E+02  0.57235251803E+02  0.27778195547E+03  0.28491855224E+03  0.47000000000E+01 0. -1.
         -5    1    3    3    0  503 -0.53514123643E+01  0.21804915524E+02 -0.73280032867E+01  0.24080730625E+02  0.47000000000E+01 0. -1.
<mgrwt>
<rscale>  0 0.14944638E+03</rscale>
<asrwt>0</asrwt>
<pdfrwt beam="1">  1        5 0.92728624E-01 0.14944971E+03</pdfrwt>
<pdfrwt beam="2">  1       -5 0.57090114E-02 0.14944971E+03</pdfrwt>
<totfact> 0.14806013E+02</totfact>
</mgrwt>
</event>
<event>
 8    1  0.3488953E-007  0.1271242E+03  0.7546771E-02  0.1231789E+00
         -5   -1    0    0    0  501 -0.00000000000E+00  0.00000000000E+00  0.18318948743E+03  0.18324977027E+03  0.47000000000E+01 0. -1.
          5   -1    0    0  501    0  0.00000000000E+00 -0.00000000000E+00 -0.14770622873E+03  0.14778098662E+03  0.47000000000E+01 0. -1.
         25    2    1    2    0    0  0.84144893955E+01 -0.21497220499E+02  0.12285025675E+03  0.17677912797E+03  0.12500296149E+03 0.  0.
         25    2    1    2    0    0 -0.84144893955E+01  0.21497220499E+02 -0.87366998051E+02  0.15425162892E+03  0.12501055377E+03 0.  0.
          5    1    4    4  502    0  0.11631255370E+02 -0.91874269537E+01 -0.10988445122E+03  0.11097917614E+03  0.47000000000E+01 0.  1.
         -5    1    4    4    0  502 -0.20045744766E+02  0.30684647453E+02  0.22517453170E+02  0.43272452782E+02  0.47000000000E+01 0.  1.
          5    1    3    3  503    0  0.35132637940E+02  0.42795779064E+02  0.69242959149E+02  0.88783209820E+02  0.47000000000E+01 0. -1.
         -5    1    3    3    0  503 -0.26718148544E+02 -0.64292999563E+02  0.53607297601E+02  0.87995918147E+02  0.47000000000E+01 0. -1.
<mgrwt>
<rscale>  0 0.12712237E+03</rscale>
<asrwt>0</asrwt>
<pdfrwt beam="2">  1        5 0.22734423E-01 0.12712424E+03</pdfrwt>
<pdfrwt beam="1">  1       -5 0.28193386E-01 0.12712424E+03</pdfrwt>
<totfact> 0.15523711E+02</totfact>
</mgrwt>
</event>
<event>
 8    1  0.3488953E-007  0.1275228E+03  0.7546771E-02  0.1231179E+00
         -5   -1    0    0    0  501 -0.00000000000E+00  0.00000000000E+00  0.30983086197E+02  0.31337543462E+02  0.47000000000E+01 0. -1.
          5   -1    0    0  501    0  0.00000000000E+00 -0.00000000000E+00 -0.53113221853E+03  0.53115301332E+03  0.47000000000E+01 0. -1.
         25    2    1    2    0    0 -0.11534770009E+00  0.25238282910E+02 -0.21223885637E+03  0.24760329400E+03  0.12500029926E+03 0.  0.
         25    2    1    2    0    0  0.11534770009E+00 -0.25238282910E+02 -0.28791027596E+03  0.31488726279E+03  0.12499870812E+03 0.  0.
          5    1    4    4  502    0  0.51965570737E+02 -0.44731402661E+02 -0.12353774603E+03  0.14136825535E+03  0.47000000000E+01 0.  1.
         -5    1    4    4    0  502 -0.51850223037E+02  0.19493119750E+02 -0.16437252993E+03  0.17351900743E+03  0.47000000000E+01 0.  1.
          5    1    3    3  503    0 -0.94582862442E+01  0.72346370073E+02 -0.16307422781E+03  0.17871415786E+03  0.47000000000E+01 0. -1.
         -5    1    3    3    0  503  0.93429385442E+01 -0.47108087163E+02 -0.49164628557E+02  0.68889136139E+02  0.47000000000E+01 0. -1.
<mgrwt>
<rscale>  0 0.12752239E+03</rscale>
<asrwt>0</asrwt>
<pdfrwt beam="2">  1        5 0.81741508E-01 0.12752278E+03</pdfrwt>
<pdfrwt beam="1">  1       -5 0.47954946E-02 0.12752278E+03</pdfrwt>
<totfact> 0.25266447E+02</totfact>
</mgrwt>
</event>
<event>
 8    1  0.3488953E-007  0.1301030E+03  0.7546771E-02  0.1227306E+00
          5   -1    0    0  501    0  0.00000000000E+00  0.00000000000E+00  0.22759330395E+03  0.22764182833E+03  0.47000000000E+01 0.  1.
         -5   -1    0    0    0  501 -0.00000000000E+00 -0.00000000000E+00 -0.75743682440E+02  0.75889363086E+02  0.47000000000E+01 0.  1.
         25    2    1    2    0    0 -0.80920384693E+01 -0.35101442059E+02  0.54549673733E+02  0.14106863427E+03  0.12500840111E+03 0.  0.
         25    2    1    2    0    0  0.80920384693E+01  0.35101442059E+02  0.97299947780E+02  0.16246255715E+03  0.12501684013E+03 0.  0.
          5    1    3    3  502    0  0.28951592686E+02 -0.70815000788E+02  0.21040838233E+02  0.79484375377E+02  0.47000000000E+01 0. -1.
         -5    1    3    3    0  502 -0.37043631155E+02  0.35713558728E+02  0.33508835501E+02  0.61584258888E+02  0.47000000000E+01 0. -1.
          5    1    4    4  503    0  0.23699891357E+02  0.49756066915E+02  0.11924309342E+03  0.13144716191E+03  0.47000000000E+01 0.  1.
         -5    1    4    4    0  503 -0.15607852888E+02 -0.14654624855E+02 -0.21943145639E+02  0.31015395241E+02  0.47000000000E+01 0.  1.
<mgrwt>
<rscale>  0 0.13010102E+03</rscale>
<asrwt>0</asrwt>
<pdfrwt beam="1">  1        5 0.35029293E-01 0.13010305E+03</pdfrwt>
<pdfrwt beam="2">  1       -5 0.11667813E-01 0.13010305E+03</pdfrwt>
<totfact> 0.34461103E+02</totfact>
</mgrwt>
</event>
<event>
 8    1  0.3488953E-007  0.1331600E+03  0.7546771E-02  0.1222869E+00
         -5   -1    0    0    0  501 -0.00000000000E+00  0.00000000000E+00  0.51067987478E+02  0.51283811725E+02  0.47000000000E+01 0. -1.
          5   -1    0    0  501    0  0.00000000000E+00 -0.00000000000E+00 -0.39042934611E+03  0.39045763446E+03  0.47000000000E+01 0. -1.
         25    2    1    2    0    0  0.34548348754E+02  0.30076310424E+02 -0.95193114044E+02  0.16362328116E+03  0.12495069557E+03 0.  0.
         25    2    1    2    0    0 -0.34548348754E+02 -0.30076310424E+02 -0.24416824459E+03  0.27811816503E+03  0.12503363228E+03 0.  0.
          5    1    4    4  502    0 -0.57481691384E+02 -0.58685459949E+02 -0.10109912225E+03  0.13035049126E+03  0.47000000000E+01 0.  1.
         -5    1    4    4    0  502  0.22933342631E+02  0.28609149525E+02 -0.14306912235E+03  0.14776767376E+03  0.47000000000E+01 0.  1.
          5    1    3    3  503    0  0.37693925754E+01  0.38548602138E+02  0.20107117349E+02  0.43892928990E+02  0.47000000000E+01 0. -1.
         -5    1    3    3    0  503  0.30778956178E+02 -0.84722917145E+01 -0.11530023139E+03  0.11973035217E+03  0.47000000000E+01 0. -1.
<mgrwt>
<rscale>  0 0.13314051E+03</rscale>
<asrwt>0</asrwt>
<pdfrwt beam="2">  1        5 0.60084829E-01 0.13315999E+03</pdfrwt>
<pdfrwt beam="1">  1       -5 0.78753916E-02 0.13315999E+03</pdfrwt>
<totfact> 0.22276108E+02</totfact>
</mgrwt>
</event>
<event>
 8    1  0.3488953E-007  0.1300156E+03  0.7546771E-02  0.1227433E+00
          5   -1    0    0  501    0  0.00000000000E+00  0.00000000000E+00  0.35197563007E+02  0.35509976649E+02  0.47000000000E+01 0.  1.
         -5   -1    0    0    0  501 -0.00000000000E+00 -0.00000000000E+00 -0.47857267742E+03  0.47859575591E+03  0.47000000000E+01 0.  1.
         25    2    1    2    0    0 -0.31890279770E+02  0.16210113049E+02 -0.21146149202E+03  0.24823362800E+03  0.12499685497E+03 0.  0.
         25    2    1    2    0    0  0.31890279770E+02 -0.16210113049E+02 -0.23191362239E+03  0.26587210456E+03  0.12499716006E+03 0.  0.
          5    1    4    4  502    0  0.41249216310E+02 -0.26347914515E+01 -0.93351020067E+01  0.42634189351E+02  0.47000000000E+01 0.  1.
         -5    1    4    4    0  502 -0.93589365396E+01 -0.13575321598E+02 -0.22257852038E+03  0.22323791521E+03  0.47000000000E+01 0.  1.
          5    1    3    3  503    0 -0.54470688556E+02 -0.36369235283E+02 -0.72167689006E+02  0.97570705252E+02  0.47000000000E+01 0. -1.
         -5    1    3    3    0  503  0.22580408786E+02  0.52579348332E+02 -0.13929380302E+03  0.15066292275E+03  0.47000000000E+01 0. -1.
<mgrwt>
<rscale>  0 0.13001549E+03</rscale>
<asrwt>0</asrwt>
<pdfrwt beam="1">  1        5 0.54408171E-02 0.13001557E+03</pdfrwt>
<pdfrwt beam="2">  1       -5 0.73652368E-01 0.13001557E+03</pdfrwt>
<totfact> 0.26204280E+02</totfact>
</mgrwt>
</event>
<event>
 8    1  0.3488953E-007  0.1749938E+03  0.7546771E-02  0.1172739E+00
          5   -1    0    0  501    0  0.00000000000E+00  0.00000000000E+00  0.73298017182E+01  0.87072379793E+01  0.47000000000E+01 0.  1.
         -5   -1    0    0    0  501 -0.00000000000E+00 -0.00000000000E+00 -0.38535702330E+04  0.38535730992E+04  0.47000000000E+01 0.  1.
         25    2    1    2    0    0  0.10382183285E+03  0.64944883298E+02 -0.21098906681E+04  0.21171352046E+04  0.12500413001E+03 0.  0.
         25    2    1    2    0    0 -0.10382183285E+03 -0.64944883298E+02 -0.17363497632E+04  0.17451451325E+04  0.12499689039E+03 0.  0.
          5    1    4    4  502    0 -0.10527181334E+03 -0.59772764624E+02 -0.83265991434E+03  0.84142709787E+03  0.47000000000E+01 0. -1.
         -5    1    4    4    0  502  0.14499804900E+01 -0.51721186741E+01 -0.90368984886E+03  0.90371803467E+03  0.47000000000E+01 0. -1.
          5    1    3    3  503    0  0.18484231376E+02 -0.34135400101E+02 -0.30295687429E+03  0.30546988400E+03  0.47000000000E+01 0. -1.
         -5    1    3    3    0  503  0.85337601476E+02  0.99080283399E+02 -0.18069337938E+04  0.18116653206E+04  0.47000000000E+01 0. -1.
<mgrwt>
<rscale>  0 0.17499255E+03</rscale>
<asrwt>0</asrwt>
<pdfrwt beam="1">  1        5 0.12338420E-02 0.17499384E+03</pdfrwt>
<pdfrwt beam="2">  1       -5 0.59296166E+00 0.17499384E+03</pdfrwt>
<totfact> 0.32600247E-01</totfact>
</mgrwt>
</event>
<event>
 8    1  0.3488953E-007  0.1611271E+03  0.7546771E-02  0.1187434E+00
         -5   -1    0    0    0  501 -0.00000000000E+00  0.00000000000E+00  0.10361409975E+03  0.10372064243E+03  0.47000000000E+01 0.  1.
          5   -1    0    0  501    0  0.00000000000E+00 -0.00000000000E+00 -0.25171385497E+03  0.25175773034E+03  0.47000000000E+01 0.  1.
         25    2    1    2    0    0  0.10027407688E+03 -0.16811742680E+02 -0.60658997768E+02  0.17216690772E+03  0.12499761964E+03 0.  0.
         25    2    1    2    0    0 -0.10027407688E+03  0.16811742680E+02 -0.87440757461E+02  0.18331146505E+03  0.12497872607E+03 0.  0.
          5    1    4    4  502    0  0.13564432379E+02  0.37587154957E+02 -0.37225545095E+01  0.40407121347E+02  0.47000000000E+01 0. -1.
         -5    1    4    4    0  502 -0.11383850926E+03 -0.20775412276E+02 -0.83718202952E+02  0.14290434371E+03  0.47000000000E+01 0. -1.
          5    1    3    3  503    0  0.56428538605E+02 -0.55292707862E+02  0.10715898539E+02  0.79864785690E+02  0.47000000000E+01 0.  1.
         -5    1    3    3    0  503  0.43845538271E+02  0.38480965182E+02 -0.71374896307E+02  0.92302122026E+02  0.47000000000E+01 0.  1.
<mgrwt>
<rscale>  0 0.16112340E+03</rscale>
<asrwt>0</asrwt>
<pdfrwt beam="2">  1        5 0.38736779E-01 0.16112706E+03</pdfrwt>
<pdfrwt beam="1">  1       -5 0.15952201E-01 0.16112706E+03</pdfrwt>
<totfact> 0.17231772E+02</totfact>
</mgrwt>
</event>
<event>
 8    1  0.3488953E-007  0.2007421E+03  0.7546771E-02  0.1149116E+00
          5   -1    0    0  501    0  0.00000000000E+00  0.00000000000E+00  0.66810072394E+03  0.66811725568E+03  0.47000000000E+01 0.  1.
         -5   -1    0    0    0  501 -0.00000000000E+00 -0.00000000000E+00 -0.75781497315E+02  0.75927105406E+02  0.47000000000E+01 0.  1.
         25    2    1    2    0    0  0.15643130029E+03  0.14121804433E+02  0.12769646113E+03  0.23791028078E+03  0.12499895378E+03 0.  0.
         25    2    1    2    0    0 -0.15643130029E+03 -0.14121804433E+02  0.46462276550E+03  0.50613408030E+03  0.12500886347E+03 0.  0.
          5    1    3    3  502    0  0.79739707608E+02 -0.55156927217E+02  0.67235752468E+02  0.11808236108E+03  0.47000000000E+01 0. -1.
         -5    1    3    3    0  502  0.76691592686E+02  0.69278731650E+02  0.60460708658E+02  0.11982791970E+03  0.47000000000E+01 0. -1.
          5    1    4    4  503    0 -0.95374282043E+02 -0.38721766466E+02  0.40257086822E+03  0.41554906186E+03  0.47000000000E+01 0.  1.
         -5    1    4    4    0  503 -0.61057018251E+02  0.24599962033E+02  0.62051897284E+02  0.90585018443E+02  0.47000000000E+01 0.  1.
<mgrwt>
<rscale>  0 0.20074056E+03</rscale>
<asrwt>0</asrwt>
<pdfrwt beam="1">  1        5 0.10279720E+00 0.20074211E+03</pdfrwt>
<pdfrwt beam="2">  1       -5 0.11671164E-01 0.20074211E+03</pdfrwt>
<totfact> 0.36484720E+01</totfact>
</mgrwt>
</event>
<event>
 8    1  0.3488953E-007  0.1379197E+03  0.7546771E-02  0.1216160E+00
          5   -1    0    0  501    0  0.00000000000E+00  0.00000000000E+00  0.15608052994E+03  0.15615127866E+03  0.47000000000E+01 0. -1.
         -5   -1    0    0    0  501 -0.00000000000E+00 -0.00000000000E+00 -0.12201715454E+03  0.12210764105E+03  0.47000000000E+01 0. -1.
         25    2    1    2    0    0  0.17971109725E+02  0.55416797239E+02  0.10143189912E+02  0.13829214326E+03  0.12501140102E+03 0.  0.
         25    2    1    2    0    0 -0.17971109725E+02 -0.55416797239E+02  0.23920185487E+02  0.13996677644E+03  0.12499816412E+03 0.  0.
          5    1    3    3  502    0 -0.83530306926E-01  0.94453713395E+02  0.47291094162E+01  0.94688781950E+02  0.47000000000E+01 0. -1.
         -5    1    3    3    0  502  0.18054640032E+02 -0.39036916156E+02  0.54140804953E+01  0.43603361307E+02  0.47000000000E+01 0. -1.
          5    1    4    4  503    0 -0.16599456568E+02  0.39172637493E+02  0.12332226090E+02  0.44544486605E+02  0.47000000000E+01 0. -1.
         -5    1    4    4    0  503 -0.13716531566E+01 -0.94589434732E+02  0.11587959397E+02  0.95422289840E+02  0.47000000000E+01 0. -1.
<mgrwt>
<rscale>  0 0.13791666E+03</rscale>
<asrwt>0</asrwt>
<pdfrwt beam="1">  1        5 0.24024792E-01 0.13791966E+03</pdfrwt>
<pdfrwt beam="2">  1       -5 0.18784273E-01 0.13791966E+03</pdfrwt>
<totfact> 0.31063303E+02</totfact>
</mgrwt>
</event>
<event>
 8    1  0.3488953E-007  0.1549121E+03  0.7546771E-02  0.1194564E+00
          5   -1    0    0  501    0  0.00000000000E+00  0.00000000000E+00  0.15113310634E+03  0.15120616995E+03  0.47000000000E+01 0. -1.
         -5   -1    0    0    0  501 -0.00000000000E+00 -0.00000000000E+00 -0.15901735949E+03  0.15908680216E+03  0.47000000000E+01 0. -1.
         25    2    1    2    0    0  0.86905800000E+02  0.28642842787E+02 -0.11522018019E+02  0.15533817717E+03  0.12499664744E+03 0.  0.
         25    2    1    2    0    0 -0.86905800000E+02 -0.28642842787E+02  0.36377648615E+01  0.15495479493E+03  0.12499889849E+03 0.  0.
          5    1    3    3  502    0  0.12623236642E+02 -0.46822178755E+02 -0.72443388660E+01  0.49256806355E+02  0.47000000000E+01 0. -1.
         -5    1    3    3    0  502  0.74282563358E+02  0.75465021542E+02 -0.42776791533E+01  0.10608137082E+03  0.47000000000E+01 0. -1.
          5    1    4    4  503    0 -0.49295810450E+01 -0.63053501878E+02 -0.12046129125E+02  0.64554195025E+02  0.47000000000E+01 0.  1.
         -5    1    4    4    0  503 -0.81976218955E+02  0.34410659091E+02  0.15683893987E+02  0.90400599909E+02  0.47000000000E+01 0.  1.
<mgrwt>
<rscale>  0 0.15491163E+03</rscale>
<asrwt>0</asrwt>
<pdfrwt beam="1">  1        5 0.23262209E-01 0.15491209E+03</pdfrwt>
<pdfrwt beam="2">  1       -5 0.24475171E-01 0.15491209E+03</pdfrwt>
<totfact> 0.20863501E+02</totfact>
</mgrwt>
</event>
<event>
 8    1  0.3488953E-007  0.1504090E+03  0.7546771E-02  0.1199974E+00
          5   -1    0    0  501    0  0.00000000000E+00  0.00000000000E+00  0.73737450355E+02  0.73887086726E+02  0.47000000000E+01 0.  1.
         -5   -1    0    0    0  501 -0.00000000000E+00 -0.00000000000E+00 -0.31587638208E+03  0.31591134636E+03  0.47000000000E+01 0.  1.
         25    2    1    2    0    0 -0.76725597012E+02 -0.33287331925E+02 -0.15498367141E+03  0.21596256932E+03  0.12500011696E+03 0.  0.
         25    2    1    2    0    0  0.76725597012E+02  0.33287331925E+02 -0.87155260321E+02  0.17383586377E+03  0.12501201713E+03 0.  0.
          5    1    3    3  502    0  0.12926761696E+02 -0.43483646581E+01 -0.11091882778E+03  0.11185296509E+03  0.47000000000E+01 0. -1.
         -5    1    3    3    0  502 -0.89652358708E+02 -0.28938967266E+02 -0.44064843624E+02  0.10410960423E+03  0.47000000000E+01 0. -1.
          5    1    4    4  503    0  0.88846600367E+02  0.68341414276E+02 -0.73054662553E+02  0.13387808268E+03  0.47000000000E+01 0.  1.
         -5    1    4    4    0  503 -0.12121003355E+02 -0.35054082351E+02 -0.14100597768E+02  0.39957781085E+02  0.47000000000E+01 0.  1.
<mgrwt>
<rscale>  0 0.15040653E+03</rscale>
<asrwt>0</asrwt>
<pdfrwt beam="1">  1        5 0.11358423E-01 0.15040900E+03</pdfrwt>
<pdfrwt beam="2">  1       -5 0.48610566E-01 0.15040900E+03</pdfrwt>
<totfact> 0.19354468E+02</totfact>
</mgrwt>
</event>
<event>
 8    1  0.3488953E-007  0.3133827E+03  0.7546771E-02  0.1078736E+00
          5   -1    0    0  501    0  0.00000000000E+00  0.00000000000E+00  0.52683695898E+03  0.52685792330E+03  0.47000000000E+01 0.  1.
         -5   -1    0    0    0  501 -0.00000000000E+00 -0.00000000000E+00 -0.18806993929E+03  0.18812865827E+03  0.47000000000E+01 0.  1.
         25    2    1    2    0    0 -0.21204016208E+03 -0.19396680352E+03  0.20349309324E+03  0.37365424958E+03  0.12499563204E+03 0.  0.
         25    2    1    2    0    0  0.21204016208E+03  0.19396680352E+03  0.13527392645E+03  0.34133233199E+03  0.12499829791E+03 0.  0.
          5    1    3    3  502    0 -0.22878250670E+02  0.17640014901E+02  0.14856660220E+02  0.32823693155E+02  0.47000000000E+01 0.  1.
         -5    1    3    3    0  502 -0.18916191141E+03 -0.21160681842E+03  0.18863643302E+03  0.34083055643E+03  0.47000000000E+01 0.  1.
          5    1    4    4  503    0  0.54028640276E+02  0.42601120451E+02 -0.21357413856E+02  0.72195419247E+02  0.47000000000E+01 0. -1.
         -5    1    4    4    0  503  0.15801152180E+03  0.15136568307E+03  0.15663134030E+03  0.26913691274E+03  0.47000000000E+01 0. -1.
<mgrwt>
<rscale>  0 0.31338245E+03</rscale>
<asrwt>0</asrwt>
<pdfrwt beam="1">  1        5 0.81057969E-01 0.31338271E+03</pdfrwt>
<pdfrwt beam="2">  1       -5 0.28939967E-01 0.31338271E+03</pdfrwt>
<totfact> 0.13045955E+01</totfact>
</mgrwt>
</event>
<event>
 8    1  0.3488953E-007  0.1281523E+03  0.7546771E-02  0.1230234E+00
          5   -1    0    0  501    0  0.00000000000E+00  0.00000000000E+00  0.83445949451E+03  0.83447273052E+03  0.47000000000E+01 0.  1.
         -5   -1    0    0    0  501 -0.00000000000E+00 -0.00000000000E+00 -0.19576569054E+02  0.20132860103E+02  0.47000000000E+01 0.  1.
         25    2    1    2    0    0  0.24914030379E+02 -0.13058267112E+02  0.36556601908E+03  0.38737775443E+03  0.12502712933E+03 0.  0.
         25    2    1    2    0    0 -0.24914030379E+02  0.13058267112E+02  0.44931690638E+03  0.46722783620E+03  0.12499976524E+03 0.  0.
          5    1    4    4  502    0 -0.58967999285E+02 -0.21566796860E+02  0.35988874973E+03  0.36535510650E+03  0.47000000000E+01 0.  1.
         -5    1    4    4    0  502  0.34053968907E+02  0.34625063972E+02  0.89428156648E+02  0.10187272969E+03  0.47000000000E+01 0.  1.
          5    1    3    3  503    0  0.24375931321E+02  0.52391972914E+02  0.22335871780E+03  0.23076029050E+03  0.47000000000E+01 0.  1.
         -5    1    3    3    0  503  0.53809905792E+00 -0.65450240027E+02  0.14220730128E+03  0.15661746393E+03  0.47000000000E+01 0.  1.
<mgrwt>
<rscale>  0 0.12814562E+03</rscale>
<asrwt>0</asrwt>
<pdfrwt beam="1">  1        5 0.12842221E+00 0.12815229E+03</pdfrwt>
<pdfrwt beam="2">  1       -5 0.30555892E-02 0.12815229E+03</pdfrwt>
<totfact> 0.17508327E+02</totfact>
</mgrwt>
</event>
<event>
 8    1  0.3488953E-007  0.2856275E+03  0.7546771E-02  0.1092655E+00
         -5   -1    0    0    0  501 -0.00000000000E+00  0.00000000000E+00  0.15707940301E+04  0.15708010616E+04  0.47000000000E+01 0.  1.
          5   -1    0    0  501    0  0.00000000000E+00 -0.00000000000E+00 -0.56777465899E+02  0.56971665184E+02  0.47000000000E+01 0.  1.
         25    2    1    2    0    0 -0.24585174368E+03 -0.74259822241E+02  0.99696751940E+03  0.10370758706E+04  0.12499810225E+03 0.  0.
         25    2    1    2    0    0  0.24585174368E+03  0.74259822241E+02  0.51704904481E+03  0.59069685615E+03  0.12500184023E+03 0.  0.
          5    1    3    3  502    0 -0.79693361879E+02 -0.87979069320E+02  0.40664497150E+03  0.42364321240E+03  0.47000000000E+01 0.  1.
         -5    1    3    3    0  502 -0.16615838180E+03  0.13719247079E+02  0.59032254789E+03  0.61343265819E+03  0.47000000000E+01 0.  1.
          5    1    4    4  503    0  0.11066305870E+03  0.98465959745E+02  0.26637078921E+03  0.30482346553E+03  0.47000000000E+01 0.  1.
         -5    1    4    4    0  503  0.13518868499E+03 -0.24206137503E+02  0.25067825559E+03  0.28587339063E+03  0.47000000000E+01 0.  1.
<mgrwt>
<rscale>  0 0.28562708E+03</rscale>
<asrwt>0</asrwt>
<pdfrwt beam="2">  1        5 0.87504738E-02 0.28562749E+03</pdfrwt>
<pdfrwt beam="1">  1       -5 0.24167610E+00 0.28562749E+03</pdfrwt>
<totfact> 0.54756235E+00</totfact>
</mgrwt>
</event>
<event>
 8    1  0.3488953E-007  0.1547587E+03  0.7546771E-02  0.1194746E+00
          5   -1    0    0  501    0  0.00000000000E+00  0.00000000000E+00  0.29037344578E+03  0.29041148052E+03  0.47000000000E+01 0. -1.
         -5   -1    0    0    0  501 -0.00000000000E+00 -0.00000000000E+00 -0.83399700674E+02  0.83532030219E+02  0.47000000000E+01 0. -1.
         25    2    1    2    0    0 -0.10631318276E+02  0.90615190130E+02  0.82709550033E+02  0.17547402468E+03  0.12500450416E+03 0.  0.
         25    2    1    2    0    0  0.10631318276E+02 -0.90615190130E+02  0.12426419508E+03  0.19846948606E+03  0.12499763641E+03 0.  0.
          5    1    3    3  502    0 -0.41858810487E+02  0.32636749263E+02 -0.16961449780E+02  0.55920463128E+02  0.47000000000E+01 0.  1.
         -5    1    3    3    0  502  0.31227492212E+02  0.57978440867E+02  0.99670999813E+02  0.11955356155E+03  0.47000000000E+01 0.  1.
          5    1    4    4  503    0 -0.15143683970E+02  0.35554645503E+01  0.95079599863E+02  0.96458243829E+02  0.47000000000E+01 0.  1.
         -5    1    4    4    0  503  0.25775002246E+02 -0.94170654680E+02  0.29184595212E+02  0.10201124223E+03  0.47000000000E+01 0.  1.
<mgrwt>
<rscale>  0 0.15475734E+03</rscale>
<asrwt>0</asrwt>
<pdfrwt beam="1">  1        5 0.44685942E-01 0.15475873E+03</pdfrwt>
<pdfrwt beam="2">  1       -5 0.12843828E-01 0.15475873E+03</pdfrwt>
<totfact> 0.18739034E+02</totfact>
</mgrwt>
</event>
<event>
 8    1  0.3488953E-007  0.1428475E+03  0.7546771E-02  0.1209548E+00
         -5   -1    0    0    0  501 -0.00000000000E+00  0.00000000000E+00  0.46032056124E+02  0.46271375503E+02  0.47000000000E+01 0.  1.
          5   -1    0    0  501    0  0.00000000000E+00 -0.00000000000E+00 -0.60209383202E+03  0.60211217606E+03  0.47000000000E+01 0.  1.
         25    2    1    2    0    0  0.17436069917E+02  0.66917203099E+02 -0.11083690982E+03  0.18080442549E+03  0.12499396423E+03 0.  0.
         25    2    1    2    0    0 -0.17436069917E+02 -0.66917203099E+02 -0.44522486607E+03  0.46757912607E+03  0.12499251642E+03 0.  0.
          5    1    4    4  502    0  0.28184497782E+02 -0.50294450970E+02 -0.38841756188E+03  0.39270114602E+03  0.47000000000E+01 0. -1.
         -5    1    4    4    0  502 -0.45620567699E+02 -0.16622752128E+02 -0.56807304196E+02  0.74877980044E+02  0.47000000000E+01 0. -1.
          5    1    3    3  503    0 -0.37799283425E+02  0.77201137169E+02 -0.60464896937E+02  0.10519931164E+03  0.47000000000E+01 0. -1.
         -5    1    3    3    0  503  0.55235353342E+02 -0.10283934070E+02 -0.50372012888E+02  0.75605113856E+02  0.47000000000E+01 0. -1.
<mgrwt>
<rscale>  0 0.14284722E+03</rscale>
<asrwt>0</asrwt>
<pdfrwt beam="2">  1        5 0.92649635E-01 0.14284754E+03</pdfrwt>
<pdfrwt beam="1">  1       -5 0.71016755E-02 0.14284754E+03</pdfrwt>
<totfact> 0.10115089E+02</totfact>
</mgrwt>
</event>
<event>
 8    1  0.3488953E-007  0.1583724E+03  0.7546771E-02  0.1190548E+00
         -5   -1    0    0    0  501 -0.00000000000E+00  0.00000000000E+00  0.23633285154E+03  0.23637958185E+03  0.47000000000E+01 0.  1.
          5   -1    0    0  501    0  0.00000000000E+00 -0.00000000000E+00 -0.11367638738E+03  0.11377350767E+03  0.47000000000E+01 0.  1.
         25    2    1    2    0    0  0.29876759430E+02 -0.92537432325E+02  0.10674152453E+03  0.19098303994E+03  0.12499988540E+03 0.  0.
         25    2    1    2    0    0 -0.29876759430E+02  0.92537432325E+02  0.15914939626E+02  0.15917004958E+03  0.12500408891E+03 0.  0.
          5    1    3    3  502    0 -0.42591696643E+02 -0.19415288848E+02  0.69952184247E+01  0.47560794198E+02  0.47000000000E+01 0.  1.
         -5    1    3    3    0  502  0.72468456072E+02 -0.73122143477E+02  0.99746306107E+02  0.14342224574E+03  0.47000000000E+01 0.  1.
          5    1    4    4  503    0 -0.78293054271E+02  0.48196398070E+02  0.30825730538E+01  0.92110191568E+02  0.47000000000E+01 0.  1.
         -5    1    4    4    0  503  0.48416294842E+02  0.44341034255E+02  0.12832366572E+02  0.67059858014E+02  0.47000000000E+01 0.  1.
<mgrwt>
<rscale>  0 0.15837158E+03</rscale>
<asrwt>0</asrwt>
<pdfrwt beam="2">  1        5 0.17499740E-01 0.15837241E+03</pdfrwt>
<pdfrwt beam="1">  1       -5 0.36369966E-01 0.15837241E+03</pdfrwt>
<totfact> 0.16435672E+02</totfact>
</mgrwt>
</event>
<event>
 8    1  0.3488953E-007  0.2012851E+03  0.7546771E-02  0.1148660E+00
         -5   -1    0    0    0  501 -0.00000000000E+00  0.00000000000E+00  0.20126383438E+03  0.20131870511E+03  0.47000000000E+01 0. -1.
          5   -1    0    0  501    0  0.00000000000E+00 -0.00000000000E+00 -0.20157643691E+03  0.20163122258E+03  0.47000000000E+01 0. -1.
         25    2    1    2    0    0  0.49526634669E+02 -0.14978308533E+03 -0.89632249595E+01  0.20147907273E+03  0.12500246859E+03 0.  0.
         25    2    1    2    0    0 -0.49526634669E+02  0.14978308533E+03  0.86506224257E+01  0.20147085496E+03  0.12501124725E+03 0.  0.
          5    1    4    4  502    0 -0.34988372002E+01  0.91422805528E+02 -0.52074531609E+02  0.10537655372E+03  0.47000000000E+01 0. -1.
         -5    1    4    4    0  502 -0.46027797468E+02  0.58360279801E+02  0.60725154034E+02  0.96094301240E+02  0.47000000000E+01 0. -1.
          5    1    3    3  503    0  0.89305949506E+02 -0.87273058998E+02 -0.19578006196E+02  0.12648133368E+03  0.47000000000E+01 0.  1.
         -5    1    3    3    0  503 -0.39779314838E+02 -0.62510026331E+02  0.10614781237E+02  0.74997739043E+02  0.47000000000E+01 0.  1.
<mgrwt>
<rscale>  0 0.20128369E+03</rscale>
<asrwt>0</asrwt>
<pdfrwt beam="2">  1        5 0.31020195E-01 0.20128505E+03</pdfrwt>
<pdfrwt beam="1">  1       -5 0.30972102E-01 0.20128505E+03</pdfrwt>
<totfact> 0.81461811E+01</totfact>
</mgrwt>
</event>
<event>
 8    1  0.3488953E-007  0.1315529E+03  0.7546771E-02  0.1225171E+00
          5   -1    0    0  501    0  0.00000000000E+00  0.00000000000E+00  0.43272350640E+03  0.43274903003E+03  0.47000000000E+01 0. -1.
         -5   -1    0    0    0  501 -0.00000000000E+00 -0.00000000000E+00 -0.39925747592E+02  0.40201434312E+02  0.47000000000E+01 0. -1.
         25    2    1    2    0    0 -0.37800321212E+02  0.15845857832E+02  0.20811367489E+03  0.24620612641E+03  0.12500479796E+03 0.  0.
         25    2    1    2    0    0  0.37800321212E+02 -0.15845857832E+02  0.18468408392E+03  0.22674433793E+03  0.12499931374E+03 0.  0.
          5    1    3    3  502    0 -0.42955242885E+02  0.21032083228E+02  0.22345976770E+03  0.22856915627E+03  0.47000000000E+01 0.  1.
         -5    1    3    3    0  502  0.51549216733E+01 -0.51862253955E+01 -0.15346092810E+02  0.17636970143E+02  0.47000000000E+01 0.  1.
          5    1    4    4  503    0 -0.13822783302E+02 -0.19697421525E+02 -0.90675665729E+01  0.26141318186E+02  0.47000000000E+01 0.  1.
         -5    1    4    4    0  503  0.51623104515E+02  0.38515636925E+01  0.19375165049E+03  0.20060301974E+03  0.47000000000E+01 0.  1.
<mgrwt>
<rscale>  0 0.13155156E+03</rscale>
<asrwt>0</asrwt>
<pdfrwt beam="1">  1        5 0.66596021E-01 0.13155286E+03</pdfrwt>
<pdfrwt beam="2">  1       -5 0.61655924E-02 0.13155286E+03</pdfrwt>
<totfact> 0.26771691E+02</totfact>
</mgrwt>
</event>
<event>
 8    1  0.3488953E-007  0.1454037E+03  0.7546771E-02  0.1206263E+00
          5   -1    0    0  501    0  0.00000000000E+00  0.00000000000E+00  0.50174809669E+02  0.50394459272E+02  0.47000000000E+01 0.  1.
         -5   -1    0    0    0  501 -0.00000000000E+00 -0.00000000000E+00 -0.42001844156E+03  0.42004473720E+03  0.47000000000E+01 0.  1.
         25    2    1    2    0    0 -0.70722522345E+02 -0.22174022975E+02 -0.18305987549E+03  0.23378013695E+03  0.12509545139E+03 0.  0.
         25    2    1    2    0    0  0.70722522345E+02  0.22174022975E+02 -0.18678375640E+03  0.23665905952E+03  0.12500390528E+03 0.  0.
          5    1    4    4  502    0  0.79031390026E+01  0.66891570337E+02 -0.76886583242E+02  0.10232584459E+03  0.47000000000E+01 0. -1.
         -5    1    4    4    0  502  0.62819383342E+02 -0.44717547362E+02 -0.10989717316E+03  0.13433321493E+03  0.47000000000E+01 0. -1.
          5    1    3    3  503    0 -0.62324011006E+02 -0.70976900493E+02 -0.10596366538E+03  0.14202954317E+03  0.47000000000E+01 0.  1.
         -5    1    3    3    0  503 -0.83985113388E+01  0.48802877518E+02 -0.77096210105E+02  0.91750593782E+02  0.47000000000E+01 0.  1.
<mgrwt>
<rscale>  0 0.14538400E+03</rscale>
<asrwt>0</asrwt>
<pdfrwt beam="1">  1        5 0.77381206E-02 0.14540369E+03</pdfrwt>
<pdfrwt beam="2">  1       -5 0.64637138E-01 0.14540369E+03</pdfrwt>
<totfact> 0.20125427E+02</totfact>
</mgrwt>
</event>
<event>
 8    1  0.3488953E-007  0.1720573E+03  0.7546771E-02  0.1175719E+00
         -5   -1    0    0    0  501 -0.00000000000E+00  0.00000000000E+00  0.42797279494E+03  0.42799860188E+03  0.47000000000E+01 0.  1.
          5   -1    0    0  501    0  0.00000000000E+00 -0.00000000000E+00 -0.70979444176E+02  0.71134882410E+02  0.47000000000E+01 0.  1.
         25    2    1    2    0    0  0.91083044745E+02 -0.75383769693E+02  0.21944258331E+03  0.27885201676E+03  0.12499826442E+03 0.  0.
         25    2    1    2    0    0 -0.91083044745E+02  0.75383769693E+02  0.13755076745E+03  0.22028146752E+03  0.12499951014E+03 0.  0.
          5    1    3    3  502    0 -0.10177997093E+02 -0.61531900964E+02  0.12425204641E+03  0.13910581403E+03  0.47000000000E+01 0.  1.
         -5    1    3    3    0  502  0.10126104184E+03 -0.13851868730E+02  0.95190536904E+02  0.13974620273E+03  0.47000000000E+01 0.  1.
          5    1    4    4  503    0 -0.11595480471E+03  0.75473622583E+02  0.86326474881E+02  0.16314452092E+03  0.47000000000E+01 0.  1.
         -5    1    4    4    0  503  0.24871759969E+02 -0.89852889634E-01  0.51224292566E+02  0.57136946597E+02  0.47000000000E+01 0.  1.
<mgrwt>
<rscale>  0 0.17205706E+03</rscale>
<asrwt>0</asrwt>
<pdfrwt beam="2">  1        5 0.10933856E-01 0.17205729E+03</pdfrwt>
<pdfrwt beam="1">  1       -5 0.65855912E-01 0.17205729E+03</pdfrwt>
<totfact> 0.11157927E+02</totfact>
</mgrwt>
</event>
<event>
 8    1  0.3488953E-007  0.1275466E+03  0.7546771E-02  0.1231151E+00
         -5   -1    0    0    0  501 -0.00000000000E+00  0.00000000000E+00  0.15426934656E+03  0.15434092552E+03  0.47000000000E+01 0.  1.
          5   -1    0    0  501    0  0.00000000000E+00 -0.00000000000E+00 -0.10824773449E+03  0.10834972091E+03  0.47000000000E+01 0.  1.
         25    2    1    2    0    0  0.31774541391E+01  0.25059787019E+02  0.44720084678E+02  0.13515925643E+03  0.12502019631E+03 0.  0.
         25    2    1    2    0    0 -0.31774541391E+01 -0.25059787019E+02  0.13015273975E+01  0.12753139000E+03  0.12499788926E+03 0.  0.
          5    1    3    3  502    0  0.48180560750E+02  0.18246764920E+02  0.66687414794E+02  0.84401493803E+02  0.47000000000E+01 0.  1.
         -5    1    3    3    0  502 -0.45003106611E+02  0.68130220997E+01 -0.21967330117E+02  0.50757762630E+02  0.47000000000E+01 0.  1.
          5    1    4    4  503    0 -0.61824556193E+00 -0.19790057640E+01  0.62083062125E+02  0.62295226898E+02  0.47000000000E+01 0. -1.
         -5    1    4    4    0  503 -0.25592085772E+01 -0.23080781255E+02 -0.60781534728E+02  0.65236163098E+02  0.47000000000E+01 0. -1.
<mgrwt>
<rscale>  0 0.12754115E+03</rscale>
<asrwt>0</asrwt>
<pdfrwt beam="2">  1        5 0.16666849E-01 0.12754661E+03</pdfrwt>
<pdfrwt beam="1">  1       -5 0.23747097E-01 0.12754661E+03</pdfrwt>
<totfact> 0.38486941E+02</totfact>
</mgrwt>
</event>
<event>
 8    1  0.3488953E-007  0.1290645E+03  0.7546771E-02  0.1228854E+00
          5   -1    0    0  501    0  0.00000000000E+00  0.00000000000E+00  0.58975525395E+02  0.59162510052E+02  0.47000000000E+01 0. -1.
         -5   -1    0    0    0  501 -0.00000000000E+00 -0.00000000000E+00 -0.28238752939E+03  0.28242663960E+03  0.47000000000E+01 0. -1.
         25    2    1    2    0    0 -0.29873634004E+02  0.11787237754E+02 -0.10375665280E+03  0.16559185197E+03  0.12499538174E+03 0.  0.
         25    2    1    2    0    0  0.29873634004E+02 -0.11787237754E+02 -0.11965535119E+03  0.17599729768E+03  0.12500509085E+03 0.  0.
          5    1    4    4  502    0 -0.12194891270E+02 -0.18224470429E+02 -0.13002315726E+03  0.13194301087E+03  0.47000000000E+01 0.  1.
         -5    1    4    4    0  502  0.42068525273E+02  0.64372326746E+01  0.10367806068E+02  0.44054286804E+02  0.47000000000E+01 0.  1.
          5    1    3    3  503    0 -0.10903781639E+02  0.53427981259E+02 -0.29787839445E+01  0.54812451042E+02  0.47000000000E+01 0.  1.
         -5    1    3    3    0  503 -0.18969852365E+02 -0.41640743505E+02 -0.10077786886E+03  0.11077940093E+03  0.47000000000E+01 0.  1.
<mgrwt>
<rscale>  0 0.12906215E+03</rscale>
<asrwt>0</asrwt>
<pdfrwt beam="1">  1        5 0.90905498E-02 0.12906450E+03</pdfrwt>
<pdfrwt beam="2">  1       -5 0.43461626E-01 0.12906450E+03</pdfrwt>
<totfact> 0.34264491E+02</totfact>
</mgrwt>
</event>
<event>
 8    1  0.3488953E-007  0.1801918E+03  0.7546771E-02  0.1167619E+00
          5   -1    0    0  501    0  0.00000000000E+00  0.00000000000E+00  0.64121044991E+03  0.64122767491E+03  0.47000000000E+01 0.  1.
         -5   -1    0    0    0  501 -0.00000000000E+00 -0.00000000000E+00 -0.56664330718E+02  0.56858916413E+02  0.47000000000E+01 0.  1.
         25    2    1    2    0    0 -0.65829980405E+02  0.11183976327E+03  0.17744413996E+03  0.25288874774E+03  0.12499830783E+03 0.  0.
         25    2    1    2    0    0  0.65829980405E+02 -0.11183976327E+03  0.40710197924E+03  0.44519784358E+03  0.12500951749E+03 0.  0.
          5    1    3    3  502    0 -0.44195174331E+02  0.32508507345E+02  0.15930377431E+03  0.16855206612E+03  0.47000000000E+01 0. -1.
         -5    1    3    3    0  502 -0.21634806073E+02  0.79331255928E+02  0.18140365643E+02  0.84336681619E+02  0.47000000000E+01 0. -1.
          5    1    4    4  503    0  0.80493349968E+02 -0.12670983182E+03  0.38960433652E+03  0.41755022440E+03  0.47000000000E+01 0.  1.
         -5    1    4    4    0  503 -0.14663369563E+02  0.14870068545E+02  0.17497642721E+02  0.27647619179E+02  0.47000000000E+01 0.  1.
<mgrwt>
<rscale>  0 0.18018989E+03</rscale>
<asrwt>0</asrwt>
<pdfrwt beam="1">  1        5 0.98664055E-01 0.18019184E+03</pdfrwt>
<pdfrwt beam="2">  1       -5 0.87338824E-02 0.18019184E+03</pdfrwt>
<totfact> 0.65264119E+01</totfact>
</mgrwt>
</event>
<event>
 8    1  0.3488953E-007  0.1688038E+03  0.7546771E-02  0.1179102E+00
         -5   -1    0    0    0  501 -0.00000000000E+00  0.00000000000E+00  0.29301140001E+03  0.29304909237E+03  0.47000000000E+01 0. -1.
          5   -1    0    0  501    0  0.00000000000E+00 -0.00000000000E+00 -0.99257431576E+02  0.99368645574E+02  0.47000000000E+01 0. -1.
         25    2    1    2    0    0 -0.61068743070E+02  0.95606677815E+02  0.12547706065E+03  0.21032858782E+03  0.12499437540E+03 0.  0.
         25    2    1    2    0    0  0.61068743070E+02 -0.95606677815E+02  0.68276907786E+02  0.18208915012E+03  0.12499877692E+03 0.  0.
          5    1    4    4  502    0  0.38507963987E+02  0.60341041150E+00 -0.24969896124E+02  0.46139062702E+02  0.47000000000E+01 0.  1.
         -5    1    4    4    0  502  0.22560779083E+02 -0.96210088226E+02  0.93246803910E+02  0.13595008742E+03  0.47000000000E+01 0.  1.
          5    1    3    3  503    0 -0.73208972880E+02  0.31591353325E+02  0.12082306501E+03  0.14483739281E+03  0.47000000000E+01 0. -1.
         -5    1    3    3    0  503  0.12140229810E+02  0.64015324490E+02  0.46539956353E+01  0.65491195017E+02  0.47000000000E+01 0. -1.
<mgrwt>
<rscale>  0 0.16880298E+03</rscale>
<asrwt>0</asrwt>
<pdfrwt beam="2">  1        5 0.15281829E-01 0.16880380E+03</pdfrwt>
<pdfrwt beam="1">  1       -5 0.45090131E-01 0.16880380E+03</pdfrwt>
<totfact> 0.13808910E+02</totfact>
</mgrwt>
</event>
<event>
 8    1  0.3488953E-007  0.1444045E+03  0.7546771E-02  0.1207526E+00
          5   -1    0    0  501    0  0.00000000000E+00  0.00000000000E+00  0.97702985038E+03  0.97704115498E+03  0.47000000000E+01 0.  1.
         -5   -1    0    0    0  501 -0.00000000000E+00 -0.00000000000E+00 -0.30853293974E+02  0.31209225384E+02  0.47000000000E+01 0.  1.
         25    2    1    2    0    0  0.36203402238E+02  0.62566730053E+02  0.19124963556E+03  0.23963648913E+03  0.12499576703E+03 0.  0.
         25    2    1    2    0    0 -0.36203402238E+02 -0.62566730053E+02  0.75492692084E+03  0.76861389123E+03  0.12500950343E+03 0.  0.
          5    1    4    4  502    0  0.34110142838E+02 -0.65297640161E+02  0.39726804501E+03  0.40406840169E+03  0.47000000000E+01 0.  1.
         -5    1    4    4    0  502 -0.70313545076E+02  0.27309101079E+01  0.35765887583E+03  0.36454548955E+03  0.47000000000E+01 0.  1.
          5    1    3    3  503    0  0.87204786067E+01 -0.29190924983E+02  0.10906774613E+03  0.11334028451E+03  0.47000000000E+01 0.  1.
         -5    1    3    3    0  503  0.27482923631E+02  0.91757655036E+02  0.82181889437E+02  0.12629620462E+03  0.47000000000E+01 0.  1.
<mgrwt>
<rscale>  0 0.14440152E+03</rscale>
<asrwt>0</asrwt>
<pdfrwt beam="1">  1        5 0.15034053E+00 0.14440449E+03</pdfrwt>
<pdfrwt beam="2">  1       -5 0.47749098E-02 0.14440449E+03</pdfrwt>
<totfact> 0.57621120E+01</totfact>
</mgrwt>
</event>
<event>
 8    1  0.3488953E-007  0.2773336E+03  0.7546771E-02  0.1097154E+00
          5   -1    0    0  501    0  0.00000000000E+00  0.00000000000E+00  0.59815637540E+03  0.59817484018E+03  0.47000000000E+01 0. -1.
         -5   -1    0    0    0  501 -0.00000000000E+00 -0.00000000000E+00 -0.15918321545E+03  0.15925258580E+03  0.47000000000E+01 0. -1.
         25    2    1    2    0    0 -0.22479685089E+03  0.10370647759E+03  0.53324354843E+02  0.28241274565E+03  0.12499925768E+03 0.  0.
         25    2    1    2    0    0  0.22479685089E+03 -0.10370647759E+03  0.38564880510E+03  0.47501468033E+03  0.12500115196E+03 0.  0.
          5    1    3    3  502    0 -0.93925085566E+02  0.97304788726E+02  0.66240978768E+02  0.15066552650E+03  0.47000000000E+01 0. -1.
         -5    1    3    3    0  502 -0.13087176532E+03  0.64016888687E+01 -0.12916623925E+02  0.13174721915E+03  0.47000000000E+01 0. -1.
          5    1    4    4  503    0  0.83534394060E+02 -0.20732810976E+02  0.45567734743E+02  0.97500527648E+02  0.47000000000E+01 0. -1.
         -5    1    4    4    0  503  0.14126245683E+03 -0.82973666619E+02  0.34008107036E+03  0.37751415268E+03  0.47000000000E+01 0. -1.
<mgrwt>
<rscale>  0 0.27733342E+03</rscale>
<asrwt>0</asrwt>
<pdfrwt beam="1">  1        5 0.92030815E-01 0.27733364E+03</pdfrwt>
<pdfrwt beam="2">  1       -5 0.24496482E-01 0.27733364E+03</pdfrwt>
<totfact> 0.13035459E+01</totfact>
</mgrwt>
</event>
<event>
 8    1  0.3488953E-007  0.1420581E+03  0.7546771E-02  0.1210588E+00
          5   -1    0    0  501    0  0.00000000000E+00  0.00000000000E+00  0.69635275770E+02  0.69793707679E+02  0.47000000000E+01 0. -1.
         -5   -1    0    0    0  501 -0.00000000000E+00 -0.00000000000E+00 -0.34837757706E+03  0.34840927973E+03  0.47000000000E+01 0. -1.
         25    2    1    2    0    0 -0.62657276927E+02  0.25059968576E+02 -0.22546293959E+03  0.26648217524E+03  0.12500110487E+03 0.  0.
         25    2    1    2    0    0  0.62657276927E+02 -0.25059968576E+02 -0.53279361708E+02  0.15172081216E+03  0.12500631217E+03 0.  0.
          5    1    3    3  502    0 -0.96801566309E+02 -0.10958544804E+01 -0.17467540651E+03  0.19976318924E+03  0.47000000000E+01 0. -1.
         -5    1    3    3    0  502  0.34144289382E+02  0.26155823057E+02 -0.50787533073E+02  0.66718986000E+02  0.47000000000E+01 0. -1.
          5    1    4    4  503    0  0.57700654805E+02  0.43873619176E+02 -0.30736780732E+02  0.78873948261E+02  0.47000000000E+01 0.  1.
         -5    1    4    4    0  503  0.49566221225E+01 -0.68933587752E+02 -0.22542580975E+02  0.72846863901E+02  0.47000000000E+01 0.  1.
<mgrwt>
<rscale>  0 0.14205699E+03</rscale>
<asrwt>0</asrwt>
<pdfrwt beam="1">  1        5 0.10727745E-01 0.14205814E+03</pdfrwt>
<pdfrwt beam="2">  1       -5 0.53611175E-01 0.14205814E+03</pdfrwt>
<totfact> 0.17052039E+02</totfact>
</mgrwt>
</event>
<event>
 8    1  0.3488953E-007  0.1425717E+03  0.7546771E-02  0.1209912E+00
          5   -1    0    0  501    0  0.00000000000E+00  0.00000000000E+00  0.55892453493E+02  0.56089717039E+02  0.47000000000E+01 0.  1.
         -5   -1    0    0    0  501 -0.00000000000E+00 -0.00000000000E+00 -0.38072497739E+03  0.38075398673E+03  0.47000000000E+01 0.  1.
         25    2    1    2    0    0 -0.20424335093E+02  0.65438453616E+02 -0.20979347795E+03  0.25365330202E+03  0.12500939789E+03 0.  0.
         25    2    1    2    0    0  0.20424335093E+02 -0.65438453616E+02 -0.11503904594E+03  0.18319040174E+03  0.12500158608E+03 0.  0.
          5    1    4    4  502    0 -0.32935897595E+02  0.21219246648E+02 -0.21771092785E+02  0.45067729694E+02  0.47000000000E+01 0. -1.
         -5    1    4    4    0  502  0.53360232688E+02 -0.86657700264E+02 -0.93267953160E+02  0.13812267205E+03  0.47000000000E+01 0. -1.
          5    1    3    3  503    0  0.15679892177E+02 -0.78242749558E+01  0.88636897126E+01  0.20192406805E+02  0.47000000000E+01 0.  1.
         -5    1    3    3    0  503 -0.36104227270E+02  0.73262728572E+02 -0.21865716767E+03  0.23346089522E+03  0.47000000000E+01 0.  1.
<mgrwt>
<rscale>  0 0.14257000E+03</rscale>
<asrwt>0</asrwt>
<pdfrwt beam="1">  1        5 0.86162448E-02 0.14257172E+03</pdfrwt>
<pdfrwt beam="2">  1       -5 0.58590477E-01 0.14257172E+03</pdfrwt>
<totfact> 0.20632933E+02</totfact>
</mgrwt>
</event>
<event>
 8    1  0.3488953E-007  0.1335713E+03  0.7546771E-02  0.1222251E+00
          5   -1    0    0  501    0  0.00000000000E+00  0.00000000000E+00  0.15493850032E+03  0.15500977028E+03  0.47000000000E+01 0. -1.
         -5   -1    0    0    0  501 -0.00000000000E+00 -0.00000000000E+00 -0.13795100658E+03  0.13803104801E+03  0.47000000000E+01 0. -1.
         25    2    1    2    0    0 -0.31131639969E+02  0.35313148129E+02 -0.51230764754E+02  0.14305899024E+03  0.12500034397E+03 0.  0.
         25    2    1    2    0    0  0.31131639969E+02 -0.35313148129E+02  0.68218258495E+02  0.14998182805E+03  0.12499848205E+03 0.  0.
          5    1    4    4  502    0 -0.46986264735E+02 -0.11995222183E+02  0.10110704376E+02  0.49758524616E+02  0.47000000000E+01 0.  1.
         -5    1    4    4    0  502  0.78117904704E+02 -0.23317925947E+02  0.58107554119E+02  0.10022330343E+03  0.47000000000E+01 0.  1.
          5    1    3    3  503    0  0.30689456614E+02 -0.29125716561E+02 -0.27005272578E+02  0.50413538454E+02  0.47000000000E+01 0. -1.
         -5    1    3    3    0  503 -0.61821096583E+02  0.64438864691E+02 -0.24225492177E+02  0.92645451786E+02  0.47000000000E+01 0. -1.
<mgrwt>
<rscale>  0 0.13357083E+03</rscale>
<asrwt>0</asrwt>
<pdfrwt beam="1">  1        5 0.23848332E-01 0.13357127E+03</pdfrwt>
<pdfrwt beam="2">  1       -5 0.21234871E-01 0.13357127E+03</pdfrwt>
<totfact> 0.24787410E+02</totfact>
</mgrwt>
</event>
<event>
 8    1  0.3488953E-007  0.1312260E+03  0.7546771E-02  0.1225651E+00
          5   -1    0    0  501    0  0.00000000000E+00  0.00000000000E+00  0.16077201911E+02  0.16750117053E+02  0.47000000000E+01 0. -1.
         -5   -1    0    0    0  501 -0.00000000000E+00 -0.00000000000E+00 -0.10599411733E+04  0.10599515937E+04  0.47000000000E+01 0. -1.
         25    2    1    2    0    0 -0.35973138713E+02 -0.17317342137E+02 -0.57811588318E+03  0.59282226383E+03  0.12500522012E+03 0.  0.
         25    2    1    2    0    0  0.35973138713E+02  0.17317342137E+02 -0.46574808824E+03  0.48387944689E+03  0.12499632147E+03 0.  0.
          5    1    3    3  502    0 -0.68724135575E+02  0.26948383430E+02 -0.27869252777E+03  0.28834152877E+03  0.47000000000E+01 0. -1.
         -5    1    3    3    0  502  0.32750996862E+02 -0.44265725567E+02 -0.29942335542E+03  0.30448073506E+03  0.47000000000E+01 0. -1.
          5    1    4    4  503    0 -0.22613987463E+02  0.54168319162E+02 -0.16376690793E+03  0.17403243768E+03  0.47000000000E+01 0. -1.
         -5    1    4    4    0  503  0.58587126176E+02 -0.36850977025E+02 -0.30198118031E+03  0.30984700922E+03  0.47000000000E+01 0. -1.
<mgrwt>
<rscale>  0 0.13122388E+03</rscale>
<asrwt>0</asrwt>
<pdfrwt beam="1">  1        5 0.25259808E-02 0.13122600E+03</pdfrwt>
<pdfrwt beam="2">  1       -5 0.16312038E+00 0.13122600E+03</pdfrwt>
<totfact> 0.12581034E+02</totfact>
</mgrwt>
</event>
<event>
 8    1  0.3488953E-007  0.1900394E+03  0.7546771E-02  0.1158426E+00
          5   -1    0    0  501    0  0.00000000000E+00  0.00000000000E+00  0.13728472771E+03  0.13736515738E+03  0.47000000000E+01 0. -1.
         -5   -1    0    0    0  501 -0.00000000000E+00 -0.00000000000E+00 -0.29642618267E+03  0.29646344087E+03  0.47000000000E+01 0. -1.
         25    2    1    2    0    0 -0.11132750142E+02  0.14270985937E+03 -0.15251916149E+03  0.24367380755E+03  0.12499915110E+03 0.  0.
         25    2    1    2    0    0  0.11132750142E+02 -0.14270985937E+03 -0.66222934684E+01  0.19015479070E+03  0.12499979027E+03 0.  0.
          5    1    4    4  502    0 -0.67108563182E+01  0.14345993543E+02 -0.26032202835E+02  0.30831942977E+02  0.47000000000E+01 0.  1.
         -5    1    4    4    0  502  0.17843606460E+02 -0.15705585291E+03  0.19409909367E+02  0.15932284772E+03  0.47000000000E+01 0.  1.
          5    1    3    3  503    0  0.27220275412E+02  0.14832277137E+03 -0.11759834849E+03  0.19129048452E+03  0.47000000000E+01 0.  1.
         -5    1    3    3    0  503 -0.38353025554E+02 -0.56129120055E+01 -0.34920813006E+02  0.52383323027E+02  0.47000000000E+01 0.  1.
<mgrwt>
<rscale>  0 0.19003934E+03</rscale>
<asrwt>0</asrwt>
<pdfrwt beam="1">  1        5 0.21129780E-01 0.19003944E+03</pdfrwt>
<pdfrwt beam="2">  1       -5 0.45613081E-01 0.19003944E+03</pdfrwt>
<totfact> 0.76531904E+01</totfact>
</mgrwt>
</event>
<event>
 8    1  0.3488953E-007  0.1538337E+03  0.7546771E-02  0.1195850E+00
          5   -1    0    0  501    0  0.00000000000E+00  0.00000000000E+00  0.45880479568E+02  0.46120585484E+02  0.47000000000E+01 0. -1.
         -5   -1    0    0    0  501 -0.00000000000E+00 -0.00000000000E+00 -0.59501793101E+03  0.59503649319E+03  0.47000000000E+01 0. -1.
         25    2    1    2    0    0 -0.68978482954E+02 -0.57288357701E+02 -0.39280793307E+03  0.42185648338E+03  0.12499933298E+03 0.  0.
         25    2    1    2    0    0  0.68978482954E+02  0.57288357701E+02 -0.15632951837E+03  0.21930059530E+03  0.12495537501E+03 0.  0.
          5    1    3    3  502    0 -0.56812940917E+01 -0.14462445677E+02 -0.30468036836E+03  0.30511253056E+03  0.47000000000E+01 0.  1.
         -5    1    3    3    0  502 -0.63297188862E+02 -0.42825912024E+02 -0.88127564713E+02  0.11674395282E+03  0.47000000000E+01 0.  1.
          5    1    4    4  503    0 -0.15209552269E+02 -0.18110866594E+02  0.25733131612E+01  0.24249657928E+02  0.47000000000E+01 0. -1.
         -5    1    4    4    0  503  0.84188035222E+02  0.75399224295E+02 -0.15890283153E+03  0.19505093737E+03  0.47000000000E+01 0. -1.
<mgrwt>
<rscale>  0 0.15382481E+03</rscale>
<asrwt>0</asrwt>
<pdfrwt beam="1">  1        5 0.70784333E-02 0.15383374E+03</pdfrwt>
<pdfrwt beam="2">  1       -5 0.91561112E-01 0.15383374E+03</pdfrwt>
<totfact> 0.10709154E+02</totfact>
</mgrwt>
</event>
<event>
 8    1  0.3488953E-007  0.1850943E+03  0.7546771E-02  0.1162963E+00
         -5   -1    0    0    0  501 -0.00000000000E+00  0.00000000000E+00  0.40100508706E+03  0.40103262940E+03  0.47000000000E+01 0. -1.
          5   -1    0    0  501    0  0.00000000000E+00 -0.00000000000E+00 -0.88145832741E+02  0.88271047516E+02  0.47000000000E+01 0. -1.
         25    2    1    2    0    0 -0.11004901357E+03  0.80759013345E+02  0.20005583790E+03  0.27254767716E+03  0.12500837740E+03 0.  0.
         25    2    1    2    0    0  0.11004901357E+03 -0.80759013345E+02  0.11280341642E+03  0.21675599976E+03  0.12500299618E+03 0.  0.
          5    1    3    3  502    0 -0.43121448027E+02  0.18540691614E+02 -0.55518450367E+01  0.47498731655E+02  0.47000000000E+01 0. -1.
         -5    1    3    3    0  502 -0.66927565546E+02  0.62218321731E+02  0.20560768294E+03  0.22504894550E+03  0.47000000000E+01 0. -1.
          5    1    4    4  503    0 -0.22234396409E+02  0.95699279209E+01  0.18389090824E+02  0.30760373298E+02  0.47000000000E+01 0.  1.
         -5    1    4    4    0  503  0.13228340998E+03 -0.90328941265E+02  0.94414325593E+02  0.18599562646E+03  0.47000000000E+01 0.  1.
<mgrwt>
<rscale>  0 0.18509339E+03</rscale>
<asrwt>0</asrwt>
<pdfrwt beam="2">  1        5 0.13572648E-01 0.18509430E+03</pdfrwt>
<pdfrwt beam="1">  1       -5 0.61704842E-01 0.18509430E+03</pdfrwt>
<totfact> 0.89587964E+01</totfact>
</mgrwt>
</event>
<event>
 8    1  0.3488953E-007  0.1432328E+03  0.7546771E-02  0.1209052E+00
         -5   -1    0    0    0  501 -0.00000000000E+00  0.00000000000E+00  0.22326868955E+03  0.22331815361E+03  0.47000000000E+01 0.  1.
          5   -1    0    0  501    0  0.00000000000E+00 -0.00000000000E+00 -0.96169314734E+02  0.96284095761E+02  0.47000000000E+01 0.  1.
         25    2    1    2    0    0  0.28081768943E+02 -0.63995146839E+02  0.97776708607E+02  0.17342410442E+03  0.12502667988E+03 0.  0.
         25    2    1    2    0    0 -0.28081768943E+02  0.63995146839E+02  0.29322666206E+02  0.14617814495E+03  0.12499706694E+03 0.  0.
          5    1    4    4  502    0 -0.22264153391E+02  0.10162205520E+03  0.27798530758E+02  0.10778489200E+03  0.47000000000E+01 0.  1.
         -5    1    4    4    0  502 -0.58176155522E+01 -0.37626908366E+02  0.15241354481E+01  0.38393252958E+02  0.47000000000E+01 0.  1.
          5    1    3    3  503    0  0.60209518936E+02 -0.78760462226E+02  0.43242855455E+02  0.10826093999E+03  0.47000000000E+01 0.  1.
         -5    1    3    3    0  503 -0.32127749993E+02  0.14765315386E+02  0.54533853152E+02  0.65163164423E+02  0.47000000000E+01 0.  1.
<mgrwt>
<rscale>  0 0.14322634E+03</rscale>
<asrwt>0</asrwt>
<pdfrwt beam="2">  1        5 0.14807913E-01 0.14323280E+03</pdfrwt>
<pdfrwt beam="1">  1       -5 0.34361663E-01 0.14323280E+03</pdfrwt>
<totfact> 0.24182039E+02</totfact>
</mgrwt>
</event>
<event>
 8    1  0.3488953E-007  0.2096904E+03  0.7546771E-02  0.1141812E+00
         -5   -1    0    0    0  501 -0.00000000000E+00  0.00000000000E+00  0.98177898098E+03  0.98179023090E+03  0.47000000000E+01 0. -1.
          5   -1    0    0  501    0  0.00000000000E+00 -0.00000000000E+00 -0.46394945426E+02  0.46632402480E+02  0.47000000000E+01 0. -1.
         25    2    1    2    0    0  0.12777235709E+03  0.10962897946E+03  0.36825025693E+03  0.42376682931E+03  0.12500314203E+03 0.  0.
         25    2    1    2    0    0 -0.12777235709E+03 -0.10962897946E+03  0.56713377862E+03  0.60465580407E+03  0.12499452058E+03 0.  0.
          5    1    3    3  502    0  0.62775363747E+02  0.66289001153E+02  0.69225883290E+02  0.11467035748E+03  0.47000000000E+01 0.  1.
         -5    1    3    3    0  502  0.64996993340E+02  0.43339978308E+02  0.29902437364E+03  0.30909647183E+03  0.47000000000E+01 0.  1.
          5    1    4    4  503    0 -0.14076840401E+03 -0.72095157112E+02  0.51613494585E+03  0.53984333614E+03  0.47000000000E+01 0.  1.
         -5    1    4    4    0  503  0.12996046925E+02 -0.37533822349E+02  0.50998832767E+02  0.64812467932E+02  0.47000000000E+01 0.  1.
<mgrwt>
<rscale>  0 0.20968914E+03</rscale>
<asrwt>0</asrwt>
<pdfrwt beam="2">  1        5 0.71568159E-02 0.20969042E+03</pdfrwt>
<pdfrwt beam="1">  1       -5 0.15106204E+00 0.20969042E+03</pdfrwt>
<totfact> 0.31746498E+01</totfact>
</mgrwt>
</event>
<event>
 8    1  0.3488953E-007  0.1915731E+03  0.7546771E-02  0.1157052E+00
          5   -1    0    0  501    0  0.00000000000E+00  0.00000000000E+00  0.14031614351E+02  0.14797844481E+02  0.47000000000E+01 0. -1.
         -5   -1    0    0    0  501 -0.00000000000E+00 -0.00000000000E+00 -0.26124728859E+04  0.26124771136E+04  0.47000000000E+01 0. -1.
         25    2    1    2    0    0  0.10780385207E+03  0.97221012552E+02 -0.15100623446E+04  0.15221657416E+04  0.12500665814E+03 0.  0.
         25    2    1    2    0    0 -0.10780385207E+03 -0.97221012552E+02 -0.10883789269E+04  0.11051092165E+04  0.12499638427E+03 0.  0.
          5    1    3    3  502    0 -0.69670297408E+01 -0.13376825909E+02 -0.33720776844E+02  0.37237880791E+02  0.47000000000E+01 0. -1.
         -5    1    3    3    0  502  0.11477088181E+03  0.11059783846E+03 -0.14763415677E+04  0.14849278608E+04  0.47000000000E+01 0. -1.
          5    1    4    4  503    0 -0.63345815768E+02 -0.68535346180E+01 -0.17712866371E+03  0.18829847801E+03  0.47000000000E+01 0. -1.
         -5    1    4    4    0  503 -0.44458036299E+02 -0.90367477934E+02 -0.91125026321E+03  0.91681073852E+03  0.47000000000E+01 0. -1.
<mgrwt>
<rscale>  0 0.19157144E+03</rscale>
<asrwt>0</asrwt>
<pdfrwt beam="1">  1        5 0.22179780E-02 0.19157312E+03</pdfrwt>
<pdfrwt beam="2">  1       -5 0.40197780E+00 0.19157312E+03</pdfrwt>
<totfact> 0.44082537E+00</totfact>
</mgrwt>
</event>
<event>
 8    1  0.3488953E-007  0.1364889E+03  0.7546771E-02  0.1218135E+00
         -5   -1    0    0    0  501 -0.00000000000E+00  0.00000000000E+00  0.21177630769E+03  0.21182845536E+03  0.47000000000E+01 0. -1.
          5   -1    0    0  501    0  0.00000000000E+00 -0.00000000000E+00 -0.10214648581E+03  0.10225455767E+03  0.47000000000E+01 0. -1.
         25    2    1    2    0    0 -0.31694685983E+02 -0.44722293085E+02  0.11354670667E+03  0.17754460435E+03  0.12499838127E+03 0.  0.
         25    2    1    2    0    0  0.31694685983E+02  0.44722293085E+02 -0.39168847951E+01  0.13653840868E+03  0.12499103343E+03 0.  0.
          5    1    3    3  502    0 -0.56385004207E+02  0.79253756265E+01  0.10367613251E+03  0.11837614088E+03  0.47000000000E+01 0. -1.
         -5    1    3    3    0  502  0.24690318223E+02 -0.52647668711E+02  0.98705741585E+01  0.59168463466E+02  0.47000000000E+01 0. -1.
          5    1    4    4  503    0 -0.47574784046E+01 -0.62338001343E+01  0.51777631857E+02  0.52578579532E+02  0.47000000000E+01 0.  1.
         -5    1    4    4    0  503  0.36452164388E+02  0.50956093219E+02 -0.55694516652E+02  0.83959829143E+02  0.47000000000E+01 0.  1.
<mgrwt>
<rscale>  0 0.13648726E+03</rscale>
<asrwt>0</asrwt>
<pdfrwt beam="2">  1        5 0.15727169E-01 0.13648894E+03</pdfrwt>
<pdfrwt beam="1">  1       -5 0.32593295E-01 0.13648894E+03</pdfrwt>
<totfact> 0.23697785E+02</totfact>
</mgrwt>
</event>
<event>
 8    1  0.3488953E-007  0.1516165E+03  0.7546771E-02  0.1198503E+00
         -5   -1    0    0    0  501 -0.00000000000E+00  0.00000000000E+00  0.12499179200E+03  0.12508012659E+03  0.47000000000E+01 0. -1.
          5   -1    0    0  501    0  0.00000000000E+00 -0.00000000000E+00 -0.18529327989E+03  0.18535287851E+03  0.47000000000E+01 0. -1.
         25    2    1    2    0    0  0.51627856168E+02  0.68518906164E+02 -0.15852954621E+02  0.15244302956E+03  0.12500913990E+03 0.  0.
         25    2    1    2    0    0 -0.51627856168E+02 -0.68518906164E+02 -0.44448533273E+02  0.15798997554E+03  0.12499953690E+03 0.  0.
          5    1    3    3  502    0 -0.35784398324E+02  0.10418513544E+01 -0.21049075526E+02  0.41794284276E+02  0.47000000000E+01 0.  1.
         -5    1    3    3    0  502  0.87412254492E+02  0.67477054810E+02  0.51961209057E+01  0.11064874529E+03  0.47000000000E+01 0.  1.
          5    1    4    4  503    0  0.21114080071E+02 -0.58122507327E+02  0.14475489866E+02  0.63684064271E+02  0.47000000000E+01 0.  1.
         -5    1    4    4    0  503 -0.72741936239E+02 -0.10396398837E+02 -0.58924023139E+02  0.94305911265E+02  0.47000000000E+01 0.  1.
<mgrwt>
<rscale>  0 0.15161451E+03</rscale>
<asrwt>0</asrwt>
<pdfrwt beam="2">  1        5 0.28518038E-01 0.15161649E+03</pdfrwt>
<pdfrwt beam="1">  1       -5 0.19240886E-01 0.15161649E+03</pdfrwt>
<totfact> 0.22033325E+02</totfact>
</mgrwt>
</event>
<event>
 8    1  0.3488953E-007  0.1323620E+03  0.7546771E-02  0.1223994E+00
         -5   -1    0    0    0  501 -0.00000000000E+00  0.00000000000E+00  0.55227498394E+02  0.55427128546E+02  0.47000000000E+01 0.  1.
          5   -1    0    0  501    0  0.00000000000E+00 -0.00000000000E+00 -0.37722703249E+03  0.37725631081E+03  0.47000000000E+01 0.  1.
         25    2    1    2    0    0 -0.54593540963E+01 -0.43175624821E+02 -0.74169778071E+02  0.15172205848E+03  0.12499795168E+03 0.  0.
         25    2    1    2    0    0  0.54593540963E+01  0.43175624821E+02 -0.24782975603E+03  0.28096138087E+03  0.12500308173E+03 0.  0.
          5    1    3    3  502    0  0.55546560646E+02  0.22400578356E+01 -0.36963452981E+02  0.66924024946E+02  0.47000000000E+01 0.  1.
         -5    1    3    3    0  502 -0.61005914742E+02 -0.45415682656E+02 -0.37206325090E+02  0.84798033535E+02  0.47000000000E+01 0.  1.
          5    1    4    4  503    0  0.34736582186E+02  0.16750592262E+02 -0.23648492775E+03  0.23965480078E+03  0.47000000000E+01 0. -1.
         -5    1    4    4    0  503 -0.29277228089E+02  0.26425032559E+02 -0.11344828279E+02  0.41306580094E+02  0.47000000000E+01 0. -1.
<mgrwt>
<rscale>  0 0.13236083E+03</rscale>
<asrwt>0</asrwt>
<pdfrwt beam="2">  1        5 0.58052535E-01 0.13236204E+03</pdfrwt>
<pdfrwt beam="1">  1       -5 0.85141468E-02 0.13236204E+03</pdfrwt>
<totfact> 0.20960388E+02</totfact>
</mgrwt>
</event>
<event>
 8    1  0.3488953E-007  0.1324432E+03  0.7546771E-02  0.1223879E+00
          5   -1    0    0  501    0  0.00000000000E+00  0.00000000000E+00  0.69888148739E+02  0.70046008696E+02  0.47000000000E+01 0. -1.
         -5   -1    0    0    0  501 -0.00000000000E+00 -0.00000000000E+00 -0.25292165940E+03  0.25296532528E+03  0.47000000000E+01 0. -1.
         25    2    1    2    0    0 -0.13027653500E+02 -0.41746349379E+02 -0.10729729096E+03  0.17044275186E+03  0.12500218226E+03 0.  0.
         25    2    1    2    0    0  0.13027653500E+02  0.41746349379E+02 -0.75736219702E+02  0.15256858212E+03  0.12501487845E+03 0.  0.
          5    1    4    4  502    0  0.64331035866E+02  0.38750886257E+02 -0.65919570041E+02  0.10003795817E+03  0.47000000000E+01 0.  1.
         -5    1    4    4    0  502 -0.51303382367E+02  0.29954631219E+01 -0.98166496602E+01  0.52530623946E+02  0.47000000000E+01 0.  1.
          5    1    3    3  503    0  0.21924889028E+02 -0.16451867865E+02 -0.12160520252E+03  0.12474485959E+03  0.47000000000E+01 0. -1.
         -5    1    3    3    0  503 -0.34952542527E+02 -0.25294481514E+02  0.14307911558E+02  0.45697892264E+02  0.47000000000E+01 0. -1.
<mgrwt>
<rscale>  0 0.13244019E+03</rscale>
<asrwt>0</asrwt>
<pdfrwt beam="1">  1        5 0.10767525E-01 0.13244319E+03</pdfrwt>
<pdfrwt beam="2">  1       -5 0.38926526E-01 0.13244319E+03</pdfrwt>
<totfact> 0.32289754E+02</totfact>
</mgrwt>
</event>
<event>
 8    1  0.3488953E-007  0.1586060E+03  0.7546771E-02  0.1190282E+00
          5   -1    0    0  501    0  0.00000000000E+00  0.00000000000E+00  0.74125155712E+02  0.74274010995E+02  0.47000000000E+01 0. -1.
         -5   -1    0    0    0  501 -0.00000000000E+00 -0.00000000000E+00 -0.34941625839E+03  0.34944786682E+03  0.47000000000E+01 0. -1.
         25    2    1    2    0    0 -0.96930362860E+02  0.11534162656E+02 -0.17449352120E+03  0.23580470296E+03  0.12500934704E+03 0.  0.
         25    2    1    2    0    0  0.96930362860E+02 -0.11534162656E+02 -0.10079758148E+03  0.18791717485E+03  0.12499672004E+03 0.  0.
          5    1    3    3  502    0 -0.69500470291E+02  0.32522404170E+02 -0.18421905676E+03  0.19961656498E+03  0.47000000000E+01 0.  1.
         -5    1    3    3    0  502 -0.27429892569E+02 -0.20988241513E+02  0.97255355613E+01  0.36188137976E+02  0.47000000000E+01 0.  1.
          5    1    4    4  503    0 -0.81231206393E+01 -0.32944765297E+02  0.79157824457E+01  0.35158103776E+02  0.47000000000E+01 0.  1.
         -5    1    4    4    0  503  0.10505348350E+03  0.21410602641E+02 -0.10871336392E+03  0.15275907108E+03  0.47000000000E+01 0.  1.
<mgrwt>
<rscale>  0 0.15860353E+03</rscale>
<asrwt>0</asrwt>
<pdfrwt beam="1">  1        5 0.11417752E-01 0.15860602E+03</pdfrwt>
<pdfrwt beam="2">  1       -5 0.53770228E-01 0.15860602E+03</pdfrwt>
<totfact> 0.15734155E+02</totfact>
</mgrwt>
</event>
<event>
 8    1  0.3488953E-007  0.1445663E+03  0.7546771E-02  0.1207317E+00
          5   -1    0    0  501    0  0.00000000000E+00  0.00000000000E+00  0.25101395553E+03  0.25105795321E+03  0.47000000000E+01 0.  1.
         -5   -1    0    0    0  501 -0.00000000000E+00 -0.00000000000E+00 -0.90874890183E+02  0.90996349739E+02  0.47000000000E+01 0.  1.
         25    2    1    2    0    0  0.72617420015E+02  0.86291116555E+00  0.30209731435E+02  0.14768901496E+03  0.12500153183E+03 0.  0.
         25    2    1    2    0    0 -0.72617420015E+02 -0.86291116555E+00  0.12992933391E+03  0.19436528799E+03  0.12498879574E+03 0.  0.
          5    1    4    4  502    0 -0.71394848819E+02  0.11004258491E+02  0.15227261419E+03  0.16860414341E+03  0.47000000000E+01 0.  1.
         -5    1    4    4    0  502 -0.12225711961E+01 -0.11867169657E+02 -0.22343280285E+02  0.25761144576E+02  0.47000000000E+01 0.  1.
          5    1    3    3  503    0 -0.11719150261E+02 -0.46165328539E+02  0.86226091039E+01  0.48631424303E+02  0.47000000000E+01 0. -1.
         -5    1    3    3    0  503  0.84336570276E+02  0.47028239705E+02  0.21587122332E+02  0.99057590654E+02  0.47000000000E+01 0. -1.
<mgrwt>
<rscale>  0 0.14456355E+03</rscale>
<asrwt>0</asrwt>
<pdfrwt beam="1">  1        5 0.38630258E-01 0.14456631E+03</pdfrwt>
<pdfrwt beam="2">  1       -5 0.13993480E-01 0.14456631E+03</pdfrwt>
<totfact> 0.21210050E+02</totfact>
</mgrwt>
</event>
<event>
 8    1  0.3488953E-007  0.1255331E+03  0.7546771E-02  0.1234250E+00
          5   -1    0    0  501    0  0.00000000000E+00  0.00000000000E+00  0.10460527223E+03  0.10471080641E+03  0.47000000000E+01 0.  1.
         -5   -1    0    0    0  501 -0.00000000000E+00 -0.00000000000E+00 -0.16260050120E+03  0.16266841424E+03  0.47000000000E+01 0.  1.
         25    2    1    2    0    0 -0.33003235969E+01  0.11201461252E+02 -0.65612650950E+02  0.14164596994E+03  0.12498878336E+03 0.  0.
         25    2    1    2    0    0  0.33003235969E+01 -0.11201461252E+02  0.76174219804E+01  0.12573325070E+03  0.12495783426E+03 0.  0.
          5    1    4    4  502    0  0.36493351088E+02 -0.16180026728E+02 -0.46758188100E+02  0.61660166177E+02  0.47000000000E+01 0.  1.
         -5    1    4    4    0  502 -0.33193027491E+02  0.49785654765E+01  0.54375610081E+02  0.64073084520E+02  0.47000000000E+01 0.  1.
          5    1    3    3  503    0 -0.21971697471E+02  0.64752691792E+02 -0.38447965545E+02  0.78587547606E+02  0.47000000000E+01 0. -1.
         -5    1    3    3    0  503  0.18671373874E+02 -0.53551230540E+02 -0.27164685404E+02  0.63058422339E+02  0.47000000000E+01 0. -1.
<mgrwt>
<rscale>  0 0.12552540E+03</rscale>
<asrwt>0</asrwt>
<pdfrwt beam="1">  1        5 0.16106461E-01 0.12553311E+03</pdfrwt>
<pdfrwt beam="2">  1       -5 0.25028804E-01 0.12553311E+03</pdfrwt>
<totfact> 0.36838301E+02</totfact>
</mgrwt>
</event>
<event>
 8    1  0.3488953E-007  0.1543347E+03  0.7546771E-02  0.1195246E+00
          5   -1    0    0  501    0  0.00000000000E+00  0.00000000000E+00  0.76593868589E+02  0.76737935244E+02  0.47000000000E+01 0. -1.
         -5   -1    0    0    0  501 -0.00000000000E+00 -0.00000000000E+00 -0.32378229716E+03  0.32381640779E+03  0.47000000000E+01 0. -1.
         25    2    1    2    0    0 -0.53528568670E+02  0.72994954659E+02 -0.16410808878E+03  0.22527873251E+03  0.12500188579E+03 0.  0.
         25    2    1    2    0    0  0.53528568670E+02 -0.72994954659E+02 -0.83080339788E+02  0.17527561052E+03  0.12500250283E+03 0.  0.
          5    1    4    4  502    0  0.63103923735E+02 -0.10364854408E+03 -0.70825876543E+02  0.14058278938E+03  0.47000000000E+01 0.  1.
         -5    1    4    4    0  502 -0.95753550649E+01  0.30653589423E+02 -0.12254463245E+02  0.34692821139E+02  0.47000000000E+01 0.  1.
          5    1    3    3  503    0 -0.83088204638E+02  0.83955023259E+02 -0.14844622105E+03  0.18976423853E+03  0.47000000000E+01 0. -1.
         -5    1    3    3    0  503  0.29559635968E+02 -0.10960068600E+02 -0.15661867733E+02  0.35514493988E+02  0.47000000000E+01 0. -1.
<mgrwt>
<rscale>  0 0.15433457E+03</rscale>
<asrwt>0</asrwt>
<pdfrwt beam="1">  1        5 0.11797378E-01 0.15433469E+03</pdfrwt>
<pdfrwt beam="2">  1       -5 0.49826366E-01 0.15433469E+03</pdfrwt>
<totfact> 0.17320554E+02</totfact>
</mgrwt>
</event>
<event>
 8    1  0.3488953E-007  0.1888072E+03  0.7546771E-02  0.1159542E+00
          5   -1    0    0  501    0  0.00000000000E+00  0.00000000000E+00  0.28739139982E+03  0.28742982916E+03  0.47000000000E+01 0.  1.
         -5   -1    0    0    0  501 -0.00000000000E+00 -0.00000000000E+00 -0.14543711326E+03  0.14551303692E+03  0.47000000000E+01 0.  1.
         25    2    1    2    0    0 -0.11899357086E+02  0.14100742155E+03 -0.12195643583E+02  0.18920046244E+03  0.12499357437E+03 0.  0.
         25    2    1    2    0    0  0.11899357086E+02 -0.14100742155E+03  0.15414993014E+03  0.24374240363E+03  0.12499388279E+03 0.  0.
          5    1    4    4  502    0  0.60970835068E+02 -0.10923811988E+03  0.12952291114E+03  0.18013518278E+03  0.47000000000E+01 0.  1.
         -5    1    4    4    0  502 -0.49071477982E+02 -0.31769301672E+02  0.24627019001E+02  0.63607220855E+02  0.47000000000E+01 0.  1.
          5    1    3    3  503    0 -0.21586372701E+02  0.72052668527E+02 -0.66706320394E+02  0.10064482952E+03  0.47000000000E+01 0.  1.
         -5    1    3    3    0  503  0.96870156147E+01  0.68954753024E+02  0.54510676811E+02  0.88555632924E+02  0.47000000000E+01 0.  1.
<mgrwt>
<rscale>  0 0.18880715E+03</rscale>
<asrwt>0</asrwt>
<pdfrwt beam="1">  1        5 0.44222858E-01 0.18880720E+03</pdfrwt>
<pdfrwt beam="2">  1       -5 0.22383737E-01 0.18880720E+03</pdfrwt>
<totfact> 0.73073049E+01</totfact>
</mgrwt>
</event>
<event>
 8    1  0.3488953E-007  0.1447648E+03  0.7546771E-02  0.1207058E+00
         -5   -1    0    0    0  501 -0.00000000000E+00  0.00000000000E+00  0.14531780976E+04  0.14531856981E+04  0.47000000000E+01 0. -1.
          5   -1    0    0  501    0  0.00000000000E+00 -0.00000000000E+00 -0.17649423338E+02  0.18264505035E+02  0.47000000000E+01 0. -1.
         25    2    1    2    0    0  0.12256500538E+02  0.71986704206E+02  0.10445080535E+04  0.10544922064E+04  0.12499772887E+03 0.  0.
         25    2    1    2    0    0 -0.12256500538E+02 -0.71986704206E+02  0.39102062075E+03  0.41695799675E+03  0.12499815124E+03 0.  0.
          5    1    4    4  502    0  0.62976355854E+01 -0.28293735485E+02  0.35738748881E+03  0.35859183320E+03  0.47000000000E+01 0.  1.
         -5    1    4    4    0  502 -0.18554136123E+02 -0.43692968721E+02  0.33633131941E+02  0.58366163546E+02  0.47000000000E+01 0.  1.
          5    1    3    3  503    0  0.34007072855E+02  0.85531228558E+02  0.98776065601E+03  0.99205104487E+03  0.47000000000E+01 0.  1.
         -5    1    3    3    0  503 -0.21750572317E+02 -0.13544524352E+02  0.56747397475E+02  0.62441161554E+02  0.47000000000E+01 0.  1.
<mgrwt>
<rscale>  0 0.14476470E+03</rscale>
<asrwt>0</asrwt>
<pdfrwt beam="2">  1        5 0.27631941E-02 0.14476479E+03</pdfrwt>
<pdfrwt beam="1">  1       -5 0.22361380E+00 0.14476479E+03</pdfrwt>
<totfact> 0.42855694E+01</totfact>
</mgrwt>
</event>
<event>
 8    1  0.3488953E-007  0.1457819E+03  0.7546771E-02  0.1205755E+00
         -5   -1    0    0    0  501 -0.00000000000E+00  0.00000000000E+00  0.20722874259E+03  0.20728203433E+03  0.47000000000E+01 0.  1.
          5   -1    0    0  501    0  0.00000000000E+00 -0.00000000000E+00 -0.12826488748E+03  0.12835096946E+03  0.47000000000E+01 0.  1.
         25    2    1    2    0    0 -0.70920519873E+02  0.24428932902E+02  0.11475108277E+03  0.18552670790E+03  0.12500342174E+03 0.  0.
         25    2    1    2    0    0  0.70920519873E+02 -0.24428932902E+02 -0.35787227655E+02  0.15010629589E+03  0.12499872599E+03 0.  0.
          5    1    4    4  502    0 -0.38877992652E+01  0.43900596064E+02 -0.95038884748E+01  0.45329804919E+02  0.47000000000E+01 0. -1.
         -5    1    4    4    0  502  0.74808319139E+02 -0.68329528966E+02 -0.26283339180E+02  0.10477649097E+03  0.47000000000E+01 0. -1.
          5    1    3    3  503    0 -0.68323645968E+02 -0.36365000446E+02  0.34925569681E+02  0.85043631586E+02  0.47000000000E+01 0. -1.
         -5    1    3    3    0  503 -0.25968739052E+01  0.60793933348E+02  0.79825513085E+02  0.10048307631E+03  0.47000000000E+01 0. -1.
<mgrwt>
<rscale>  0 0.14578085E+03</rscale>
<asrwt>0</asrwt>
<pdfrwt beam="2">  1        5 0.19743781E-01 0.14578185E+03</pdfrwt>
<pdfrwt beam="1">  1       -5 0.31892066E-01 0.14578185E+03</pdfrwt>
<totfact> 0.16637085E+02</totfact>
</mgrwt>
</event>
<event>
 8    1  0.3488953E-007  0.1343111E+03  0.7546771E-02  0.1221196E+00
          5   -1    0    0  501    0  0.00000000000E+00  0.00000000000E+00  0.16057162399E+03  0.16064039476E+03  0.47000000000E+01 0.  1.
         -5   -1    0    0    0  501 -0.00000000000E+00 -0.00000000000E+00 -0.11300129153E+03  0.11309899154E+03  0.47000000000E+01 0.  1.
         25    2    1    2    0    0 -0.39308359394E+02 -0.29470254467E+02  0.35284570645E+02  0.13886854324E+03  0.12500331340E+03 0.  0.
         25    2    1    2    0    0  0.39308359394E+02  0.29470254467E+02  0.12285761807E+02  0.13487084307E+03  0.12500224538E+03 0.  0.
          5    1    3    3  502    0 -0.58514629245E+02 -0.48002555799E+02 -0.19018106453E+02  0.78179188868E+02  0.47000000000E+01 0.  1.
         -5    1    3    3    0  502  0.19206269852E+02  0.18532301332E+02  0.54302677098E+02  0.60689354374E+02  0.47000000000E+01 0.  1.
          5    1    4    4  503    0  0.35532489353E+02 -0.14745653318E+02  0.58792243517E+02  0.70417398342E+02  0.47000000000E+01 0.  1.
         -5    1    4    4    0  503  0.37758700402E+01  0.44215907784E+02 -0.46506481710E+02  0.64453444724E+02  0.47000000000E+01 0.  1.
<mgrwt>
<rscale>  0 0.13431085E+03</rscale>
<asrwt>0</asrwt>
<pdfrwt beam="1">  1        5 0.24716132E-01 0.13431110E+03</pdfrwt>
<pdfrwt beam="2">  1       -5 0.17397619E-01 0.13431110E+03</pdfrwt>
<totfact> 0.33588554E+02</totfact>
</mgrwt>
</event>
<event>
 8    1  0.3488953E-007  0.1332017E+03  0.7546771E-02  0.1222785E+00
          5   -1    0    0  501    0  0.00000000000E+00  0.00000000000E+00  0.22973005182E+03  0.22977812495E+03  0.47000000000E+01 0. -1.
         -5   -1    0    0    0  501 -0.00000000000E+00 -0.00000000000E+00 -0.12034193886E+03  0.12043368403E+03  0.47000000000E+01 0. -1.
         25    2    1    2    0    0  0.28817659765E+02 -0.35846672915E+02 -0.50201328641E+02  0.14233810190E+03  0.12499808151E+03 0.  0.
         25    2    1    2    0    0 -0.28817659765E+02  0.35846672915E+02  0.15958944160E+03  0.20787370708E+03  0.12500898669E+03 0.  0.
          5    1    3    3  502    0 -0.71566867562E+00  0.44426384407E+02 -0.36118420771E+01  0.44825787404E+02  0.47000000000E+01 0. -1.
         -5    1    3    3    0  502  0.29533328441E+02 -0.80273057322E+02 -0.46589486563E+02  0.97512314499E+02  0.47000000000E+01 0. -1.
          5    1    4    4  503    0  0.46754253545E+02  0.29052638098E+02  0.50099511765E+02  0.74579267119E+02  0.47000000000E+01 0. -1.
         -5    1    4    4    0  503 -0.75571913310E+02  0.67940348165E+01  0.10948992983E+03  0.13329443996E+03  0.47000000000E+01 0. -1.
<mgrwt>
<rscale>  0 0.13319912E+03</rscale>
<asrwt>0</asrwt>
<pdfrwt beam="1">  1        5 0.35353840E-01 0.13320168E+03</pdfrwt>
<pdfrwt beam="2">  1       -5 0.18524900E-01 0.13320168E+03</pdfrwt>
<totfact> 0.14802819E+02</totfact>
</mgrwt>
</event>
<event>
 8    1  0.3488953E-007  0.1257630E+03  0.7546771E-02  0.1233885E+00
          5   -1    0    0  501    0  0.00000000000E+00  0.00000000000E+00  0.96467053828E+03  0.96468198772E+03  0.47000000000E+01 0.  1.
         -5   -1    0    0    0  501 -0.00000000000E+00 -0.00000000000E+00 -0.16201255882E+02  0.16869223223E+02  0.47000000000E+01 0.  1.
         25    2    1    2    0    0 -0.13443439442E+02 -0.30648643673E+01  0.42717469535E+03  0.44530277067E+03  0.12500487093E+03 0.  0.
         25    2    1    2    0    0  0.13443439442E+02  0.30648643673E+01  0.52129458705E+03  0.53624844028E+03  0.12499689498E+03 0.  0.
          5    1    3    3  502    0  0.29777424614E+02  0.45278817869E+02  0.12685737638E+03  0.13802807796E+03  0.47000000000E+01 0.  1.
         -5    1    3    3    0  502 -0.43220864056E+02 -0.48343682236E+02  0.30031731897E+03  0.30727469270E+03  0.47000000000E+01 0.  1.
          5    1    4    4  503    0  0.31575403791E+02  0.91067733972E+01  0.30566493982E+02  0.45125824099E+02  0.47000000000E+01 0. -1.
         -5    1    4    4    0  503 -0.18131964349E+02 -0.60419090300E+01  0.49072809307E+03  0.49112261618E+03  0.47000000000E+01 0. -1.
<mgrwt>
<rscale>  0 0.12576104E+03</rscale>
<asrwt>0</asrwt>
<pdfrwt beam="1">  1        5 0.14846309E+00 0.12576302E+03</pdfrwt>
<pdfrwt beam="2">  1       -5 0.25447642E-02 0.12576302E+03</pdfrwt>
<totfact> 0.15898153E+02</totfact>
</mgrwt>
</event>
<event>
 8    1  0.3488953E-007  0.1376838E+03  0.7546771E-02  0.1216481E+00
          5   -1    0    0  501    0  0.00000000000E+00  0.00000000000E+00  0.29217987615E+02  0.29593593906E+02  0.47000000000E+01 0. -1.
         -5   -1    0    0    0  501 -0.00000000000E+00 -0.00000000000E+00 -0.64743542818E+03  0.64745248758E+03  0.47000000000E+01 0. -1.
         25    2    1    2    0    0  0.24842454947E+02  0.52100005968E+02 -0.33281176051E+03  0.36016730452E+03  0.12500104449E+03 0.  0.
         25    2    1    2    0    0 -0.24842454947E+02 -0.52100005968E+02 -0.28540568006E+03  0.31687877696E+03  0.12499679551E+03 0.  0.
          5    1    3    3  502    0  0.23579842368E+02  0.63319493230E+02 -0.33952607647E+03  0.34621584855E+03  0.47000000000E+01 0. -1.
         -5    1    3    3    0  502  0.12626125788E+01 -0.11219487262E+02  0.67143159544E+01  0.13951455970E+02  0.47000000000E+01 0. -1.
          5    1    4    4  503    0  0.16036528048E+02 -0.69347681821E+02 -0.24983206258E+03  0.25981612864E+03  0.47000000000E+01 0. -1.
         -5    1    4    4    0  503 -0.40878982995E+02  0.17247675853E+02 -0.35573617471E+02  0.57062648317E+02  0.47000000000E+01 0. -1.
<mgrwt>
<rscale>  0 0.13768280E+03</rscale>
<asrwt>0</asrwt>
<pdfrwt beam="1">  1        5 0.45252805E-02 0.13768377E+03</pdfrwt>
<pdfrwt beam="2">  1       -5 0.99635645E-01 0.13768377E+03</pdfrwt>
<totfact> 0.17851178E+02</totfact>
</mgrwt>
</event>
<event>
 8    1  0.3488953E-007  0.1533706E+03  0.7546771E-02  0.1196393E+00
         -5   -1    0    0    0  501 -0.00000000000E+00  0.00000000000E+00  0.26718031544E+03  0.26722165136E+03  0.47000000000E+01 0.  1.
          5   -1    0    0  501    0  0.00000000000E+00 -0.00000000000E+00 -0.99811563754E+02  0.99922161001E+02  0.47000000000E+01 0.  1.
         25    2    1    2    0    0 -0.40769062332E+01 -0.88784584720E+02  0.14698090760E+03  0.21242866111E+03  0.12499290065E+03 0.  0.
         25    2    1    2    0    0  0.40769062332E+01  0.88784584720E+02  0.20387844081E+02  0.15471515125E+03  0.12498716011E+03 0.  0.
          5    1    4    4  502    0  0.34228260905E+02  0.10482648998E+03  0.37048484234E+02  0.11642528519E+03  0.47000000000E+01 0. -1.
         -5    1    4    4    0  502 -0.30151354672E+02 -0.16041905262E+02 -0.16660640153E+02  0.38289866066E+02  0.47000000000E+01 0. -1.
          5    1    3    3  503    0  0.47748531261E+02 -0.26299705404E+02  0.13870042702E+02  0.56445237412E+02  0.47000000000E+01 0. -1.
         -5    1    3    3    0  503 -0.51825437494E+02 -0.62484879316E+02  0.13311086490E+03  0.15598342370E+03  0.47000000000E+01 0. -1.
<mgrwt>
<rscale>  0 0.15336946E+03</rscale>
<asrwt>0</asrwt>
<pdfrwt beam="2">  1        5 0.15367312E-01 0.15337063E+03</pdfrwt>
<pdfrwt beam="1">  1       -5 0.41116351E-01 0.15337063E+03</pdfrwt>
<totfact> 0.16067654E+02</totfact>
</mgrwt>
</event>
<event>
 8    1  0.3488953E-007  0.1415427E+03  0.7546771E-02  0.1211271E+00
          5   -1    0    0  501    0  0.00000000000E+00  0.00000000000E+00  0.13241338670E+03  0.13249677346E+03  0.47000000000E+01 0. -1.
         -5   -1    0    0    0  501 -0.00000000000E+00 -0.00000000000E+00 -0.17122453323E+03  0.17128902703E+03  0.47000000000E+01 0. -1.
         25    2    1    2    0    0  0.59636566390E+02 -0.29235181027E+02 -0.71422698988E+02  0.15853479630E+03  0.12498345430E+03 0.  0.
         25    2    1    2    0    0 -0.59636566390E+02  0.29235181027E+02  0.32611552457E+02  0.14525100419E+03  0.12499249979E+03 0.  0.
          5    1    4    4  502    0  0.11030943725E+02 -0.87632465907E+01 -0.36401078685E+02  0.39314179881E+02  0.47000000000E+01 0.  1.
         -5    1    4    4    0  502 -0.70667510116E+02  0.37998427618E+02  0.69012631142E+02  0.10593682431E+03  0.47000000000E+01 0.  1.
          5    1    3    3  503    0  0.36147888800E+02  0.18475288068E+02 -0.92510120434E+02  0.10113465537E+03  0.47000000000E+01 0. -1.
         -5    1    3    3    0  503  0.23488677591E+02 -0.47710469095E+02  0.21087421446E+02  0.57400140936E+02  0.47000000000E+01 0. -1.
<mgrwt>
<rscale>  0 0.14154072E+03</rscale>
<asrwt>0</asrwt>
<pdfrwt beam="1">  1        5 0.20382666E-01 0.14154272E+03</pdfrwt>
<pdfrwt beam="2">  1       -5 0.26353611E-01 0.14154272E+03</pdfrwt>
<totfact> 0.22539544E+02</totfact>
</mgrwt>
</event>
<event>
 8    1  0.3488953E-007  0.1929732E+03  0.7546771E-02  0.1155808E+00
          5   -1    0    0  501    0  0.00000000000E+00  0.00000000000E+00  0.45207561198E+03  0.45210004307E+03  0.47000000000E+01 0. -1.
         -5   -1    0    0    0  501 -0.00000000000E+00 -0.00000000000E+00 -0.16938523990E+03  0.16945043374E+03  0.47000000000E+01 0. -1.
         25    2    1    2    0    0 -0.14381299567E+02  0.14631037419E+03 -0.81435268873E+02  0.20945250178E+03  0.12500040045E+03 0.  0.
         25    2    1    2    0    0  0.14381299567E+02 -0.14631037419E+03  0.36412564095E+03  0.41209797504E+03  0.12499484492E+03 0.  0.
          5    1    4    4  502    0 -0.29701413441E+02 -0.41581724086E+02  0.30669894232E+02  0.59782490335E+02  0.47000000000E+01 0.  1.
         -5    1    4    4    0  502  0.44082713008E+02 -0.10472865011E+03  0.33345574672E+03  0.35231548470E+03  0.47000000000E+01 0.  1.
          5    1    3    3  503    0  0.32293424458E+02  0.11275549424E+01  0.65840599664E+01  0.33310306048E+02  0.47000000000E+01 0. -1.
         -5    1    3    3    0  503 -0.46674724024E+02  0.14518281925E+03 -0.88019328840E+02  0.17614219573E+03  0.47000000000E+01 0. -1.
<mgrwt>
<rscale>  0 0.19297228E+03</rscale>
<asrwt>0</asrwt>
<pdfrwt beam="1">  1        5 0.69556988E-01 0.19297318E+03</pdfrwt>
<pdfrwt beam="2">  1       -5 0.26066162E-01 0.19297318E+03</pdfrwt>
<totfact> 0.20507066E+01</totfact>
</mgrwt>
</event>
<event>
 8    1  0.3488953E-007  0.1261356E+03  0.7546771E-02  0.1233307E+00
         -5   -1    0    0    0  501 -0.00000000000E+00  0.00000000000E+00  0.21965742462E+03  0.21970770171E+03  0.47000000000E+01 0.  1.
          5   -1    0    0  501    0  0.00000000000E+00 -0.00000000000E+00 -0.72377383789E+02  0.72529826169E+02  0.47000000000E+01 0.  1.
         25    2    1    2    0    0 -0.10660924434E+02  0.13103927909E+02  0.78569290722E+02  0.14860137335E+03  0.12499546584E+03 0.  0.
         25    2    1    2    0    0  0.10660924434E+02 -0.13103927909E+02  0.68710750108E+02  0.14363615453E+03  0.12499923788E+03 0.  0.
          5    1    4    4  502    0 -0.50114393023E+02  0.19579671180E+02  0.45681746774E+02  0.70737033440E+02  0.47000000000E+01 0.  1.
         -5    1    4    4    0  502  0.60775317457E+02 -0.32683599089E+02  0.23029003335E+02  0.72899121092E+02  0.47000000000E+01 0.  1.
          5    1    3    3  503    0 -0.32026395389E+02 -0.49821732830E+02  0.39968957058E+02  0.71606582045E+02  0.47000000000E+01 0. -1.
         -5    1    3    3    0  503  0.21365470955E+02  0.62925660740E+02  0.38600333664E+02  0.76994791302E+02  0.47000000000E+01 0. -1.
<mgrwt>
<rscale>  0 0.12613462E+03</rscale>
<asrwt>0</asrwt>
<pdfrwt beam="2">  1        5 0.11150576E-01 0.12613555E+03</pdfrwt>
<pdfrwt beam="1">  1       -5 0.33809044E-01 0.12613555E+03</pdfrwt>
<totfact> 0.39611745E+02</totfact>
</mgrwt>
</event>
<event>
 8    1  0.3488953E-007  0.1479161E+03  0.7546771E-02  0.1203058E+00
          5   -1    0    0  501    0  0.00000000000E+00  0.00000000000E+00  0.20711833239E+03  0.20717165253E+03  0.47000000000E+01 0.  1.
         -5   -1    0    0    0  501 -0.00000000000E+00 -0.00000000000E+00 -0.10569790637E+03  0.10580235068E+03  0.47000000000E+01 0.  1.
         25    2    1    2    0    0  0.51050941901E+02 -0.60395216755E+02  0.44228978772E+02  0.15438639544E+03  0.12500070263E+03 0.  0.
         25    2    1    2    0    0 -0.51050941901E+02  0.60395216755E+02  0.57191447253E+02  0.15858760777E+03  0.12500154729E+03 0.  0.
          5    1    4    4  502    0  0.34249266556E+02  0.37743492055E+02  0.47233401638E+02  0.69646734901E+02  0.47000000000E+01 0. -1.
         -5    1    4    4    0  502 -0.85300208456E+02  0.22651724701E+02  0.99580456151E+01  0.88940872871E+02  0.47000000000E+01 0. -1.
          5    1    3    3  503    0  0.69543492979E+02 -0.87974744203E+02  0.22638019893E+02  0.11450075536E+03  0.47000000000E+01 0.  1.
         -5    1    3    3    0  503 -0.18492551078E+02  0.27579527447E+02  0.21590958878E+02  0.39885640084E+02  0.47000000000E+01 0.  1.
<mgrwt>
<rscale>  0 0.14791590E+03</rscale>
<asrwt>0</asrwt>
<pdfrwt beam="1">  1        5 0.31876494E-01 0.14791608E+03</pdfrwt>
<pdfrwt beam="2">  1       -5 0.16273352E-01 0.14791608E+03</pdfrwt>
<totfact> 0.23909207E+02</totfact>
</mgrwt>
</event>
<event>
 8    1  0.3488953E-007  0.1271533E+03  0.7546771E-02  0.1231744E+00
         -5   -1    0    0    0  501 -0.00000000000E+00  0.00000000000E+00  0.95911671442E+02  0.96026760431E+02  0.47000000000E+01 0. -1.
          5   -1    0    0  501    0  0.00000000000E+00 -0.00000000000E+00 -0.17503792683E+03  0.17510101607E+03  0.47000000000E+01 0. -1.
         25    2    1    2    0    0 -0.16541020014E+02 -0.16381227290E+02 -0.13010024605E+02  0.12781713857E+03  0.12500404082E+03 0.  0.
         25    2    1    2    0    0  0.16541020014E+02  0.16381227290E+02 -0.66116230783E+02  0.14331063793E+03  0.12499853208E+03 0.  0.
          5    1    3    3  502    0  0.79159975685E+01  0.17715183837E+02 -0.60830994683E+02  0.64023360346E+02  0.47000000000E+01 0. -1.
         -5    1    3    3    0  502 -0.24457017583E+02 -0.34096411127E+02  0.47820970078E+02  0.63793778223E+02  0.47000000000E+01 0. -1.
          5    1    4    4  503    0  0.69910360278E+02 -0.28269567584E+01 -0.39420913503E+02  0.80445935759E+02  0.47000000000E+01 0. -1.
         -5    1    4    4    0  503 -0.53369340264E+02  0.19208184049E+02 -0.26695317280E+02  0.62864702173E+02  0.47000000000E+01 0. -1.
<mgrwt>
<rscale>  0 0.12715194E+03</rscale>
<asrwt>0</asrwt>
<pdfrwt beam="2">  1        5 0.26942618E-01 0.12715329E+03</pdfrwt>
<pdfrwt beam="1">  1       -5 0.14769348E-01 0.12715329E+03</pdfrwt>
<totfact> 0.37590363E+02</totfact>
</mgrwt>
</event>
<event>
 8    1  0.3488953E-007  0.1507349E+03  0.7546771E-02  0.1199574E+00
         -5   -1    0    0    0  501 -0.00000000000E+00  0.00000000000E+00  0.64239925389E+03  0.64241644701E+03  0.47000000000E+01 0.  1.
          5   -1    0    0  501    0  0.00000000000E+00 -0.00000000000E+00 -0.35294057039E+02  0.35605624026E+02  0.47000000000E+01 0.  1.
         25    2    1    2    0    0 -0.84019219107E+01 -0.83816535537E+02  0.28564141376E+03  0.32297370861E+03  0.12500078109E+03 0.  0.
         25    2    1    2    0    0  0.84019219107E+01  0.83816535537E+02  0.32146378308E+03  0.35504836243E+03  0.12499828763E+03 0.  0.
          5    1    3    3  502    0 -0.27183516520E+02 -0.71952380102E+02  0.28981652706E+03  0.29988630834E+03  0.47000000000E+01 0. -1.
         -5    1    3    3    0  502  0.18781594609E+02 -0.11864155436E+02 -0.41751132927E+01  0.23087400271E+02  0.47000000000E+01 0. -1.
          5    1    4    4  503    0  0.56379041383E+02  0.38622442157E+02  0.24298129756E+03  0.25245255061E+03  0.47000000000E+01 0.  1.
         -5    1    4    4    0  503 -0.47977119473E+02  0.45194093380E+02  0.78482485521E+02  0.10259581182E+03  0.47000000000E+01 0.  1.
<mgrwt>
<rscale>  0 0.15073435E+03</rscale>
<asrwt>0</asrwt>
<pdfrwt beam="2">  1        5 0.54551441E-02 0.15073486E+03</pdfrwt>
<pdfrwt beam="1">  1       -5 0.98855944E-01 0.15073486E+03</pdfrwt>
<totfact> 0.13732008E+02</totfact>
</mgrwt>
</event>
<event>
 8    1  0.3488953E-007  0.1263037E+03  0.7546771E-02  0.1233048E+00
         -5   -1    0    0    0  501 -0.00000000000E+00  0.00000000000E+00  0.32269460877E+03  0.32272883436E+03  0.47000000000E+01 0. -1.
          5   -1    0    0  501    0  0.00000000000E+00 -0.00000000000E+00 -0.49535164168E+02  0.49757637496E+02  0.47000000000E+01 0. -1.
         25    2    1    2    0    0 -0.12209764150E+02 -0.13354890559E+02  0.14978107632E+03  0.19592245659E+03  0.12499522683E+03 0.  0.
         25    2    1    2    0    0  0.12209764150E+02  0.13354890559E+02  0.12337836828E+03  0.17656401527E+03  0.12500079314E+03 0.  0.
          5    1    3    3  502    0  0.28914495705E+02  0.86476327140E+01 -0.77941147068E+01  0.31522497323E+02  0.47000000000E+01 0. -1.
         -5    1    3    3    0  502 -0.41124259855E+02 -0.22002523273E+02  0.15757519103E+03  0.16439995926E+03  0.47000000000E+01 0. -1.
          5    1    4    4  503    0 -0.27333372130E+02  0.25971654864E-01  0.13098381726E+03  0.13388787955E+03  0.47000000000E+01 0.  1.
         -5    1    4    4    0  503  0.39543136280E+02  0.13328918904E+02 -0.76054489771E+01  0.42676135721E+02  0.47000000000E+01 0.  1.
<mgrwt>
<rscale>  0 0.12630234E+03</rscale>
<asrwt>0</asrwt>
<pdfrwt beam="2">  1        5 0.76405404E-02 0.12630372E+03</pdfrwt>
<pdfrwt beam="1">  1       -5 0.49665072E-01 0.12630372E+03</pdfrwt>
<totfact> 0.34661750E+02</totfact>
</mgrwt>
</event>
<event>
 8    1  0.3488953E-007  0.1261204E+03  0.7546771E-02  0.1233330E+00
          5   -1    0    0  501    0  0.00000000000E+00  0.00000000000E+00  0.87507266107E+03  0.87508528279E+03  0.47000000000E+01 0.  1.
         -5   -1    0    0    0  501 -0.00000000000E+00 -0.00000000000E+00 -0.17868081228E+02  0.18475885006E+02  0.47000000000E+01 0.  1.
         25    2    1    2    0    0 -0.36666687898E+01  0.16316722106E+02  0.41927479373E+03  0.43783224988E+03  0.12500418592E+03 0.  0.
         25    2    1    2    0    0  0.36666687898E+01 -0.16316722106E+02  0.43792978611E+03  0.45572891792E+03  0.12500667653E+03 0.  0.
          5    1    4    4  502    0  0.56956415491E+02  0.17908124778E+02  0.25989082549E+03  0.26670220354E+03  0.47000000000E+01 0.  1.
         -5    1    4    4    0  502 -0.53289746701E+02 -0.34224846884E+02  0.17803896062E+03  0.18902671438E+03  0.47000000000E+01 0.  1.
          5    1    3    3  503    0  0.13224216565E+02 -0.51770590519E+02  0.14232316882E+03  0.15209552370E+03  0.47000000000E+01 0. -1.
         -5    1    3    3    0  503 -0.16890885354E+02  0.68087312624E+02  0.27695162491E+03  0.28573672618E+03  0.47000000000E+01 0. -1.
<mgrwt>
<rscale>  0 0.12611976E+03</rscale>
<asrwt>0</asrwt>
<pdfrwt beam="1">  1        5 0.13467426E+00 0.12612038E+03</pdfrwt>
<pdfrwt beam="2">  1       -5 0.27966612E-02 0.12612038E+03</pdfrwt>
<totfact> 0.17744179E+02</totfact>
</mgrwt>
</event>
<event>
 8    1  0.3488953E-007  0.1496168E+03  0.7546771E-02  0.1200947E+00
          5   -1    0    0  501    0  0.00000000000E+00  0.00000000000E+00  0.20252417442E+03  0.20257870378E+03  0.47000000000E+01 0.  1.
         -5   -1    0    0    0  501 -0.00000000000E+00 -0.00000000000E+00 -0.15918386936E+03  0.15925323941E+03  0.47000000000E+01 0.  1.
         25    2    1    2    0    0 -0.13762239219E+02  0.81055030347E+02 -0.78432192543E+02  0.16892837213E+03  0.12500347560E+03 0.  0.
         25    2    1    2    0    0  0.13762239219E+02 -0.81055030347E+02  0.12177249761E+03  0.19290357106E+03  0.12499571745E+03 0.  0.
          5    1    4    4  502    0  0.35988216070E+02 -0.21582853152E+02  0.12214616834E+03  0.12923911051E+03  0.47000000000E+01 0. -1.
         -5    1    4    4    0  502 -0.22225976851E+02 -0.59472177194E+02 -0.37367072392E+00  0.63664460549E+02  0.47000000000E+01 0. -1.
          5    1    3    3  503    0  0.37416089057E+02 -0.95901870968E+01 -0.45012590383E+02  0.59499232784E+02  0.47000000000E+01 0. -1.
         -5    1    3    3    0  503 -0.51178328276E+02  0.90645217443E+02 -0.33419602160E+02  0.10942913935E+03  0.47000000000E+01 0. -1.
<mgrwt>
<rscale>  0 0.14961518E+03</rscale>
<asrwt>0</asrwt>
<pdfrwt beam="1">  1        5 0.31167096E-01 0.14961680E+03</pdfrwt>
<pdfrwt beam="2">  1       -5 0.24499357E-01 0.14961680E+03</pdfrwt>
<totfact> 0.11678813E+02</totfact>
</mgrwt>
</event>
<event>
 8    1  0.3488953E-007  0.1284781E+03  0.7546771E-02  0.1229738E+00
         -5   -1    0    0    0  501 -0.00000000000E+00  0.00000000000E+00  0.41151485873E+03  0.41154169771E+03  0.47000000000E+01 0.  1.
          5   -1    0    0  501    0  0.00000000000E+00 -0.00000000000E+00 -0.40017795064E+02  0.40292851994E+02  0.47000000000E+01 0.  1.
         25    2    1    2    0    0 -0.25357452378E+02  0.15416379719E+02  0.19564708251E+03  0.23406068747E+03  0.12500383741E+03 0.  0.
         25    2    1    2    0    0  0.25357452378E+02 -0.15416379719E+02  0.17584998116E+03  0.21777386224E+03  0.12498629544E+03 0.  0.
          5    1    3    3  502    0 -0.29534806911E+02  0.49868672696E+02  0.31327863310E+02  0.66050846742E+02  0.47000000000E+01 0.  1.
         -5    1    3    3    0  502  0.41773545332E+01 -0.34452292976E+02  0.16431921920E+03  0.16800984072E+03  0.47000000000E+01 0.  1.
          5    1    4    4  503    0 -0.26610680585E+02 -0.46093530842E+01 -0.61830726310E+01  0.28101509642E+02  0.47000000000E+01 0.  1.
         -5    1    4    4    0  503  0.51968132963E+02 -0.10807026635E+02  0.18203305379E+03  0.18967235260E+03  0.47000000000E+01 0.  1.
<mgrwt>
<rscale>  0 0.12847384E+03</rscale>
<asrwt>0</asrwt>
<pdfrwt beam="2">  1        5 0.61798068E-02 0.12847811E+03</pdfrwt>
<pdfrwt beam="1">  1       -5 0.63333199E-01 0.12847811E+03</pdfrwt>
<totfact> 0.29558415E+02</totfact>
</mgrwt>
</event>
<event>
 8    1  0.3488953E-007  0.1545853E+03  0.7546771E-02  0.1194952E+00
          5   -1    0    0  501    0  0.00000000000E+00  0.00000000000E+00  0.22259470163E+03  0.22264431543E+03  0.47000000000E+01 0.  1.
         -5   -1    0    0    0  501 -0.00000000000E+00 -0.00000000000E+00 -0.10723753377E+03  0.10734048001E+03  0.47000000000E+01 0.  1.
         25    2    1    2    0    0  0.65352385110E+02  0.63229386803E+02  0.58330566073E+02  0.16522433437E+03  0.12501094406E+03 0.  0.
         25    2    1    2    0    0 -0.65352385110E+02 -0.63229386803E+02  0.57026601790E+02  0.16476046107E+03  0.12500034650E+03 0.  0.
          5    1    4    4  502    0 -0.44742545439E+02  0.20572416593E+02 -0.15599421709E+02  0.51870527802E+02  0.47000000000E+01 0.  1.
         -5    1    4    4    0  502 -0.20609839671E+02 -0.83801803396E+02  0.72626023499E+02  0.11288993327E+03  0.47000000000E+01 0.  1.
          5    1    3    3  503    0  0.98497393689E+01 -0.61357227894E+01  0.73863372671E+02  0.74916969253E+02  0.47000000000E+01 0. -1.
         -5    1    3    3    0  503  0.55502645741E+02  0.69365109592E+02 -0.15532806598E+02  0.90307365114E+02  0.47000000000E+01 0. -1.
<mgrwt>
<rscale>  0 0.15458319E+03</rscale>
<asrwt>0</asrwt>
<pdfrwt beam="1">  1        5 0.34257074E-01 0.15458533E+03</pdfrwt>
<pdfrwt beam="2">  1       -5 0.16509818E-01 0.15458533E+03</pdfrwt>
<totfact> 0.20470618E+02</totfact>
</mgrwt>
</event>
<event>
 8    1  0.3488953E-007  0.1388018E+03  0.7546771E-02  0.1214952E+00
         -5   -1    0    0    0  501 -0.00000000000E+00  0.00000000000E+00  0.11954446018E+02  0.12845185075E+02  0.47000000000E+01 0.  1.
          5   -1    0    0  501    0  0.00000000000E+00 -0.00000000000E+00 -0.15598054342E+04  0.15598125152E+04  0.47000000000E+01 0.  1.
         25    2    1    2    0    0  0.53068859077E+02 -0.28705365597E+02 -0.72110012830E+03  0.73433620688E+03  0.12499587145E+03 0.  0.
         25    2    1    2    0    0 -0.53068859077E+02  0.28705365597E+02 -0.82675085993E+03  0.83832149344E+03  0.12500256058E+03 0.  0.
          5    1    4    4  502    0  0.35407952195E+02  0.30925019256E+02 -0.37445354764E+03  0.37742234862E+03  0.47000000000E+01 0. -1.
         -5    1    4    4    0  502 -0.88476811272E+02 -0.22196536596E+01 -0.45229731229E+03  0.46089914482E+03  0.47000000000E+01 0. -1.
          5    1    3    3  503    0  0.66281092441E+02 -0.37774413469E+02 -0.71040438542E+03  0.71450442290E+03  0.47000000000E+01 0.  1.
         -5    1    3    3    0  503 -0.13212233364E+02  0.90690478719E+01 -0.10695742882E+02  0.19831783973E+02  0.47000000000E+01 0.  1.
<mgrwt>
<rscale>  0 0.13880030E+03</rscale>
<asrwt>0</asrwt>
<pdfrwt beam="2">  1        5 0.24003897E+00 0.13880181E+03</pdfrwt>
<pdfrwt beam="1">  1       -5 0.19082099E-02 0.13880181E+03</pdfrwt>
<totfact> 0.59977194E+01</totfact>
</mgrwt>
</event>
<event>
 8    1  0.3488953E-007  0.1857043E+03  0.7546771E-02  0.1162395E+00
         -5   -1    0    0    0  501 -0.00000000000E+00  0.00000000000E+00  0.94615188315E+02  0.94731852404E+02  0.47000000000E+01 0.  1.
          5   -1    0    0  501    0  0.00000000000E+00 -0.00000000000E+00 -0.38604323593E+03  0.38607184566E+03  0.47000000000E+01 0.  1.
         25    2    1    2    0    0 -0.10551653381E+03 -0.87904481585E+02 -0.20298821005E+03  0.27511872384E+03  0.12500064799E+03 0.  0.
         25    2    1    2    0    0  0.10551653381E+03  0.87904481585E+02 -0.88439837570E+02  0.20568497422E+03  0.12499506774E+03 0.  0.
          5    1    3    3  502    0  0.90403631333E+01 -0.29985981745E+02  0.35775466758E+01  0.31871242634E+02  0.47000000000E+01 0. -1.
         -5    1    3    3    0  502 -0.11455689695E+03 -0.57918499841E+02 -0.20656575672E+03  0.24324748121E+03  0.47000000000E+01 0. -1.
          5    1    4    4  503    0  0.10058030442E+03  0.11542768895E+02 -0.20833540970E+02  0.10346864057E+03  0.47000000000E+01 0. -1.
         -5    1    4    4    0  503  0.49362293905E+01  0.76361712690E+02 -0.67606296600E+02  0.10221633365E+03  0.47000000000E+01 0. -1.
<mgrwt>
<rscale>  0 0.18570339E+03</rscale>
<asrwt>0</asrwt>
<pdfrwt beam="2">  1        5 0.59402441E-01 0.18570433E+03</pdfrwt>
<pdfrwt beam="1">  1       -5 0.14567358E-01 0.18570433E+03</pdfrwt>
<totfact> 0.85806441E+01</totfact>
</mgrwt>
</event>
<event>
 8    1  0.3488953E-007  0.1471255E+03  0.7546771E-02  0.1204068E+00
          5   -1    0    0  501    0  0.00000000000E+00  0.00000000000E+00  0.13885017829E+02  0.14658912651E+02  0.47000000000E+01 0.  1.
         -5   -1    0    0    0  501 -0.00000000000E+00 -0.00000000000E+00 -0.15574314624E+04  0.15574385542E+04  0.47000000000E+01 0.  1.
         25    2    1    2    0    0  0.55770926357E+02  0.53792002759E+02 -0.64239733989E+03  0.65901718121E+03  0.12500130815E+03 0.  0.
         25    2    1    2    0    0 -0.55770926357E+02 -0.53792002759E+02 -0.90114910466E+03  0.91308028562E+03  0.12506767511E+03 0.  0.
          5    1    3    3  502    0  0.46347918313E+02  0.93657415226E+02 -0.42002296239E+03  0.43285242276E+03  0.47000000000E+01 0.  1.
         -5    1    3    3    0  502  0.94230080441E+01 -0.39865412467E+02 -0.22237437750E+03  0.22616475844E+03  0.47000000000E+01 0.  1.
          5    1    4    4  503    0 -0.28085646603E+02 -0.60630967247E+02 -0.86104560162E+03  0.86364722880E+03  0.47000000000E+01 0.  1.
         -5    1    4    4    0  503 -0.27685279754E+02  0.68389644877E+01 -0.40103503039E+02  0.49433056818E+02  0.47000000000E+01 0.  1.
<mgrwt>
<rscale>  0 0.14711135E+03</rscale>
<asrwt>0</asrwt>
<pdfrwt beam="1">  1        5 0.21962337E-02 0.14712545E+03</pdfrwt>
<pdfrwt beam="2">  1       -5 0.23966478E+00 0.14712545E+03</pdfrwt>
<totfact> 0.49004623E+01</totfact>
</mgrwt>
</event>
<event>
 8    1  0.3488953E-007  0.1259551E+03  0.7546771E-02  0.1233590E+00
          5   -1    0    0  501    0  0.00000000000E+00  0.00000000000E+00  0.92846223021E+02  0.92965107052E+02  0.47000000000E+01 0. -1.
         -5   -1    0    0    0  501 -0.00000000000E+00 -0.00000000000E+00 -0.24516839940E+03  0.24521344593E+03  0.47000000000E+01 0. -1.
         25    2    1    2    0    0  0.43933001030E+01  0.14727835251E+02 -0.16938350847E+03  0.21107315666E+03  0.12499957722E+03 0.  0.
         25    2    1    2    0    0 -0.43933001030E+01 -0.14727835251E+02  0.17061332085E+02  0.12710539632E+03  0.12501392924E+03 0.  0.
          5    1    3    3  502    0 -0.26691791141E+02  0.30874591514E+02 -0.32378023232E+01  0.41210016736E+02  0.47000000000E+01 0.  1.
         -5    1    3    3    0  502  0.31085091244E+02 -0.16146756262E+02 -0.16614570614E+03  0.16986313992E+03  0.47000000000E+01 0.  1.
          5    1    4    4  503    0 -0.92947240115E+01  0.53253271663E+02  0.22122801080E+02  0.58598730062E+02  0.47000000000E+01 0.  1.
         -5    1    4    4    0  503  0.49014239085E+01 -0.67981106915E+02 -0.50614689945E+01  0.68506666260E+02  0.47000000000E+01 0.  1.
<mgrwt>
<rscale>  0 0.12595156E+03</rscale>
<asrwt>0</asrwt>
<pdfrwt beam="1">  1        5 0.14296644E-01 0.12595512E+03</pdfrwt>
<pdfrwt beam="2">  1       -5 0.37730825E-01 0.12595512E+03</pdfrwt>
<totfact> 0.20417338E+02</totfact>
</mgrwt>
</event>
<event>
 8    1  0.3488953E-007  0.1343729E+03  0.7546771E-02  0.1221111E+00
          5   -1    0    0  501    0  0.00000000000E+00  0.00000000000E+00  0.54257165129E+02  0.54460352255E+02  0.47000000000E+01 0. -1.
         -5   -1    0    0    0  501 -0.00000000000E+00 -0.00000000000E+00 -0.33296194087E+03  0.33299511118E+03  0.47000000000E+01 0. -1.
         25    2    1    2    0    0  0.35244584295E+02  0.34482873660E+02 -0.15016764444E+03  0.20150417296E+03  0.12498944351E+03 0.  0.
         25    2    1    2    0    0 -0.35244584295E+02 -0.34482873660E+02 -0.12853713130E+03  0.18595129047E+03  0.12499935602E+03 0.  0.
          5    1    4    4  502    0 -0.64263579806E+02 -0.58033622946E+02 -0.11873409605E+03  0.14702919658E+03  0.47000000000E+01 0. -1.
         -5    1    4    4    0  502  0.29018995510E+02  0.23550749286E+02 -0.98030352518E+01  0.38922093887E+02  0.47000000000E+01 0. -1.
          5    1    3    3  503    0 -0.30734930443E+02  0.41233016513E+02 -0.20078571603E+02  0.55407911328E+02  0.47000000000E+01 0. -1.
         -5    1    3    3    0  503  0.65979514739E+02 -0.67501428528E+01 -0.13008907283E+03  0.14609626164E+03  0.47000000000E+01 0. -1.
<mgrwt>
<rscale>  0 0.13437064E+03</rscale>
<asrwt>0</asrwt>
<pdfrwt beam="1">  1        5 0.83654377E-02 0.13437294E+03</pdfrwt>
<pdfrwt beam="2">  1       -5 0.51243094E-01 0.13437294E+03</pdfrwt>
<totfact> 0.28398788E+02</totfact>
</mgrwt>
</event>
<event>
 8    1  0.3488953E-007  0.1281232E+03  0.7546771E-02  0.1230278E+00
          5   -1    0    0  501    0  0.00000000000E+00  0.00000000000E+00  0.79982797269E+02  0.80120770459E+02  0.47000000000E+01 0.  1.
         -5   -1    0    0    0  501 -0.00000000000E+00 -0.00000000000E+00 -0.20694991744E+03  0.20700328096E+03  0.47000000000E+01 0.  1.
         25    2    1    2    0    0  0.22847273290E+02 -0.16389609062E+02 -0.77941501276E+02  0.14996814548E+03  0.12499979943E+03 0.  0.
         25    2    1    2    0    0 -0.22847273290E+02  0.16389609062E+02 -0.49025618894E+02  0.13715590594E+03  0.12497045268E+03 0.  0.
          5    1    3    3  502    0  0.34153334581E+02 -0.95932390403E+01 -0.10963033736E+03  0.11532294380E+03  0.47000000000E+01 0.  1.
         -5    1    3    3    0  502 -0.11306061291E+02 -0.67963700220E+01  0.31688836080E+02  0.34645201681E+02  0.47000000000E+01 0.  1.
          5    1    4    4  503    0  0.10192269445E+02  0.10656396838E+02  0.39473999892E+02  0.42399620488E+02  0.47000000000E+01 0. -1.
         -5    1    4    4    0  503 -0.33039542735E+02  0.57332122242E+01 -0.88499618786E+02  0.94756285448E+02  0.47000000000E+01 0. -1.
<mgrwt>
<rscale>  0 0.12811609E+03</rscale>
<asrwt>0</asrwt>
<pdfrwt beam="1">  1        5 0.12319764E-01 0.12812325E+03</pdfrwt>
<pdfrwt beam="2">  1       -5 0.31853167E-01 0.12812325E+03</pdfrwt>
<totfact> 0.37600247E+02</totfact>
</mgrwt>
</event>
<event>
 8    1  0.3488953E-007  0.1367264E+03  0.7546771E-02  0.1217804E+00
         -5   -1    0    0    0  501 -0.00000000000E+00  0.00000000000E+00  0.22987888170E+03  0.22992692372E+03  0.47000000000E+01 0. -1.
          5   -1    0    0  501    0  0.00000000000E+00 -0.00000000000E+00 -0.90926705688E+02  0.91048096121E+02  0.47000000000E+01 0. -1.
         25    2    1    2    0    0 -0.49870830938E+02 -0.24115748562E+02  0.12192712833E+03  0.18319270816E+03  0.12499869837E+03 0.  0.
         25    2    1    2    0    0  0.49870830938E+02  0.24115748562E+02  0.17025047684E+02  0.13778231168E+03  0.12500177621E+03 0.  0.
          5    1    3    3  502    0 -0.30458913207E+02 -0.66448558857E+02  0.11431660436E+03  0.13577014547E+03  0.47000000000E+01 0. -1.
         -5    1    3    3    0  502 -0.19411917731E+02  0.42332810296E+02  0.76105239679E+01  0.47422562695E+02  0.47000000000E+01 0. -1.
          5    1    4    4  503    0 -0.26316253786E+02  0.34727829848E+02  0.37898770079E+02  0.57939400694E+02  0.47000000000E+01 0.  1.
         -5    1    4    4    0  503  0.76187084724E+02 -0.10612081287E+02 -0.20873722394E+02  0.79842910985E+02  0.47000000000E+01 0.  1.
<mgrwt>
<rscale>  0 0.13672571E+03</rscale>
<asrwt>0</asrwt>
<pdfrwt beam="2">  1        5 0.14001757E-01 0.13672642E+03</pdfrwt>
<pdfrwt beam="1">  1       -5 0.35379015E-01 0.13672642E+03</pdfrwt>
<totfact> 0.24838855E+02</totfact>
</mgrwt>
</event>
<event>
 8    1  0.3488953E-007  0.1320476E+03  0.7546771E-02  0.1224451E+00
         -5   -1    0    0    0  501 -0.00000000000E+00  0.00000000000E+00  0.77243787424E+02  0.77386644169E+02  0.47000000000E+01 0.  1.
          5   -1    0    0  501    0  0.00000000000E+00 -0.00000000000E+00 -0.22665190047E+03  0.22670062635E+03  0.47000000000E+01 0.  1.
         25    2    1    2    0    0  0.41066588767E+02 -0.11175312274E+02 -0.86222452261E+02  0.15770077261E+03  0.12499548029E+03 0.  0.
         25    2    1    2    0    0 -0.41066588767E+02  0.11175312274E+02 -0.63185660787E+02  0.14638649790E+03  0.12500090689E+03 0.  0.
          5    1    3    3  502    0  0.39161661918E+02  0.24769529060E+02  0.15982050834E+02  0.49241052821E+02  0.47000000000E+01 0.  1.
         -5    1    3    3    0  502  0.19049268490E+01 -0.35944841333E+02 -0.10220450310E+03  0.10845971979E+03  0.47000000000E+01 0.  1.
          5    1    4    4  503    0 -0.26563104510E+02 -0.56272319346E+02 -0.23665980076E+02  0.66740850000E+02  0.47000000000E+01 0. -1.
         -5    1    4    4    0  503 -0.14503484258E+02  0.67447631620E+02 -0.39519680711E+02  0.79645647905E+02  0.47000000000E+01 0. -1.
<mgrwt>
<rscale>  0 0.13204636E+03</rscale>
<asrwt>0</asrwt>
<pdfrwt beam="2">  1        5 0.34884260E-01 0.13204764E+03</pdfrwt>
<pdfrwt beam="1">  1       -5 0.11898397E-01 0.13204764E+03</pdfrwt>
<totfact> 0.33749546E+02</totfact>
</mgrwt>
</event>
<event>
 8    1  0.3488953E-007  0.1549755E+03  0.7546771E-02  0.1194490E+00
          5   -1    0    0  501    0  0.00000000000E+00  0.00000000000E+00  0.22644404121E+03  0.22649281180E+03  0.47000000000E+01 0. -1.
         -5   -1    0    0    0  501 -0.00000000000E+00 -0.00000000000E+00 -0.14368021332E+03  0.14375706487E+03  0.47000000000E+01 0. -1.
         25    2    1    2    0    0 -0.46558114315E+02 -0.78888941886E+02 -0.53439889036E+02  0.16393059438E+03  0.12500517938E+03 0.  0.
         25    2    1    2    0    0  0.46558114315E+02  0.78888941886E+02  0.13620371692E+03  0.20631928230E+03  0.12500028233E+03 0.  0.
          5    1    3    3  502    0 -0.51359787190E+02  0.11028927317E+02 -0.51539590107E+02  0.73742011950E+02  0.47000000000E+01 0. -1.
         -5    1    3    3    0  502  0.48016728750E+01 -0.89917869203E+02 -0.19002989287E+01  0.90188582428E+02  0.47000000000E+01 0. -1.
          5    1    4    4  503    0 -0.17849622499E+02 -0.21479173619E+02  0.46592080867E+01  0.28701256814E+02  0.47000000000E+01 0. -1.
         -5    1    4    4    0  503  0.64407736814E+02  0.10036811550E+03  0.13154450884E+03  0.17761802548E+03  0.47000000000E+01 0. -1.
<mgrwt>
<rscale>  0 0.15497455E+03</rscale>
<asrwt>0</asrwt>
<pdfrwt beam="1">  1        5 0.34847208E-01 0.15497554E+03</pdfrwt>
<pdfrwt beam="2">  1       -5 0.22114311E-01 0.15497554E+03</pdfrwt>
<totfact> 0.11491762E+02</totfact>
</mgrwt>
</event>
<event>
 8    1  0.3488953E-007  0.1914450E+03  0.7546771E-02  0.1157165E+00
         -5   -1    0    0    0  501 -0.00000000000E+00  0.00000000000E+00  0.20698895126E+02  0.21225792316E+02  0.47000000000E+01 0. -1.
          5   -1    0    0  501    0  0.00000000000E+00 -0.00000000000E+00 -0.17562943338E+04  0.17563006226E+04  0.47000000000E+01 0. -1.
         25    2    1    2    0    0  0.14394889501E+03 -0.17469579604E+02 -0.80632581106E+03  0.82874150706E+03  0.12499880542E+03 0.  0.
         25    2    1    2    0    0 -0.14394889501E+03  0.17469579604E+02 -0.92926962760E+03  0.94878490784E+03  0.12499715987E+03 0.  0.
          5    1    3    3  502    0  0.14304186053E+03  0.24853718934E+02 -0.54789460652E+03  0.56682384482E+03  0.47000000000E+01 0.  1.
         -5    1    3    3    0  502  0.90703448479E+00 -0.42323298538E+02 -0.25843120454E+03  0.26191766223E+03  0.47000000000E+01 0.  1.
          5    1    4    4  503    0  0.19281200758E+02 -0.56764361859E+01 -0.48557772857E+02  0.52762997785E+02  0.47000000000E+01 0. -1.
         -5    1    4    4    0  503 -0.16323009577E+03  0.23146015790E+02 -0.88071185474E+03  0.89602191005E+03  0.47000000000E+01 0. -1.
<mgrwt>
<rscale>  0 0.19144469E+03</rscale>
<asrwt>0</asrwt>
<pdfrwt beam="2">  1        5 0.27024003E+00 0.19144496E+03</pdfrwt>
<pdfrwt beam="1">  1       -5 0.32254611E-02 0.19144496E+03</pdfrwt>
<totfact> 0.17928004E+01</totfact>
</mgrwt>
</event>
<event>
 8    1  0.3488953E-007  0.1325368E+03  0.7546771E-02  0.1223743E+00
          5   -1    0    0  501    0  0.00000000000E+00  0.00000000000E+00  0.83953951069E+02  0.84085408366E+02  0.47000000000E+01 0.  1.
         -5   -1    0    0    0  501 -0.00000000000E+00 -0.00000000000E+00 -0.25209694058E+03  0.25214074928E+03  0.47000000000E+01 0.  1.
         25    2    1    2    0    0  0.39226553251E+02 -0.19993675843E+02 -0.15364206133E+03  0.20290856563E+03  0.12501013336E+03 0.  0.
         25    2    1    2    0    0 -0.39226553251E+02  0.19993675843E+02 -0.14500928180E+02  0.13331759202E+03  0.12499933548E+03 0.  0.
          5    1    4    4  502    0 -0.37498374635E+02  0.48860768064E+02  0.38479739897E+02  0.72775566907E+02  0.47000000000E+01 0.  1.
         -5    1    4    4    0  502 -0.17281786160E+01 -0.28867092221E+02 -0.52980668077E+02  0.60542025111E+02  0.47000000000E+01 0.  1.
          5    1    3    3  503    0  0.33380798114E+02 -0.27780126077E+02  0.49382826165E+01  0.43960092388E+02  0.47000000000E+01 0. -1.
         -5    1    3    3    0  503  0.58457551366E+01  0.77864502342E+01 -0.15858034395E+03  0.15894847324E+03  0.47000000000E+01 0. -1.
<mgrwt>
<rscale>  0 0.13253425E+03</rscale>
<asrwt>0</asrwt>
<pdfrwt beam="1">  1        5 0.12929475E-01 0.13253680E+03</pdfrwt>
<pdfrwt beam="2">  1       -5 0.38797626E-01 0.13253680E+03</pdfrwt>
<totfact> 0.23526829E+02</totfact>
</mgrwt>
</event>
<event>
 8    1  0.3488953E-007  0.1265947E+03  0.7546771E-02  0.1232602E+00
          5   -1    0    0  501    0  0.00000000000E+00  0.00000000000E+00  0.94258246295E+03  0.94259418069E+03  0.47000000000E+01 0. -1.
         -5   -1    0    0    0  501 -0.00000000000E+00 -0.00000000000E+00 -0.21029041335E+02  0.21547867167E+02  0.47000000000E+01 0. -1.
         25    2    1    2    0    0 -0.19732171446E+02 -0.31306524798E+01  0.24418852923E+03  0.27504887088E+03  0.12499873595E+03 0.  0.
         25    2    1    2    0    0  0.19732171446E+02  0.31306524798E+01  0.67736489239E+03  0.68909317698E+03  0.12500819789E+03 0.  0.
          5    1    4    4  502    0 -0.47636340873E+01  0.57927864646E+02  0.21287075763E+03  0.22071334161E+03  0.47000000000E+01 0.  1.
         -5    1    4    4    0  502  0.24495805533E+02 -0.54797212166E+02  0.46449413476E+03  0.46837983537E+03  0.47000000000E+01 0.  1.
          5    1    3    3  503    0 -0.42814556478E+02 -0.35875500537E+02  0.45187962850E+02  0.72001248404E+02  0.47000000000E+01 0.  1.
         -5    1    3    3    0  503  0.23082385032E+02  0.32744848057E+02  0.19900056638E+03  0.20304762247E+03  0.47000000000E+01 0.  1.
<mgrwt>
<rscale>  0 0.12659233E+03</rscale>
<asrwt>0</asrwt>
<pdfrwt beam="1">  1        5 0.14505347E+00 0.12659466E+03</pdfrwt>
<pdfrwt beam="2">  1       -5 0.32760488E-02 0.12659466E+03</pdfrwt>
<totfact> 0.11297906E+02</totfact>
</mgrwt>
</event>
<event>
 8    1  0.3488953E-007  0.1326296E+03  0.7546771E-02  0.1223609E+00
         -5   -1    0    0    0  501 -0.00000000000E+00  0.00000000000E+00  0.16380314322E+03  0.16387055784E+03  0.47000000000E+01 0. -1.
          5   -1    0    0  501    0  0.00000000000E+00 -0.00000000000E+00 -0.14487059194E+03  0.14494681235E+03  0.47000000000E+01 0. -1.
         25    2    1    2    0    0  0.33432427532E+02  0.29110755820E+02  0.88119834437E+02  0.15923476454E+03  0.12500176679E+03 0.  0.
         25    2    1    2    0    0 -0.33432427532E+02 -0.29110755820E+02 -0.69187283160E+02  0.14958260565E+03  0.12499164951E+03 0.  0.
          5    1    3    3  502    0 -0.36042571202E+02 -0.24517377454E+02  0.20816610256E+02  0.48534420761E+02  0.47000000000E+01 0.  1.
         -5    1    3    3    0  502  0.69474998734E+02  0.53628133274E+02  0.67303224181E+02  0.11070034378E+03  0.47000000000E+01 0.  1.
          5    1    4    4  503    0 -0.69761022951E+02 -0.40301836896E+02 -0.75793976307E+02  0.11071429549E+03  0.47000000000E+01 0.  1.
         -5    1    4    4    0  503  0.36328595420E+02  0.11191081077E+02  0.66066931474E+01  0.38868310166E+02  0.47000000000E+01 0.  1.
<mgrwt>
<rscale>  0 0.13262719E+03</rscale>
<asrwt>0</asrwt>
<pdfrwt beam="2">  1        5 0.22298832E-01 0.13262958E+03</pdfrwt>
<pdfrwt beam="1">  1       -5 0.25211532E-01 0.13262958E+03</pdfrwt>
<totfact> 0.20280856E+02</totfact>
</mgrwt>
</event>
<event>
 8    1  0.3488953E-007  0.1341089E+03  0.7546771E-02  0.1221485E+00
         -5   -1    0    0    0  501 -0.00000000000E+00  0.00000000000E+00  0.30604946679E+02  0.30963732999E+02  0.47000000000E+01 0.  1.
          5   -1    0    0  501    0  0.00000000000E+00 -0.00000000000E+00 -0.66169630318E+03  0.66171299492E+03  0.47000000000E+01 0.  1.
         25    2    1    2    0    0 -0.89760252837E+01  0.47751668868E+02 -0.19678632187E+03  0.23813870531E+03  0.12499758231E+03 0.  0.
         25    2    1    2    0    0  0.89760252837E+01 -0.47751668868E+02 -0.43430503463E+03  0.45453802261E+03  0.12499263970E+03 0.  0.
          5    1    4    4  502    0  0.32613574104E+02  0.28959153293E+02 -0.80147267687E+02  0.91367129171E+02  0.47000000000E+01 0. -1.
         -5    1    4    4    0  502 -0.23637548820E+02 -0.76710822160E+02 -0.35415776695E+03  0.36317089344E+03  0.47000000000E+01 0. -1.
          5    1    3    3  503    0  0.37960031823E+02  0.35684766753E+02 -0.22089883957E+02  0.56783972804E+02  0.47000000000E+01 0. -1.
         -5    1    3    3    0  503 -0.46936057107E+02  0.12066902115E+02 -0.17469643791E+03  0.18135473251E+03  0.47000000000E+01 0. -1.
<mgrwt>
<rscale>  0 0.13410771E+03</rscale>
<asrwt>0</asrwt>
<pdfrwt beam="2">  1        5 0.10182830E+00 0.13410886E+03</pdfrwt>
<pdfrwt beam="1">  1       -5 0.47373368E-02 0.13410886E+03</pdfrwt>
<totfact> 0.15558402E+02</totfact>
</mgrwt>
</event>
<event>
 8    1  0.3488953E-007  0.1309413E+03  0.7546771E-02  0.1226067E+00
          5   -1    0    0  501    0  0.00000000000E+00  0.00000000000E+00  0.34017411843E+02  0.34340563602E+02  0.47000000000E+01 0. -1.
         -5   -1    0    0    0  501 -0.00000000000E+00 -0.00000000000E+00 -0.55539503675E+03  0.55541492314E+03  0.47000000000E+01 0. -1.
         25    2    1    2    0    0  0.33565024636E+01 -0.38839526925E+02 -0.35269082363E+03  0.37621188889E+03  0.12499917322E+03 0.  0.
         25    2    1    2    0    0 -0.33565024636E+01  0.38839526925E+02 -0.16868680128E+03  0.21354359786E+03  0.12500342515E+03 0.  0.
          5    1    3    3  502    0  0.24097059955E+02 -0.72695284801E+02 -0.30230660875E+03  0.31189204610E+03  0.47000000000E+01 0. -1.
         -5    1    3    3    0  502 -0.20740557491E+02  0.33855757875E+02 -0.50384214886E+02  0.64319842787E+02  0.47000000000E+01 0. -1.
          5    1    4    4  503    0 -0.20535186986E+02  0.20896649727E+02  0.11328707887E+02  0.31761509674E+02  0.47000000000E+01 0.  1.
         -5    1    4    4    0  503  0.17178684523E+02  0.17942877199E+02 -0.18001550916E+03  0.18178208818E+03  0.47000000000E+01 0.  1.
<mgrwt>
<rscale>  0 0.13094031E+03</rscale>
<asrwt>0</asrwt>
<pdfrwt beam="1">  1        5 0.52598359E-02 0.13094133E+03</pdfrwt>
<pdfrwt beam="2">  1       -5 0.85471771E-01 0.13094133E+03</pdfrwt>
<totfact> 0.19716292E+02</totfact>
</mgrwt>
</event>
<event>
 8    1  0.3488953E-007  0.1332450E+03  0.7546771E-02  0.1222719E+00
         -5   -1    0    0    0  501 -0.00000000000E+00  0.00000000000E+00  0.99861989907E+03  0.99863095927E+03  0.47000000000E+01 0.  1.
          5   -1    0    0  501    0  0.00000000000E+00 -0.00000000000E+00 -0.20171279478E+02  0.20711603409E+02  0.47000000000E+01 0.  1.
         25    2    1    2    0    0 -0.42296731404E+02  0.18476848202E+02  0.67350941152E+03  0.68656313938E+03  0.12499443805E+03 0.  0.
         25    2    1    2    0    0  0.42296731404E+02 -0.18476848202E+02  0.30493920807E+03  0.33277942330E+03  0.12499526610E+03 0.  0.
          5    1    3    3  502    0 -0.19555431001E+01 -0.27014183397E+02  0.52899252172E+03  0.52970630380E+03  0.47000000000E+01 0.  1.
         -5    1    3    3    0  502 -0.40341188303E+02  0.45491031598E+02  0.14451688980E+03  0.15685683558E+03  0.47000000000E+01 0.  1.
          5    1    4    4  503    0  0.13741258049E+02  0.50919713501E+02  0.17297620830E+03  0.18089913774E+03  0.47000000000E+01 0.  1.
         -5    1    4    4    0  503  0.28555473355E+02 -0.69396561703E+02  0.13196299977E+03  0.15188028556E+03  0.47000000000E+01 0.  1.
<mgrwt>
<rscale>  0 0.13324478E+03</rscale>
<asrwt>0</asrwt>
<pdfrwt beam="2">  1        5 0.31456886E-02 0.13324498E+03</pdfrwt>
<pdfrwt beam="1">  1       -5 0.15367621E+00 0.13324498E+03</pdfrwt>
<totfact> 0.10487820E+02</totfact>
</mgrwt>
</event>
<event>
 8    1  0.3488953E-007  0.1313012E+03  0.7546771E-02  0.1225538E+00
          5   -1    0    0  501    0  0.00000000000E+00  0.00000000000E+00  0.61869980938E+02  0.62048243659E+02  0.47000000000E+01 0. -1.
         -5   -1    0    0    0  501 -0.00000000000E+00 -0.00000000000E+00 -0.28165224403E+03  0.28169145633E+03  0.47000000000E+01 0. -1.
         25    2    1    2    0    0  0.34647922295E+02  0.20357094463E+02 -0.12933029549E+03  0.18429829073E+03  0.12499857927E+03 0.  0.
         25    2    1    2    0    0 -0.34647922295E+02 -0.20357094463E+02 -0.90451967602E+02  0.15944140926E+03  0.12500045891E+03 0.  0.
          5    1    3    3  502    0  0.45495976881E+02 -0.63744156472E+01  0.53442448864E+01  0.46488364573E+02  0.47000000000E+01 0. -1.
         -5    1    3    3    0  502 -0.10848054587E+02  0.26731510110E+02 -0.13467454038E+03  0.13780992616E+03  0.47000000000E+01 0. -1.
          5    1    4    4  503    0 -0.33160515587E+02 -0.60044618845E+02 -0.98400066969E+01  0.69454242333E+02  0.47000000000E+01 0.  1.
         -5    1    4    4    0  503 -0.14874067076E+01  0.39687524382E+02 -0.80611960905E+02  0.89987166925E+02  0.47000000000E+01 0.  1.
<mgrwt>
<rscale>  0 0.13130075E+03</rscale>
<asrwt>0</asrwt>
<pdfrwt beam="1">  1        5 0.95351876E-02 0.13130120E+03</pdfrwt>
<pdfrwt beam="2">  1       -5 0.43347843E-01 0.13130120E+03</pdfrwt>
<totfact> 0.31913566E+02</totfact>
</mgrwt>
</event>
<event>
 8    1  0.3488953E-007  0.1301034E+03  0.7546771E-02  0.1227316E+00
         -5   -1    0    0    0  501 -0.00000000000E+00  0.00000000000E+00  0.14076276842E+02  0.14840201135E+02  0.47000000000E+01 0.  1.
          5   -1    0    0  501    0  0.00000000000E+00 -0.00000000000E+00 -0.11962828443E+04  0.11962920771E+04  0.47000000000E+01 0.  1.
         25    2    1    2    0    0 -0.15604796198E+02  0.32406157972E+02 -0.50083971292E+03  0.51746237136E+03  0.12503287170E+03 0.  0.
         25    2    1    2    0    0  0.15604796198E+02 -0.32406157972E+02 -0.68136685459E+03  0.69366990685E+03  0.12499392143E+03 0.  0.
          5    1    3    3  502    0 -0.39973988168E+02  0.70290453186E+02 -0.37694319132E+03  0.38554756778E+03  0.47000000000E+01 0. -1.
         -5    1    3    3    0  502  0.24369191970E+02 -0.37884295214E+02 -0.12389652160E+03  0.13191480359E+03  0.47000000000E+01 0. -1.
          5    1    4    4  503    0  0.17013051861E+02 -0.53828304103E+02 -0.12928845258E+03  0.14115425685E+03  0.47000000000E+01 0.  1.
         -5    1    4    4    0  503 -0.14082556637E+01  0.21422146131E+02 -0.55207840200E+03  0.55251564999E+03  0.47000000000E+01 0.  1.
<mgrwt>
<rscale>  0 0.13009401E+03</rscale>
<asrwt>0</asrwt>
<pdfrwt beam="2">  1        5 0.18410291E+00 0.13010337E+03</pdfrwt>
<pdfrwt beam="1">  1       -5 0.22250556E-02 0.13010337E+03</pdfrwt>
<totfact> 0.10827346E+02</totfact>
</mgrwt>
</event>
<event>
 8    1  0.3488953E-007  0.1472953E+03  0.7546771E-02  0.1203837E+00
          5   -1    0    0  501    0  0.00000000000E+00  0.00000000000E+00  0.49703842361E+02  0.49925564047E+02  0.47000000000E+01 0. -1.
         -5   -1    0    0    0  501 -0.00000000000E+00 -0.00000000000E+00 -0.43533150063E+03  0.43535687136E+03  0.47000000000E+01 0. -1.
         25    2    1    2    0    0  0.64721763092E+01  0.77643671723E+02 -0.19045202081E+03  0.24076519794E+03  0.12500191792E+03 0.  0.
         25    2    1    2    0    0 -0.64721763092E+01 -0.77643671723E+02 -0.19517563746E+03  0.24451723747E+03  0.12499888454E+03 0.  0.
          5    1    4    4  502    0 -0.65573669662E+02 -0.40077528721E+02 -0.97367892486E+02  0.12413182891E+03  0.47000000000E+01 0.  1.
         -5    1    4    4    0  502  0.59101493353E+02 -0.37566143002E+02 -0.97807744978E+02  0.12038540856E+03  0.47000000000E+01 0.  1.
          5    1    3    3  503    0  0.36628485849E+02  0.46986526079E+02 -0.18818537193E+03  0.19744671134E+03  0.47000000000E+01 0. -1.
         -5    1    3    3    0  503 -0.30156309540E+02  0.30657145644E+02 -0.22666488720E+01  0.43318486599E+02  0.47000000000E+01 0. -1.
<mgrwt>
<rscale>  0 0.14729467E+03</rscale>
<asrwt>0</asrwt>
<pdfrwt beam="1">  1        5 0.76657524E-02 0.14729531E+03</pdfrwt>
<pdfrwt beam="2">  1       -5 0.66993082E-01 0.14729531E+03</pdfrwt>
<totfact> 0.18963551E+02</totfact>
</mgrwt>
</event>
<event>
 8    1  0.3488953E-007  0.1719423E+03  0.7546771E-02  0.1175838E+00
         -5   -1    0    0    0  501 -0.00000000000E+00  0.00000000000E+00  0.14536503114E+03  0.14544099242E+03  0.47000000000E+01 0. -1.
          5   -1    0    0  501    0  0.00000000000E+00 -0.00000000000E+00 -0.22193638535E+03  0.22198614628E+03  0.47000000000E+01 0. -1.
         25    2    1    2    0    0 -0.11518085407E+03 -0.25923102948E+02  0.15050226620E+02  0.17259968146E+03  0.12500201721E+03 0.  0.
         25    2    1    2    0    0  0.11518085407E+03  0.25923102948E+02 -0.91621580833E+02  0.19482745725E+03  0.12499835045E+03 0.  0.
          5    1    4    4  502    0  0.71319443108E+02  0.53345620497E+02  0.36675635558E+00  0.89187682456E+02  0.47000000000E+01 0.  1.
         -5    1    4    4    0  502  0.43861410960E+02 -0.27422517550E+02 -0.91988337188E+02  0.10563977480E+03  0.47000000000E+01 0.  1.
          5    1    3    3  503    0 -0.14447542783E+02 -0.36191917704E+02  0.51612951223E+02  0.64842679876E+02  0.47000000000E+01 0.  1.
         -5    1    3    3    0  503 -0.10073331129E+03  0.10268814756E+02 -0.36562724603E+02  0.10775700158E+03  0.47000000000E+01 0.  1.
<mgrwt>
<rscale>  0 0.17194159E+03</rscale>
<asrwt>0</asrwt>
<pdfrwt beam="2">  1        5 0.34153730E-01 0.17194226E+03</pdfrwt>
<pdfrwt beam="1">  1       -5 0.22373522E-01 0.17194226E+03</pdfrwt>
<totfact> 0.12078789E+02</totfact>
</mgrwt>
</event>
<event>
 8    1  0.3488953E-007  0.1321681E+03  0.7546771E-02  0.1224278E+00
          5   -1    0    0  501    0  0.00000000000E+00  0.00000000000E+00  0.84812681314E+02  0.84942809653E+02  0.47000000000E+01 0.  1.
         -5   -1    0    0    0  501 -0.00000000000E+00 -0.00000000000E+00 -0.25078707215E+03  0.25083110963E+03  0.47000000000E+01 0.  1.
         25    2    1    2    0    0 -0.13062759247E+02  0.40871473672E+02 -0.15419871826E+03  0.20308222800E+03  0.12499613424E+03 0.  0.
         25    2    1    2    0    0  0.13062759247E+02 -0.40871473672E+02 -0.11775672575E+02  0.13269169129E+03  0.12500922139E+03 0.  0.
          5    1    3    3  502    0  0.42850960994E+02  0.15104423497E+02 -0.10773138946E+02  0.46930789361E+02  0.47000000000E+01 0. -1.
         -5    1    3    3    0  502 -0.55913720241E+02  0.25767050175E+02 -0.14342557932E+03  0.15615143864E+03  0.47000000000E+01 0. -1.
          5    1    4    4  503    0 -0.40298630795E+02  0.24235895855E+02  0.18009190737E+01  0.47293674010E+02  0.47000000000E+01 0. -1.
         -5    1    4    4    0  503  0.53361390042E+02 -0.65107369527E+02 -0.13576591649E+02  0.85398017276E+02  0.47000000000E+01 0. -1.
<mgrwt>
<rscale>  0 0.13216505E+03</rscale>
<asrwt>0</asrwt>
<pdfrwt beam="1">  1        5 0.13061502E-01 0.13216814E+03</pdfrwt>
<pdfrwt beam="2">  1       -5 0.38596023E-01 0.13216814E+03</pdfrwt>
<totfact> 0.23326858E+02</totfact>
</mgrwt>
</event>
<event>
 8    1  0.3488953E-007  0.1271679E+03  0.7546771E-02  0.1231721E+00
         -5   -1    0    0    0  501 -0.00000000000E+00  0.00000000000E+00  0.15543235762E+03  0.15550340124E+03  0.47000000000E+01 0.  1.
          5   -1    0    0  501    0  0.00000000000E+00 -0.00000000000E+00 -0.10389912859E+03  0.10400537930E+03  0.47000000000E+01 0.  1.
         25    2    1    2    0    0 -0.13247413977E+02 -0.19235687520E+02  0.26835299125E+02  0.12996853330E+03  0.12500472279E+03 0.  0.
         25    2    1    2    0    0  0.13247413977E+02  0.19235687520E+02  0.24697929903E+02  0.12954024723E+03  0.12500072903E+03 0.  0.
          5    1    4    4  502    0  0.28070591419E+02  0.56270872130E+02 -0.23053767570E+02  0.67141159895E+02  0.47000000000E+01 0.  1.
         -5    1    4    4    0  502 -0.14823177443E+02 -0.37035184609E+02  0.47751697473E+02  0.62399087334E+02  0.47000000000E+01 0.  1.
          5    1    3    3  503    0 -0.48346698321E+02 -0.53330302923E+02 -0.34707224245E+01  0.72219528956E+02  0.47000000000E+01 0.  1.
         -5    1    3    3    0  503  0.35099284345E+02  0.34094615403E+02  0.30306021550E+02  0.57749004348E+02  0.47000000000E+01 0.  1.
<mgrwt>
<rscale>  0 0.12716696E+03</rscale>
<asrwt>0</asrwt>
<pdfrwt beam="2">  1        5 0.15998119E-01 0.12716795E+03</pdfrwt>
<pdfrwt beam="1">  1       -5 0.23926308E-01 0.12716795E+03</pdfrwt>
<totfact> 0.40836321E+02</totfact>
</mgrwt>
</event>
<event>
 8    1  0.3488953E-007  0.1452294E+03  0.7546771E-02  0.1206464E+00
          5   -1    0    0  501    0  0.00000000000E+00  0.00000000000E+00  0.71768930739E+02  0.71922662767E+02  0.47000000000E+01 0. -1.
         -5   -1    0    0    0  501 -0.00000000000E+00 -0.00000000000E+00 -0.30119988183E+03  0.30123654960E+03  0.47000000000E+01 0. -1.
         25    2    1    2    0    0  0.17227515742E+02  0.71901487071E+02 -0.14478068037E+03  0.20506835423E+03  0.12499989343E+03 0.  0.
         25    2    1    2    0    0 -0.17227515742E+02 -0.71901487071E+02 -0.84650270722E+02  0.16809085814E+03  0.12498902797E+03 0.  0.
          5    1    3    3  502    0 -0.12790003782E+02  0.42586186605E+02 -0.15525757221E+03  0.16156785329E+03  0.47000000000E+01 0. -1.
         -5    1    3    3    0  502  0.30017519524E+02  0.29315300465E+02  0.10476891842E+02  0.43500500944E+02  0.47000000000E+01 0. -1.
          5    1    4    4  503    0  0.52175299788E+02 -0.16854650811E+02 -0.20962017718E+02  0.58888346460E+02  0.47000000000E+01 0. -1.
         -5    1    4    4    0  503 -0.69402815531E+02 -0.55046836260E+02 -0.63688253004E+02  0.10920251168E+03  0.47000000000E+01 0. -1.
<mgrwt>
<rscale>  0 0.14522708E+03</rscale>
<asrwt>0</asrwt>
<pdfrwt beam="1">  1        5 0.11056020E-01 0.14522942E+03</pdfrwt>
<pdfrwt beam="2">  1       -5 0.46353089E-01 0.14522942E+03</pdfrwt>
<totfact> 0.22175999E+02</totfact>
</mgrwt>
</event>
<event>
 8    1  0.3488953E-007  0.1348376E+03  0.7546771E-02  0.1220450E+00
         -5   -1    0    0    0  501 -0.00000000000E+00  0.00000000000E+00  0.80640864382E+02  0.80777713562E+02  0.47000000000E+01 0. -1.
          5   -1    0    0  501    0  0.00000000000E+00 -0.00000000000E+00 -0.25140306681E+03  0.25144699641E+03  0.47000000000E+01 0. -1.
         25    2    1    2    0    0  0.38179656272E+02 -0.33134937804E+02 -0.31670137954E+02  0.13850379198E+03  0.12499876998E+03 0.  0.
         25    2    1    2    0    0 -0.38179656272E+02  0.33134937804E+02 -0.13909206448E+03  0.19372091799E+03  0.12500232562E+03 0.  0.
          5    1    3    3  502    0 -0.72129486914E+01 -0.97085508427E+01 -0.72057104694E+02  0.73216111104E+02  0.47000000000E+01 0. -1.
         -5    1    3    3    0  502  0.45392604964E+02 -0.23426386961E+02  0.40386966740E+02  0.65287680874E+02  0.47000000000E+01 0. -1.
          5    1    4    4  503    0 -0.52586483602E+02  0.73070251312E+02 -0.78189002429E+02  0.11933235096E+03  0.47000000000E+01 0. -1.
         -5    1    4    4    0  503  0.14406827330E+02 -0.39935313508E+02 -0.60903062049E+02  0.74388567035E+02  0.47000000000E+01 0. -1.
<mgrwt>
<rscale>  0 0.13483683E+03</rscale>
<asrwt>0</asrwt>
<pdfrwt beam="2">  1        5 0.38691300E-01 0.13483765E+03</pdfrwt>
<pdfrwt beam="1">  1       -5 0.12420193E-01 0.13483765E+03</pdfrwt>
<totfact> 0.25562317E+02</totfact>
</mgrwt>
</event>
<event>
 8    1  0.3488953E-007  0.1275831E+03  0.7546771E-02  0.1231088E+00
          5   -1    0    0  501    0  0.00000000000E+00  0.00000000000E+00  0.10517349197E+03  0.10527845655E+03  0.47000000000E+01 0. -1.
         -5   -1    0    0    0  501 -0.00000000000E+00 -0.00000000000E+00 -0.24165991241E+03  0.24170561281E+03  0.47000000000E+01 0. -1.
         25    2    1    2    0    0  0.24232421753E+02 -0.78763434330E+01 -0.17237179319E+03  0.21445030366E+03  0.12501060196E+03 0.  0.
         25    2    1    2    0    0 -0.24232421753E+02  0.78763434330E+01  0.35885372749E+02  0.13253376571E+03  0.12501276745E+03 0.  0.
          5    1    4    4  502    0 -0.24186973655E+02  0.46143434340E+02 -0.26926348185E+02  0.58833191770E+02  0.47000000000E+01 0. -1.
         -5    1    4    4    0  502 -0.45448098205E-01 -0.38267090907E+02  0.62811720934E+02  0.73700573938E+02  0.47000000000E+01 0. -1.
          5    1    3    3  503    0 -0.15860423761E+02 -0.24847172679E+02  0.62856075776E+01  0.30504653655E+02  0.47000000000E+01 0.  1.
         -5    1    3    3    0  503  0.40092845514E+02  0.16970829246E+02 -0.17865740076E+03  0.18394565000E+03  0.47000000000E+01 0.  1.
<mgrwt>
<rscale>  0 0.12758254E+03</rscale>
<asrwt>0</asrwt>
<pdfrwt beam="1">  1        5 0.16192127E-01 0.12758307E+03</pdfrwt>
<pdfrwt beam="2">  1       -5 0.37190037E-01 0.12758307E+03</pdfrwt>
<totfact> 0.16857329E+02</totfact>
</mgrwt>
</event>
<event>
 8    1  0.3488953E-007  0.1330491E+03  0.7546771E-02  0.1223012E+00
         -5   -1    0    0    0  501 -0.00000000000E+00  0.00000000000E+00  0.28739880819E+03  0.28743723654E+03  0.47000000000E+01 0.  1.
          5   -1    0    0  501    0  0.00000000000E+00 -0.00000000000E+00 -0.73407724591E+02  0.73558031713E+02  0.47000000000E+01 0.  1.
         25    2    1    2    0    0 -0.20103066380E+02  0.40793532246E+02  0.17976371265E+03  0.22364490642E+03  0.12503521996E+03 0.  0.
         25    2    1    2    0    0  0.20103066380E+02 -0.40793532246E+02  0.34227370948E+02  0.13735036183E+03  0.12500145368E+03 0.  0.
          5    1    4    4  502    0 -0.23462824042E+02 -0.50031800089E+02  0.63145902164E+02  0.84042727778E+02  0.47000000000E+01 0.  1.
         -5    1    4    4    0  502  0.43565890422E+02  0.92382678436E+01 -0.28918531216E+02  0.53307634057E+02  0.47000000000E+01 0.  1.
          5    1    3    3  503    0 -0.71343313139E+02  0.38190624845E+02  0.10061486066E+03  0.12920461424E+03  0.47000000000E+01 0.  1.
         -5    1    3    3    0  503  0.51240246759E+02  0.26029074011E+01  0.79148851994E+02  0.94440292179E+02  0.47000000000E+01 0.  1.
<mgrwt>
<rscale>  0 0.13304112E+03</rscale>
<asrwt>0</asrwt>
<pdfrwt beam="2">  1        5 0.11308014E-01 0.13304906E+03</pdfrwt>
<pdfrwt beam="1">  1       -5 0.44229719E-01 0.13304906E+03</pdfrwt>
<totfact> 0.22821076E+02</totfact>
</mgrwt>
</event>
<event>
 8    1  0.3488953E-007  0.1832740E+03  0.7546771E-02  0.1164673E+00
          5   -1    0    0  501    0  0.00000000000E+00  0.00000000000E+00  0.94805632051E+02  0.94922062075E+02  0.47000000000E+01 0.  1.
         -5   -1    0    0    0  501 -0.00000000000E+00 -0.00000000000E+00 -0.61013237089E+03  0.61015047325E+03  0.47000000000E+01 0.  1.
         25    2    1    2    0    0  0.21237338210E+02 -0.13232851100E+03 -0.48608256699E+03  0.51948591470E+03  0.12500997673E+03 0.  0.
         25    2    1    2    0    0 -0.21237338210E+02  0.13232851100E+03 -0.29244171846E+02  0.18558662063E+03  0.12500125124E+03 0.  0.
          5    1    4    4  502    0  0.33224298197E+02  0.49506483311E+02  0.33136679254E+02  0.68373060429E+02  0.47000000000E+01 0. -1.
         -5    1    4    4    0  502 -0.54461636407E+02  0.82822027685E+02 -0.62380851100E+02  0.11721356020E+03  0.47000000000E+01 0. -1.
          5    1    3    3  503    0 -0.11005205864E+02  0.20774066709E+02 -0.10096935450E+03  0.10377657227E+03  0.47000000000E+01 0.  1.
         -5    1    3    3    0  503  0.32242544074E+02 -0.15310257770E+03 -0.38511321249E+03  0.41570934243E+03  0.47000000000E+01 0.  1.
<mgrwt>
<rscale>  0 0.18327250E+03</rscale>
<asrwt>0</asrwt>
<pdfrwt beam="1">  1        5 0.14595831E-01 0.18327399E+03</pdfrwt>
<pdfrwt beam="2">  1       -5 0.93876865E-01 0.18327399E+03</pdfrwt>
<totfact> 0.29763756E+01</totfact>
</mgrwt>
</event>
<event>
 8    1  0.3488953E-007  0.1261030E+03  0.7546771E-02  0.1233360E+00
          5   -1    0    0  501    0  0.00000000000E+00  0.00000000000E+00  0.21299946329E+02  0.21812329394E+02  0.47000000000E+01 0. -1.
         -5   -1    0    0    0  501 -0.00000000000E+00 -0.00000000000E+00 -0.80632427176E+03  0.80633796961E+03  0.47000000000E+01 0. -1.
         25    2    1    2    0    0  0.15124330145E+02  0.70228929589E+01 -0.51377542858E+03  0.52902169556E+03  0.12498278670E+03 0.  0.
         25    2    1    2    0    0 -0.15124330145E+02 -0.70228929589E+01 -0.27124889685E+03  0.29912860344E+03  0.12499556379E+03 0.  0.
          5    1    3    3  502    0 -0.34230052747E+02 -0.22279871266E+02 -0.39379965929E+03  0.39593983233E+03  0.47000000000E+01 0.  1.
         -5    1    3    3    0  502  0.49354382892E+02  0.29302764225E+02 -0.11997576930E+03  0.13308186323E+03  0.47000000000E+01 0.  1.
          5    1    4    4  503    0  0.12164969797E+02 -0.35191198311E+02 -0.15927594353E+02  0.40769905452E+02  0.47000000000E+01 0.  1.
         -5    1    4    4    0  503 -0.27289299942E+02  0.28168305352E+02 -0.25532130250E+03  0.25835869799E+03  0.47000000000E+01 0.  1.
<mgrwt>
<rscale>  0 0.12609980E+03</rscale>
<asrwt>0</asrwt>
<pdfrwt beam="1">  1        5 0.33173832E-02 0.12610296E+03</pdfrwt>
<pdfrwt beam="2">  1       -5 0.12409033E+00 0.12610296E+03</pdfrwt>
<totfact> 0.16653712E+02</totfact>
</mgrwt>
</event>
<event>
 8    1  0.3488953E-007  0.1460959E+03  0.7546771E-02  0.1205355E+00
          5   -1    0    0  501    0  0.00000000000E+00  0.00000000000E+00  0.57929402830E+03  0.57931309429E+03  0.47000000000E+01 0. -1.
         -5   -1    0    0    0  501 -0.00000000000E+00 -0.00000000000E+00 -0.38504767266E+02  0.38790554291E+02  0.47000000000E+01 0. -1.
         25    2    1    2    0    0 -0.50425632695E+02 -0.56362404340E+02  0.20327754289E+03  0.25032902797E+03  0.12499359081E+03 0.  0.
         25    2    1    2    0    0  0.50425632695E+02  0.56362404340E+02  0.33751171814E+03  0.36777462062E+03  0.12499818651E+03 0.  0.
          5    1    3    3  502    0 -0.25568984527E+02  0.25844404551E+02  0.13678826543E+03  0.14161506197E+03  0.47000000000E+01 0. -1.
         -5    1    3    3    0  502 -0.24856648168E+02 -0.82206808891E+02  0.66489277455E+02  0.10871396600E+03  0.47000000000E+01 0. -1.
          5    1    4    4  503    0  0.73405794255E+02  0.68366129780E+01  0.10181696984E+03  0.12579322420E+03  0.47000000000E+01 0. -1.
         -5    1    4    4    0  503 -0.22980161560E+02  0.49525791362E+02  0.23569474830E+03  0.24198139641E+03  0.47000000000E+01 0. -1.
<mgrwt>
<rscale>  0 0.14609492E+03</rscale>
<asrwt>0</asrwt>
<pdfrwt beam="1">  1        5 0.89145604E-01 0.14609590E+03</pdfrwt>
<pdfrwt beam="2">  1       -5 0.59472609E-02 0.14609590E+03</pdfrwt>
<totfact> 0.15073426E+02</totfact>
</mgrwt>
</event>
<event>
 8    1  0.3488953E-007  0.1263281E+03  0.7546771E-02  0.1233010E+00
          5   -1    0    0  501    0  0.00000000000E+00  0.00000000000E+00  0.21341869449E+02  0.21853269586E+02  0.47000000000E+01 0.  1.
         -5   -1    0    0    0  501 -0.00000000000E+00 -0.00000000000E+00 -0.87679608635E+03  0.87680868326E+03  0.47000000000E+01 0.  1.
         25    2    1    2    0    0  0.18268941892E+02  0.18298175636E-01 -0.60620480279E+03  0.61922671726E+03  0.12499483933E+03 0.  0.
         25    2    1    2    0    0 -0.18268941892E+02 -0.18298175636E-01 -0.24924941411E+03  0.27943523559E+03  0.12500010354E+03 0.  0.
          5    1    3    3  502    0 -0.17285245971E+02  0.55854623048E+02 -0.32910131180E+03  0.33428772349E+03  0.47000000000E+01 0.  1.
         -5    1    3    3    0  502  0.35554187863E+02 -0.55836324872E+02 -0.27710349099E+03  0.28493899377E+03  0.47000000000E+01 0.  1.
          5    1    4    4  503    0  0.52120139188E+02 -0.14487212106E+02 -0.10510221381E+03  0.11830026869E+03  0.47000000000E+01 0. -1.
         -5    1    4    4    0  503 -0.70389081080E+02  0.14468913931E+02 -0.14414720030E+03  0.16113496691E+03  0.47000000000E+01 0. -1.
<mgrwt>
<rscale>  0 0.12632676E+03</rscale>
<asrwt>0</asrwt>
<pdfrwt beam="1">  1        5 0.33236727E-02 0.12632807E+03</pdfrwt>
<pdfrwt beam="2">  1       -5 0.13493199E+00 0.12632807E+03</pdfrwt>
<totfact> 0.13369639E+02</totfact>
</mgrwt>
</event>
<event>
 8    1  0.3488953E-007  0.3029860E+03  0.7546771E-02  0.1083759E+00
         -5   -1    0    0    0  501 -0.00000000000E+00  0.00000000000E+00  0.24020741966E+03  0.24025339635E+03  0.47000000000E+01 0.  1.
          5   -1    0    0  501    0  0.00000000000E+00 -0.00000000000E+00 -0.39133185536E+03  0.39136007847E+03  0.47000000000E+01 0.  1.
         25    2    1    2    0    0  0.12097928696E+03 -0.24806007415E+03 -0.26959615006E+02  0.30417273752E+03  0.12499778058E+03 0.  0.
         25    2    1    2    0    0 -0.12097928696E+03  0.24806007415E+03 -0.12416482070E+03  0.32744073730E+03  0.12502297981E+03 0.  0.
          5    1    4    4  502    0 -0.10187179673E+03  0.71488723494E+02 -0.39666141474E+02  0.13070575097E+03  0.47000000000E+01 0.  1.
         -5    1    4    4    0  502 -0.19107490230E+02  0.17657135065E+03 -0.84498679225E+02  0.19673498633E+03  0.47000000000E+01 0.  1.
          5    1    3    3  503    0  0.64488737566E+02 -0.22445706990E+03  0.76065078884E+01  0.23370862728E+03  0.47000000000E+01 0. -1.
         -5    1    3    3    0  503  0.56490549399E+02 -0.23603004248E+02 -0.34566122894E+02  0.70464110246E+02  0.47000000000E+01 0. -1.
<mgrwt>
<rscale>  0 0.30298343E+03</rscale>
<asrwt>0</asrwt>
<pdfrwt beam="2">  1        5 0.60210609E-01 0.30298603E+03</pdfrwt>
<pdfrwt beam="1">  1       -5 0.36960695E-01 0.30298603E+03</pdfrwt>
<totfact> 0.15634911E+01</totfact>
</mgrwt>
</event>
<event>
 8    1  0.3488953E-007  0.1278013E+03  0.7546771E-02  0.1230757E+00
          5   -1    0    0  501    0  0.00000000000E+00  0.00000000000E+00  0.12894616279E+03  0.12903179026E+03  0.47000000000E+01 0. -1.
         -5   -1    0    0    0  501 -0.00000000000E+00 -0.00000000000E+00 -0.13900929191E+03  0.13908872434E+03  0.47000000000E+01 0. -1.
         25    2    1    2    0    0 -0.12342251774E+02  0.23579422836E+02 -0.45237568894E+02  0.13557140996E+03  0.12499939680E+03 0.  0.
         25    2    1    2    0    0  0.12342251774E+02 -0.23579422836E+02  0.35174439770E+02  0.13254910463E+03  0.12499481415E+03 0.  0.
          5    1    3    3  502    0 -0.51138637588E+02 -0.21244528896E+00 -0.67398750674E+02  0.84734213750E+02  0.47000000000E+01 0.  1.
         -5    1    3    3    0  502  0.38796385813E+02  0.23791868125E+02  0.22161181780E+02  0.50837196214E+02  0.47000000000E+01 0.  1.
          5    1    4    4  503    0  0.49573643506E+01 -0.56556185823E+02 -0.25909411423E+02  0.62582467325E+02  0.47000000000E+01 0. -1.
         -5    1    4    4    0  503  0.73848874238E+01  0.32976762988E+02  0.61083851193E+02  0.69966637307E+02  0.47000000000E+01 0. -1.
<mgrwt>
<rscale>  0 0.12780017E+03</rscale>
<asrwt>0</asrwt>
<pdfrwt beam="1">  1        5 0.19850568E-01 0.12780129E+03</pdfrwt>
<pdfrwt beam="2">  1       -5 0.21398742E-01 0.12780129E+03</pdfrwt>
<totfact> 0.33968661E+02</totfact>
</mgrwt>
</event>
<event>
 8    1  0.3488953E-007  0.1389734E+03  0.7546771E-02  0.1214718E+00
         -5   -1    0    0    0  501 -0.00000000000E+00  0.00000000000E+00  0.13665170106E+03  0.13673250309E+03  0.47000000000E+01 0. -1.
          5   -1    0    0  501    0  0.00000000000E+00 -0.00000000000E+00 -0.14942348249E+03  0.14949738164E+03  0.47000000000E+01 0. -1.
         25    2    1    2    0    0 -0.33273057502E+02  0.50799627330E+02  0.27229721925E+02  0.14161589656E+03  0.12500362359E+03 0.  0.
         25    2    1    2    0    0  0.33273057502E+02 -0.50799627330E+02 -0.40001503353E+02  0.14461398818E+03  0.12500154724E+03 0.  0.
          5    1    3    3  502    0 -0.41866582102E+02 -0.19000085058E+02  0.49477252500E+02  0.67704523070E+02  0.47000000000E+01 0.  1.
         -5    1    3    3    0  502  0.85935246009E+01  0.69799712388E+02 -0.22247530575E+02  0.73911373490E+02  0.47000000000E+01 0.  1.
          5    1    4    4  503    0  0.17789808343E+02  0.21883009137E+02  0.30687345488E+02  0.41942180951E+02  0.47000000000E+01 0. -1.
         -5    1    4    4    0  503  0.15483249158E+02 -0.72682636467E+02 -0.70688848841E+02  0.10267180722E+03  0.47000000000E+01 0. -1.
<mgrwt>
<rscale>  0 0.13897293E+03</rscale>
<asrwt>0</asrwt>
<pdfrwt beam="2">  1        5 0.23000128E-01 0.13897339E+03</pdfrwt>
<pdfrwt beam="1">  1       -5 0.21035239E-01 0.13897339E+03</pdfrwt>
<totfact> 0.27396133E+02</totfact>
</mgrwt>
</event>
<event>
 8    1  0.3488953E-007  0.1875779E+03  0.7546771E-02  0.1160667E+00
          5   -1    0    0  501    0  0.00000000000E+00  0.00000000000E+00  0.21225664106E+03  0.21230867074E+03  0.47000000000E+01 0. -1.
         -5   -1    0    0    0  501 -0.00000000000E+00 -0.00000000000E+00 -0.18575894056E+03  0.18581838983E+03  0.47000000000E+01 0. -1.
         25    2    1    2    0    0 -0.13976046626E+03  0.49456787504E+01 -0.52223096151E+02  0.19470036217E+03  0.12499412623E+03 0.  0.
         25    2    1    2    0    0  0.13976046626E+03 -0.49456787504E+01  0.78720796644E+02  0.20342669840E+03  0.12501203994E+03 0.  0.
          5    1    3    3  502    0 -0.14800269841E+03 -0.21001116554E+02 -0.17879914564E+02  0.15062412482E+03  0.47000000000E+01 0. -1.
         -5    1    3    3    0  502  0.82422321520E+01  0.25946795304E+02 -0.34343181587E+02  0.44076237350E+02  0.47000000000E+01 0. -1.
          5    1    4    4  503    0  0.23500977710E+02  0.32017903859E+02 -0.21561087960E+02  0.45435807848E+02  0.47000000000E+01 0.  1.
         -5    1    4    4    0  503  0.11625948855E+03 -0.36963582609E+02  0.10028188460E+03  0.15799089055E+03  0.47000000000E+01 0.  1.
<mgrwt>
<rscale>  0 0.18757489E+03</rscale>
<asrwt>0</asrwt>
<pdfrwt beam="1">  1        5 0.32663443E-01 0.18757787E+03</pdfrwt>
<pdfrwt beam="2">  1       -5 0.28586874E-01 0.18757787E+03</pdfrwt>
<totfact> 0.84441783E+01</totfact>
</mgrwt>
</event>
<event>
 8    1  0.3488953E-007  0.1383356E+03  0.7546771E-02  0.1215588E+00
          5   -1    0    0  501    0  0.00000000000E+00  0.00000000000E+00  0.11250121310E+03  0.11259934702E+03  0.47000000000E+01 0. -1.
         -5   -1    0    0    0  501 -0.00000000000E+00 -0.00000000000E+00 -0.21806538177E+03  0.21811602584E+03  0.47000000000E+01 0. -1.
         25    2    1    2    0    0 -0.21238583894E+02  0.55308241419E+02 -0.13047512206E+03  0.19015474635E+03  0.12499996427E+03 0.  0.
         25    2    1    2    0    0  0.21238583894E+02 -0.55308241419E+02  0.24910953391E+02  0.14056062650E+03  0.12500662026E+03 0.  0.
          5    1    3    3  502    0 -0.29050592267E+02  0.78223304522E+02 -0.14054423395E+03  0.16351634163E+03  0.47000000000E+01 0. -1.
         -5    1    3    3    0  502  0.78120083728E+01 -0.22915063103E+02  0.10069111891E+02  0.26638404722E+02  0.47000000000E+01 0. -1.
          5    1    4    4  503    0 -0.51992989085E+02 -0.13735940286E+02  0.87497158459E+01  0.54686328245E+02  0.47000000000E+01 0.  1.
         -5    1    4    4    0  503  0.73231572978E+02 -0.41572301133E+02  0.16161237545E+02  0.85874298258E+02  0.47000000000E+01 0.  1.
<mgrwt>
<rscale>  0 0.13833408E+03</rscale>
<asrwt>0</asrwt>
<pdfrwt beam="1">  1        5 0.17319323E-01 0.13833559E+03</pdfrwt>
<pdfrwt beam="2">  1       -5 0.33559965E-01 0.13833559E+03</pdfrwt>
<totfact> 0.18831423E+02</totfact>
</mgrwt>
</event>
<event>
 8    1  0.3488953E-007  0.1323795E+03  0.7546771E-02  0.1223986E+00
          5   -1    0    0  501    0  0.00000000000E+00  0.00000000000E+00  0.31765158230E+03  0.31768635120E+03  0.47000000000E+01 0.  1.
         -5   -1    0    0    0  501 -0.00000000000E+00 -0.00000000000E+00 -0.55008180449E+02  0.55208603644E+02  0.47000000000E+01 0.  1.
         25    2    1    2    0    0  0.90546885302E+01  0.42620501963E+02  0.13109353516E+03  0.18630580261E+03  0.12500337016E+03 0.  0.
         25    2    1    2    0    0 -0.90546885302E+01 -0.42620501963E+02  0.13154986669E+03  0.18658915224E+03  0.12494658752E+03 0.  0.
          5    1    3    3  502    0  0.23642596581E+02  0.82872362600E+01  0.14423995328E+03  0.14647492885E+03  0.47000000000E+01 0. -1.
         -5    1    3    3    0  502 -0.14587908051E+02  0.34333265703E+02 -0.13146418120E+02  0.39830873760E+02  0.47000000000E+01 0. -1.
          5    1    4    4  503    0  0.57863529981E+01 -0.85839698523E+02  0.80546584769E+02  0.11794820067E+03  0.47000000000E+01 0.  1.
         -5    1    4    4    0  503 -0.14841041528E+02  0.43219196560E+02  0.51003281921E+02  0.68640951565E+02  0.47000000000E+01 0.  1.
<mgrwt>
<rscale>  0 0.13236611E+03</rscale>
<asrwt>0</asrwt>
<pdfrwt beam="1">  1        5 0.48887566E-01 0.13237952E+03</pdfrwt>
<pdfrwt beam="2">  1       -5 0.84808887E-02 0.13237952E+03</pdfrwt>
<totfact> 0.30487244E+02</totfact>
</mgrwt>
</event>
<event>
 8    1  0.3488953E-007  0.1320394E+03  0.7546771E-02  0.1224471E+00
         -5   -1    0    0    0  501 -0.00000000000E+00  0.00000000000E+00  0.46909075695E+03  0.46911430191E+03  0.47000000000E+01 0.  1.
          5   -1    0    0  501    0  0.00000000000E+00 -0.00000000000E+00 -0.43118132908E+02  0.43373533237E+02  0.47000000000E+01 0.  1.
         25    2    1    2    0    0 -0.14487527419E+02  0.39998866520E+02  0.30927086628E+03  0.33626719782E+03  0.12496944358E+03 0.  0.
         25    2    1    2    0    0  0.14487527419E+02 -0.39998866520E+02  0.11670175776E+03  0.17622063732E+03  0.12499845991E+03 0.  0.
          5    1    4    4  502    0  0.18736010746E+02 -0.23593423271E+02  0.14209630857E+03  0.14533113441E+03  0.47000000000E+01 0.  1.
         -5    1    4    4    0  502 -0.42484833275E+01 -0.16405443249E+02 -0.25394550814E+02  0.30889502907E+02  0.47000000000E+01 0.  1.
          5    1    3    3  503    0 -0.39717574021E+02 -0.24089056719E+02  0.51953656242E+02  0.69850130541E+02  0.47000000000E+01 0. -1.
         -5    1    3    3    0  503  0.25230046602E+02  0.64087923240E+02  0.25731721004E+03  0.26641706728E+03  0.47000000000E+01 0. -1.
<mgrwt>
<rscale>  0 0.13203257E+03</rscale>
<asrwt>0</asrwt>
<pdfrwt beam="2">  1        5 0.66550165E-02 0.13203944E+03</pdfrwt>
<pdfrwt beam="1">  1       -5 0.72189263E-01 0.13203944E+03</pdfrwt>
<totfact> 0.19661123E+02</totfact>
</mgrwt>
</event>
<event>
 8    1  0.3488953E-007  0.1331417E+03  0.7546771E-02  0.1222887E+00
         -5   -1    0    0    0  501 -0.00000000000E+00  0.00000000000E+00  0.42399821025E+02  0.42659522067E+02  0.47000000000E+01 0.  1.
          5   -1    0    0  501    0  0.00000000000E+00 -0.00000000000E+00 -0.42803408631E+03  0.42805988955E+03  0.47000000000E+01 0.  1.
         25    2    1    2    0    0 -0.44132932021E+02 -0.12095796410E+02 -0.15400863800E+03  0.20358137415E+03  0.12503076158E+03 0.  0.
         25    2    1    2    0    0  0.44132932021E+02  0.12095796410E+02 -0.23162562728E+03  0.26713803747E+03  0.12497310058E+03 0.  0.
          5    1    4    4  502    0  0.28367094863E+02 -0.30494350220E+02 -0.13127425900E+02  0.43920573506E+02  0.47000000000E+01 0.  1.
         -5    1    4    4    0  502  0.15765837158E+02  0.42590146630E+02 -0.21849820138E+03  0.22321746397E+03  0.47000000000E+01 0.  1.
          5    1    3    3  503    0 -0.14925311288E+02  0.17891864039E+02 -0.15935631997E+03  0.16111924289E+03  0.47000000000E+01 0.  1.
         -5    1    3    3    0  503 -0.29207620733E+02 -0.29987660449E+02  0.53476819711E+01  0.42462131253E+02  0.47000000000E+01 0.  1.
<mgrwt>
<rscale>  0 0.13312817E+03</rscale>
<asrwt>0</asrwt>
<pdfrwt beam="2">  1        5 0.65873357E-01 0.13314171E+03</pdfrwt>
<pdfrwt beam="1">  1       -5 0.65450115E-02 0.13314171E+03</pdfrwt>
<totfact> 0.24907927E+02</totfact>
</mgrwt>
</event>
<event>
 8    1  0.3488953E-007  0.1832666E+03  0.7546771E-02  0.1164679E+00
         -5   -1    0    0    0  501 -0.00000000000E+00  0.00000000000E+00  0.63973197177E+03  0.63974923658E+03  0.47000000000E+01 0. -1.
          5   -1    0    0  501    0  0.00000000000E+00 -0.00000000000E+00 -0.53426037277E+02  0.53632373238E+02  0.47000000000E+01 0. -1.
         25    2    1    2    0    0  0.92762601804E+02  0.96722391050E+02  0.34163236316E+03  0.38768271090E+03  0.12500036621E+03 0.  0.
         25    2    1    2    0    0 -0.92762601804E+02 -0.96722391050E+02  0.24467357133E+03  0.30569889891E+03  0.12500615610E+03 0.  0.
          5    1    3    3  502    0 -0.15009535673E+02  0.65895156910E+02  0.16579177130E+03  0.17909902092E+03  0.47000000000E+01 0. -1.
         -5    1    3    3    0  502  0.10777213748E+03  0.30827234139E+02  0.17584059186E+03  0.20858368998E+03  0.47000000000E+01 0. -1.
          5    1    4    4  503    0 -0.13731988428E+02 -0.66612778803E+02  0.29183037837E+02  0.74159082407E+02  0.47000000000E+01 0. -1.
         -5    1    4    4    0  503 -0.79030613376E+02 -0.30109612246E+02  0.21549053350E+03  0.23153981650E+03  0.47000000000E+01 0. -1.
<mgrwt>
<rscale>  0 0.18326565E+03</rscale>
<asrwt>0</asrwt>
<pdfrwt beam="2">  1        5 0.82365902E-02 0.18326664E+03</pdfrwt>
<pdfrwt beam="1">  1       -5 0.98437506E-01 0.18326664E+03</pdfrwt>
<totfact> 0.72981711E+01</totfact>
</mgrwt>
</event>
<event>
 8    1  0.3488953E-007  0.2270872E+03  0.7546771E-02  0.1128707E+00
         -5   -1    0    0    0  501 -0.00000000000E+00  0.00000000000E+00  0.13325830920E+04  0.13325913804E+04  0.47000000000E+01 0. -1.
          5   -1    0    0  501    0  0.00000000000E+00 -0.00000000000E+00 -0.82645350375E+02  0.82778885826E+02  0.47000000000E+01 0. -1.
         25    2    1    2    0    0  0.44011118667E+02 -0.18440721856E+03  0.11412319211E+04  0.11636053864E+04  0.12499678729E+03 0.  0.
         25    2    1    2    0    0 -0.44011118667E+02  0.18440721856E+03  0.10870582055E+03  0.25176487978E+03  0.12500239376E+03 0.  0.
          5    1    3    3  502    0 -0.50531656987E+01 -0.84316135594E+02  0.22106436489E+03  0.23669872967E+03  0.47000000000E+01 0. -1.
         -5    1    3    3    0  502  0.49064284366E+02 -0.10009108297E+03  0.92016755618E+03  0.92690665676E+03  0.47000000000E+01 0. -1.
          5    1    4    4  503    0 -0.82964006850E+02  0.80322469120E+02  0.61652310482E+02  0.13098787297E+03  0.47000000000E+01 0. -1.
         -5    1    4    4    0  503  0.38952888183E+02  0.10408474944E+03  0.47053510070E+02  0.12077700681E+03  0.47000000000E+01 0. -1.
<mgrwt>
<rscale>  0 0.22708643E+03</rscale>
<asrwt>0</asrwt>
<pdfrwt beam="2">  1        5 0.12725579E-01 0.22708721E+03</pdfrwt>
<pdfrwt beam="1">  1       -5 0.20502368E+00 0.22708721E+03</pdfrwt>
<totfact> 0.47538604E+00</totfact>
</mgrwt>
</event>
<event>
 8    1  0.3488953E-007  0.1262321E+03  0.7546771E-02  0.1233158E+00
          5   -1    0    0  501    0  0.00000000000E+00  0.00000000000E+00  0.28453445588E+03  0.28457327102E+03  0.47000000000E+01 0.  1.
         -5   -1    0    0    0  501 -0.00000000000E+00 -0.00000000000E+00 -0.65111633838E+02  0.65281045189E+02  0.47000000000E+01 0.  1.
         25    2    1    2    0    0 -0.17529920323E+02 -0.14929724027E+01  0.43883723885E+02  0.13364251472E+03  0.12500005378E+03 0.  0.
         25    2    1    2    0    0  0.17529920323E+02  0.14929724027E+01  0.17553909815E+03  0.21621180149E+03  0.12499616414E+03 0.  0.
          5    1    3    3  502    0 -0.19004429796E+02 -0.15150080861E+02 -0.40800505001E+02  0.47722788165E+02  0.47000000000E+01 0.  1.
         -5    1    3    3    0  502  0.14745094725E+01  0.13657108458E+02  0.84684228885E+02  0.85919726556E+02  0.47000000000E+01 0.  1.
          5    1    4    4  503    0 -0.29064971758E+02 -0.46077176639E+02  0.50319586450E+02  0.74310359781E+02  0.47000000000E+01 0.  1.
         -5    1    4    4    0  503  0.46594892082E+02  0.47570149041E+02  0.12521951170E+03  0.14190144171E+03  0.47000000000E+01 0.  1.
<mgrwt>
<rscale>  0 0.12623113E+03</rscale>
<asrwt>0</asrwt>
<pdfrwt beam="1">  1        5 0.43790548E-01 0.12623209E+03</pdfrwt>
<pdfrwt beam="2">  1       -5 0.10033192E-01 0.12623209E+03</pdfrwt>
<totfact> 0.28193158E+02</totfact>
</mgrwt>
</event>
<event>
 8    1  0.3488953E-007  0.1275294E+03  0.7546771E-02  0.1231181E+00
         -5   -1    0    0    0  501 -0.00000000000E+00  0.00000000000E+00  0.49952700855E+02  0.50173322819E+02  0.47000000000E+01 0.  1.
          5   -1    0    0  501    0  0.00000000000E+00 -0.00000000000E+00 -0.37944690777E+03  0.37947601481E+03  0.47000000000E+01 0.  1.
         25    2    1    2    0    0 -0.15958507136E+02 -0.19580167329E+02 -0.83041283076E+02  0.15215556879E+03  0.12496961837E+03 0.  0.
         25    2    1    2    0    0  0.15958507136E+02  0.19580167329E+02 -0.24645292384E+03  0.27749376884E+03  0.12500276467E+03 0.  0.
          5    1    4    4  502    0 -0.17556393658E+02 -0.37447404152E+02 -0.30539650624E+02  0.51626498005E+02  0.47000000000E+01 0. -1.
         -5    1    4    4    0  502  0.33514900795E+02  0.57027571482E+02 -0.21591327321E+03  0.22586727083E+03  0.47000000000E+01 0. -1.
          5    1    3    3  503    0 -0.91038567486E+01 -0.39988366158E+02 -0.10991008770E+03  0.11740641811E+03  0.47000000000E+01 0.  1.
         -5    1    3    3    0  503 -0.68546503876E+01  0.20408198829E+02  0.26868804619E+02  0.34749150681E+02  0.47000000000E+01 0.  1.
<mgrwt>
<rscale>  0 0.12752128E+03</rscale>
<asrwt>0</asrwt>
<pdfrwt beam="2">  1        5 0.58395655E-01 0.12752940E+03</pdfrwt>
<pdfrwt beam="1">  1       -5 0.77042411E-02 0.12752940E+03</pdfrwt>
<totfact> 0.24237382E+02</totfact>
</mgrwt>
</event>
<event>
 8    1  0.3488953E-007  0.1269200E+03  0.7546771E-02  0.1232099E+00
          5   -1    0    0  501    0  0.00000000000E+00  0.00000000000E+00  0.27151409359E+03  0.27155476983E+03  0.47000000000E+01 0. -1.
         -5   -1    0    0    0  501 -0.00000000000E+00 -0.00000000000E+00 -0.68301427093E+02  0.68462945766E+02  0.47000000000E+01 0. -1.
         25    2    1    2    0    0  0.86971235784E+01 -0.20176568992E+02  0.39609279054E+02  0.13295549420E+03  0.12500213820E+03 0.  0.
         25    2    1    2    0    0 -0.86971235784E+01  0.20176568992E+02  0.16360338744E+03  0.20706222140E+03  0.12500384496E+03 0.  0.
          5    1    4    4  502    0 -0.27570968695E+02 -0.31088581860E+02  0.14216729418E+03  0.14819003938E+03  0.47000000000E+01 0. -1.
         -5    1    4    4    0  502  0.18873845117E+02  0.51265150852E+02  0.21436093260E+02  0.58872182019E+02  0.47000000000E+01 0. -1.
          5    1    3    3  503    0 -0.21013694769E+02  0.21329255738E+02 -0.32528532099E+02  0.44460183521E+02  0.47000000000E+01 0.  1.
         -5    1    3    3    0  503  0.29710818347E+02 -0.41505824731E+02  0.72137811153E+02  0.88495310674E+02  0.47000000000E+01 0.  1.
<mgrwt>
<rscale>  0 0.12691961E+03</rscale>
<asrwt>0</asrwt>
<pdfrwt beam="1">  1        5 0.41786953E-01 0.12692003E+03</pdfrwt>
<pdfrwt beam="2">  1       -5 0.10523465E-01 0.12692003E+03</pdfrwt>
<totfact> 0.28627707E+02</totfact>
</mgrwt>
</event>
<event>
 8    1  0.3488953E-007  0.1310455E+03  0.7546771E-02  0.1225915E+00
         -5   -1    0    0    0  501 -0.00000000000E+00  0.00000000000E+00  0.32450560115E+02  0.32789157534E+02  0.47000000000E+01 0.  1.
          5   -1    0    0  501    0  0.00000000000E+00 -0.00000000000E+00 -0.60937571967E+03  0.60939384451E+03  0.47000000000E+01 0.  1.
         25    2    1    2    0    0 -0.13492875184E+02 -0.36939692359E+02 -0.16979318197E+03  0.21448230683E+03  0.12500534687E+03 0.  0.
         25    2    1    2    0    0  0.13492875184E+02  0.36939692359E+02 -0.40713197758E+03  0.42770069521E+03  0.12499935585E+03 0.  0.
          5    1    4    4  502    0  0.11775940685E+02  0.60926856316E+02 -0.88848236126E+02  0.10847512923E+03  0.47000000000E+01 0.  1.
         -5    1    4    4    0  502  0.17169344988E+01 -0.23987163958E+02 -0.31828374146E+03  0.31922556598E+03  0.47000000000E+01 0.  1.
          5    1    3    3  503    0  0.40265125197E+02  0.67952416624E+01 -0.13194328460E+02  0.43169849662E+02  0.47000000000E+01 0.  1.
         -5    1    3    3    0  503 -0.53758000380E+02 -0.43734934021E+02 -0.15659885351E+03  0.17131245717E+03  0.47000000000E+01 0.  1.
<mgrwt>
<rscale>  0 0.13104412E+03</rscale>
<asrwt>0</asrwt>
<pdfrwt beam="2">  1        5 0.93777543E-01 0.13104555E+03</pdfrwt>
<pdfrwt beam="1">  1       -5 0.50198345E-02 0.13104555E+03</pdfrwt>
<totfact> 0.17113877E+02</totfact>
</mgrwt>
</event>
<event>
 8    1  0.3488953E-007  0.1643879E+03  0.7546771E-02  0.1183831E+00
          5   -1    0    0  501    0  0.00000000000E+00  0.00000000000E+00  0.56185236371E+02  0.56381475558E+02  0.47000000000E+01 0. -1.
         -5   -1    0    0    0  501 -0.00000000000E+00 -0.00000000000E+00 -0.49779727565E+03  0.49781946290E+03  0.47000000000E+01 0. -1.
         25    2    1    2    0    0 -0.10581720621E+03  0.14196451758E+02 -0.27332256485E+03  0.31894923403E+03  0.12499827624E+03 0.  0.
         25    2    1    2    0    0  0.10581720621E+03 -0.14196451758E+02 -0.16828947443E+03  0.23525170443E+03  0.12499278723E+03 0.  0.
          5    1    3    3  502    0  0.65550607368E+01 -0.38851908421E+02 -0.57452135272E+02  0.69823187098E+02  0.47000000000E+01 0.  1.
         -5    1    3    3    0  502 -0.11237226694E+03  0.53048360179E+02 -0.21587042957E+03  0.24912604693E+03  0.47000000000E+01 0.  1.
          5    1    4    4  503    0  0.17827480614E+02  0.50755663017E+02 -0.67584705321E+02  0.86508605275E+02  0.47000000000E+01 0. -1.
         -5    1    4    4    0  503  0.87989725594E+02 -0.64952114775E+02 -0.10070476911E+03  0.14874309915E+03  0.47000000000E+01 0. -1.
<mgrwt>
<rscale>  0 0.16438688E+03</rscale>
<asrwt>0</asrwt>
<pdfrwt beam="1">  1        5 0.86606849E-02 0.16438792E+03</pdfrwt>
<pdfrwt beam="2">  1       -5 0.76600995E-01 0.16438792E+03</pdfrwt>
<totfact> 0.11741755E+02</totfact>
</mgrwt>
</event>
<event>
 8    1  0.3488953E-007  0.1253755E+03  0.7546771E-02  0.1234487E+00
          5   -1    0    0  501    0  0.00000000000E+00  0.00000000000E+00  0.92399694005E+02  0.92519151814E+02  0.47000000000E+01 0.  1.
         -5   -1    0    0    0  501 -0.00000000000E+00 -0.00000000000E+00 -0.22099939580E+03  0.22104936766E+03  0.47000000000E+01 0.  1.
         25    2    1    2    0    0 -0.29576626476E+01 -0.91960288960E+01 -0.13969833406E+03  0.18770268797E+03  0.12499343910E+03 0.  0.
         25    2    1    2    0    0  0.29576626476E+01  0.91960288960E+01  0.11098632266E+02  0.12586583150E+03  0.12500285271E+03 0.  0.
          5    1    4    4  502    0 -0.60641481296E+02  0.27957557686E+01  0.10398178306E+02  0.61769066823E+02  0.47000000000E+01 0. -1.
         -5    1    4    4    0  502  0.63599143944E+02  0.64002731275E+01  0.70045395966E+00  0.64096764679E+02  0.47000000000E+01 0. -1.
          5    1    3    3  503    0 -0.10117075040E+02 -0.39615709651E+02  0.32673043774E+01  0.41285892705E+02  0.47000000000E+01 0. -1.
         -5    1    3    3    0  503  0.71594123922E+01  0.30419680755E+02 -0.14296563844E+03  0.14641679527E+03  0.47000000000E+01 0. -1.
<mgrwt>
<rscale>  0 0.12537320E+03</rscale>
<asrwt>0</asrwt>
<pdfrwt beam="1">  1        5 0.14228371E-01 0.12537555E+03</pdfrwt>
<pdfrwt beam="2">  1       -5 0.34012940E-01 0.12537555E+03</pdfrwt>
<totfact> 0.25321037E+02</totfact>
</mgrwt>
</event>
<event>
 8    1  0.3488953E-007  0.1585715E+03  0.7546771E-02  0.1190328E+00
         -5   -1    0    0    0  501 -0.00000000000E+00  0.00000000000E+00  0.45505589919E+03  0.45508017029E+03  0.47000000000E+01 0. -1.
          5   -1    0    0  501    0  0.00000000000E+00 -0.00000000000E+00 -0.60143263574E+02  0.60326628891E+02  0.47000000000E+01 0. -1.
         25    2    1    2    0    0  0.81978086158E+02  0.52824668941E+02  0.27178213645E+03  0.31464314593E+03  0.12499570925E+03 0.  0.
         25    2    1    2    0    0 -0.81978086158E+02 -0.52824668941E+02  0.12313049918E+03  0.20076365325E+03  0.12503628426E+03 0.  0.
          5    1    3    3  502    0  0.74538888767E+02  0.88425332921E+02  0.23857610255E+03  0.26517113747E+03  0.47000000000E+01 0.  1.
         -5    1    3    3    0  502  0.74391973911E+01 -0.35600663981E+02  0.33206033895E+02  0.49472008457E+02  0.47000000000E+01 0.  1.
          5    1    4    4  503    0  0.16518006751E+02 -0.85429600251E+01 -0.15718683546E+02  0.24799067027E+02  0.47000000000E+01 0. -1.
         -5    1    4    4    0  503 -0.98496092909E+02 -0.44281708916E+02  0.13884918272E+03  0.17596458622E+03  0.47000000000E+01 0. -1.
<mgrwt>
<rscale>  0 0.15856351E+03</rscale>
<asrwt>0</asrwt>
<pdfrwt beam="2">  1        5 0.92687816E-02 0.15857151E+03</pdfrwt>
<pdfrwt beam="1">  1       -5 0.70024574E-01 0.15857151E+03</pdfrwt>
<totfact> 0.12670346E+02</totfact>
</mgrwt>
</event>
<event>
 8    1  0.3488953E-007  0.1413126E+03  0.7546771E-02  0.1211574E+00
          5   -1    0    0  501    0  0.00000000000E+00  0.00000000000E+00  0.12368513610E+03  0.12377440322E+03  0.47000000000E+01 0.  1.
         -5   -1    0    0    0  501 -0.00000000000E+00 -0.00000000000E+00 -0.31678017616E+03  0.31681504069E+03  0.47000000000E+01 0.  1.
         25    2    1    2    0    0  0.64888470282E+02  0.11523296497E+02 -0.25086336517E+03  0.28792652792E+03  0.12500383016E+03 0.  0.
         25    2    1    2    0    0 -0.64888470282E+02 -0.11523296497E+02  0.57768325120E+02  0.15266291599E+03  0.12500194636E+03 0.  0.
          5    1    3    3  502    0  0.90027760432E+02 -0.27598962814E+02 -0.15882728587E+03  0.18470218497E+03  0.47000000000E+01 0. -1.
         -5    1    3    3    0  502 -0.25139290150E+02  0.39122259311E+02 -0.92036079304E+02  0.10322434295E+03  0.47000000000E+01 0. -1.
          5    1    4    4  503    0 -0.76223600319E+02 -0.41716415319E+02  0.79121216043E+00  0.87023057688E+02  0.47000000000E+01 0. -1.
         -5    1    4    4    0  503  0.11335130037E+02  0.30193118822E+02  0.56977112960E+02  0.65639858306E+02  0.47000000000E+01 0. -1.
<mgrwt>
<rscale>  0 0.14131221E+03</rscale>
<asrwt>0</asrwt>
<pdfrwt beam="1">  1        5 0.19038031E-01 0.14131262E+03</pdfrwt>
<pdfrwt beam="2">  1       -5 0.48744960E-01 0.14131262E+03</pdfrwt>
<totfact> 0.74070152E+01</totfact>
</mgrwt>
</event>
<event>
 8    1  0.3488953E-007  0.1466974E+03  0.7546771E-02  0.1204592E+00
         -5   -1    0    0    0  501 -0.00000000000E+00  0.00000000000E+00  0.23357658437E+03  0.23362386600E+03  0.47000000000E+01 0.  1.
          5   -1    0    0  501    0  0.00000000000E+00 -0.00000000000E+00 -0.33088453274E+03  0.33091791128E+03  0.47000000000E+01 0.  1.
         25    2    1    2    0    0  0.47803824453E+02 -0.60077613187E+02  0.19113451708E+03  0.24093835460E+03  0.12499744741E+03 0.  0.
         25    2    1    2    0    0 -0.47803824453E+02  0.60077613187E+02 -0.28844246546E+03  0.32360342268E+03  0.12500237620E+03 0.  0.
          5    1    4    4  502    0 -0.66493885329E+02  0.58554222309E+02 -0.98059303392E+02  0.13224125951E+03  0.47000000000E+01 0. -1.
         -5    1    4    4    0  502  0.18690060875E+02  0.15233908781E+01 -0.19038316207E+03  0.19136216317E+03  0.47000000000E+01 0. -1.
          5    1    3    3  503    0 -0.16299707113E+02  0.25294457062E+02  0.85142195622E+02  0.90425513465E+02  0.47000000000E+01 0.  1.
         -5    1    3    3    0  503  0.64103531566E+02 -0.85372070249E+02  0.10599232146E+03  0.15051284113E+03  0.47000000000E+01 0.  1.
<mgrwt>
<rscale>  0 0.14669632E+03</rscale>
<asrwt>0</asrwt>
<pdfrwt beam="2">  1        5 0.50911517E-01 0.14669737E+03</pdfrwt>
<pdfrwt beam="1">  1       -5 0.35941064E-01 0.14669737E+03</pdfrwt>
<totfact> 0.20023894E+01</totfact>
</mgrwt>
</event>
<event>
 8    1  0.3488953E-007  0.1404914E+03  0.7546771E-02  0.1212682E+00
          5   -1    0    0  501    0  0.00000000000E+00  0.00000000000E+00  0.24848733656E+03  0.24853178153E+03  0.47000000000E+01 0.  1.
         -5   -1    0    0    0  501 -0.00000000000E+00 -0.00000000000E+00 -0.79443795697E+02  0.79582703364E+02  0.47000000000E+01 0.  1.
         25    2    1    2    0    0 -0.45935971722E+02 -0.44685164691E+02  0.77263945509E+02  0.16030109331E+03  0.12497938150E+03 0.  0.
         25    2    1    2    0    0  0.45935971722E+02  0.44685164691E+02  0.91779595358E+02  0.16781339159E+03  0.12502384905E+03 0.  0.
          5    1    3    3  502    0 -0.10613589857E+02  0.33246986437E+01 -0.32851936052E+02  0.35000594468E+02  0.47000000000E+01 0.  1.
         -5    1    3    3    0  502 -0.35322381865E+02 -0.48009863334E+02  0.11011588156E+03  0.12530049884E+03  0.47000000000E+01 0.  1.
          5    1    4    4  503    0  0.71731584494E+02  0.23654760347E+02  0.10688448320E+03  0.13096316524E+03  0.47000000000E+01 0.  1.
         -5    1    4    4    0  503 -0.25795612772E+02  0.21030404343E+02 -0.15104887842E+02  0.36850226347E+02  0.47000000000E+01 0.  1.
<mgrwt>
<rscale>  0 0.14048153E+03</rscale>
<asrwt>0</asrwt>
<pdfrwt beam="1">  1        5 0.38242925E-01 0.14049142E+03</pdfrwt>
<pdfrwt beam="2">  1       -5 0.12236227E-01 0.14049142E+03</pdfrwt>
<totfact> 0.27256187E+02</totfact>
</mgrwt>
</event>
<event>
 8    1  0.3488953E-007  0.1402658E+03  0.7546771E-02  0.1212973E+00
          5   -1    0    0  501    0  0.00000000000E+00  0.00000000000E+00  0.11512262061E+03  0.11521852184E+03  0.47000000000E+01 0.  1.
         -5   -1    0    0    0  501 -0.00000000000E+00 -0.00000000000E+00 -0.17071489857E+03  0.17077958483E+03  0.47000000000E+01 0.  1.
         25    2    1    2    0    0  0.61735542241E+02 -0.15389859380E+02 -0.26334882299E+02  0.14271660742E+03  0.12500551612E+03 0.  0.
         25    2    1    2    0    0 -0.61735542241E+02  0.15389859380E+02 -0.29257395662E+02  0.14328149925E+03  0.12500187151E+03 0.  0.
          5    1    4    4  502    0 -0.90621727548E+02  0.37553197822E+02 -0.31938121799E+01  0.98258997586E+02  0.47000000000E+01 0.  1.
         -5    1    4    4    0  502  0.28886185307E+02 -0.22163338443E+02 -0.26063583483E+02  0.45022501668E+02  0.47000000000E+01 0.  1.
          5    1    3    3  503    0 -0.22635872904E+02  0.30864267025E+02 -0.25772072566E+02  0.46381843921E+02  0.47000000000E+01 0. -1.
         -5    1    3    3    0  503  0.84371415145E+02 -0.46254126405E+02 -0.56280973240E+00  0.96334763496E+02  0.47000000000E+01 0. -1.
<mgrwt>
<rscale>  0 0.14026502E+03</rscale>
<asrwt>0</asrwt>
<pdfrwt beam="1">  1        5 0.17723525E-01 0.14026583E+03</pdfrwt>
<pdfrwt beam="2">  1       -5 0.26276183E-01 0.14026583E+03</pdfrwt>
<totfact> 0.29294688E+02</totfact>
</mgrwt>
</event>
<event>
 8    1  0.3488953E-007  0.2686034E+03  0.7546771E-02  0.1102082E+00
         -5   -1    0    0    0  501 -0.00000000000E+00  0.00000000000E+00  0.16124292536E+03  0.16131140995E+03  0.47000000000E+01 0. -1.
          5   -1    0    0  501    0  0.00000000000E+00 -0.00000000000E+00 -0.50635409762E+03  0.50637590995E+03  0.47000000000E+01 0. -1.
         25    2    1    2    0    0  0.23044218837E+03 -0.58472117742E+02 -0.58524239177E+02  0.27490255671E+03  0.12499495343E+03 0.  0.
         25    2    1    2    0    0 -0.23044218837E+03  0.58472117742E+02 -0.28658693308E+03  0.39278476318E+03  0.12500083697E+03 0.  0.
          5    1    3    3  502    0  0.20776141697E+03 -0.67859913217E+02 -0.88523535532E+02  0.23585648294E+03  0.47000000000E+01 0.  1.
         -5    1    3    3    0  502  0.22680771404E+02  0.93877954746E+01  0.29999296355E+02  0.39046073773E+02  0.47000000000E+01 0.  1.
          5    1    4    4  503    0  0.13917979077E+02  0.13702489071E+02 -0.23319756635E+02  0.30779366430E+02  0.47000000000E+01 0.  1.
         -5    1    4    4    0  503 -0.24436016745E+03  0.44769628671E+02 -0.26326717645E+03  0.36200539675E+03  0.47000000000E+01 0.  1.
<mgrwt>
<rscale>  0 0.26860274E+03</rscale>
<asrwt>0</asrwt>
<pdfrwt beam="2">  1        5 0.77907575E-01 0.26860343E+03</pdfrwt>
<pdfrwt beam="1">  1       -5 0.24813550E-01 0.26860343E+03</pdfrwt>
<totfact> 0.18759337E+01</totfact>
</mgrwt>
</event>
<event>
 8    1  0.3488953E-007  0.1321353E+03  0.7546771E-02  0.1224327E+00
         -5   -1    0    0    0  501 -0.00000000000E+00  0.00000000000E+00  0.10864490692E+03  0.10874652086E+03  0.47000000000E+01 0.  1.
          5   -1    0    0  501    0  0.00000000000E+00 -0.00000000000E+00 -0.16048629001E+03  0.16055509733E+03  0.47000000000E+01 0.  1.
         25    2    1    2    0    0  0.97126020294E+01  0.41703270107E+02 -0.24695390544E+02  0.13440666470E+03  0.12498716665E+03 0.  0.
         25    2    1    2    0    0 -0.97126020294E+01 -0.41703270107E+02 -0.27145992544E+02  0.13489495349E+03  0.12500498466E+03 0.  0.
          5    1    3    3  502    0 -0.32042173520E+02  0.58772680578E+02 -0.48869042682E+02  0.83013265198E+02  0.47000000000E+01 0. -1.
         -5    1    3    3    0  502  0.41754775550E+02 -0.17069410470E+02  0.24173652138E+02  0.51393399505E+02  0.47000000000E+01 0. -1.
          5    1    4    4  503    0  0.26413403004E+02  0.16844463024E+02 -0.52590016438E+02  0.61393840260E+02  0.47000000000E+01 0. -1.
         -5    1    4    4    0  503 -0.36126005034E+02 -0.58547733132E+02  0.25444023895E+02  0.73501113233E+02  0.47000000000E+01 0. -1.
<mgrwt>
<rscale>  0 0.13213111E+03</rscale>
<asrwt>0</asrwt>
<pdfrwt beam="2">  1        5 0.24703308E-01 0.13213532E+03</pdfrwt>
<pdfrwt beam="1">  1       -5 0.16727710E-01 0.13213532E+03</pdfrwt>
<totfact> 0.35924268E+02</totfact>
</mgrwt>
</event>
<event>
 8    1  0.3488953E-007  0.1273705E+03  0.7546771E-02  0.1231419E+00
          5   -1    0    0  501    0  0.00000000000E+00  0.00000000000E+00  0.30087391704E+02  0.30452276426E+02  0.47000000000E+01 0. -1.
         -5   -1    0    0    0  501 -0.00000000000E+00 -0.00000000000E+00 -0.66897257932E+03  0.66898908951E+03  0.47000000000E+01 0. -1.
         25    2    1    2    0    0 -0.41020819057E+01  0.24142433515E+02 -0.47559471176E+03  0.49234954310E+03  0.12497223118E+03 0.  0.
         25    2    1    2    0    0  0.41020819057E+01 -0.24142433515E+02 -0.16329047586E+03  0.20709182283E+03  0.12499423750E+03 0.  0.
          5    1    3    3  502    0 -0.53431806166E+02 -0.15075508459E+02 -0.13679324840E+03  0.14770481263E+03  0.47000000000E+01 0.  1.
         -5    1    3    3    0  502  0.49329724260E+02  0.39217941974E+02 -0.33880146336E+03  0.34464473047E+03  0.47000000000E+01 0.  1.
          5    1    4    4  503    0  0.38418994907E+02 -0.25560989615E+02 -0.16596273729E+03  0.17232267271E+03  0.47000000000E+01 0.  1.
         -5    1    4    4    0  503 -0.34316913002E+02  0.14185560993E+01  0.26722614348E+01  0.34769150127E+02  0.47000000000E+01 0.  1.
<mgrwt>
<rscale>  0 0.12736510E+03</rscale>
<asrwt>0</asrwt>
<pdfrwt beam="1">  1        5 0.46581681E-02 0.12737050E+03</pdfrwt>
<pdfrwt beam="2">  1       -5 0.10294819E+00 0.12737050E+03</pdfrwt>
<totfact> 0.15303411E+02</totfact>
</mgrwt>
</event>
<event>
 8    1  0.3488953E-007  0.1279940E+03  0.7546771E-02  0.1230465E+00
          5   -1    0    0  501    0  0.00000000000E+00  0.00000000000E+00  0.13434313408E+03  0.13442532378E+03  0.47000000000E+01 0.  1.
         -5   -1    0    0    0  501 -0.00000000000E+00 -0.00000000000E+00 -0.12346557673E+03  0.12355500248E+03  0.47000000000E+01 0.  1.
         25    2    1    2    0    0  0.23682552150E+02  0.14014774828E+02 -0.96428012900E+01  0.12835183287E+03  0.12499572870E+03 0.  0.
         25    2    1    2    0    0 -0.23682552150E+02 -0.14014774828E+02  0.20520358633E+02  0.12962849339E+03  0.12500073596E+03 0.  0.
          5    1    3    3  502    0  0.20070960183E+02  0.55329924796E+02 -0.44529169499E+02  0.73953911032E+02  0.47000000000E+01 0. -1.
         -5    1    3    3    0  502  0.36115919669E+01 -0.41315149968E+02  0.34886368209E+02  0.54397921837E+02  0.47000000000E+01 0. -1.
          5    1    4    4  503    0 -0.57661462674E+02 -0.88340689867E+01  0.55291035953E+02  0.80511326591E+02  0.47000000000E+01 0. -1.
         -5    1    4    4    0  503  0.33978910524E+02 -0.51807058415E+01 -0.34770677320E+02  0.49117166803E+02  0.47000000000E+01 0. -1.
<mgrwt>
<rscale>  0 0.12799277E+03</rscale>
<asrwt>0</asrwt>
<pdfrwt beam="1">  1        5 0.20681376E-01 0.12799399E+03</pdfrwt>
<pdfrwt beam="2">  1       -5 0.19007905E-01 0.12799399E+03</pdfrwt>
<totfact> 0.39271669E+02</totfact>
</mgrwt>
</event>
<event>
 8    1  0.3488953E-007  0.1499560E+03  0.7546771E-02  0.1200529E+00
         -5   -1    0    0    0  501 -0.00000000000E+00  0.00000000000E+00  0.41990941229E+03  0.41993571476E+03  0.47000000000E+01 0.  1.
          5   -1    0    0  501    0  0.00000000000E+00 -0.00000000000E+00 -0.54266920669E+02  0.54470071405E+02  0.47000000000E+01 0.  1.
         25    2    1    2    0    0 -0.32655103508E+01 -0.82774285643E+02  0.21241532209E+03  0.26001046459E+03  0.12499170659E+03 0.  0.
         25    2    1    2    0    0  0.32655103508E+01  0.82774285643E+02  0.15322716953E+03  0.21439532157E+03  0.12499817002E+03 0.  0.
          5    1    4    4  502    0  0.31094271755E+02  0.95403372148E+02  0.15353185275E+03  0.18347418609E+03  0.47000000000E+01 0. -1.
         -5    1    4    4    0  502 -0.27828761405E+02 -0.12629086504E+02 -0.30468322416E+00  0.30921135476E+02  0.47000000000E+01 0. -1.
          5    1    3    3  503    0 -0.58958770874E+02 -0.68833757134E+02  0.11100691229E+03  0.14338356726E+03  0.47000000000E+01 0.  1.
         -5    1    3    3    0  503  0.55693260523E+02 -0.13940528509E+02  0.10140840980E+03  0.11662689733E+03  0.47000000000E+01 0.  1.
<mgrwt>
<rscale>  0 0.14995461E+03</rscale>
<asrwt>0</asrwt>
<pdfrwt beam="2">  1        5 0.83664069E-02 0.14995595E+03</pdfrwt>
<pdfrwt beam="1">  1       -5 0.64619101E-01 0.14995595E+03</pdfrwt>
<totfact> 0.17789889E+02</totfact>
</mgrwt>
</event>
<event>
 8    1  0.3488953E-007  0.1285208E+03  0.7546771E-02  0.1229668E+00
          5   -1    0    0  501    0  0.00000000000E+00  0.00000000000E+00  0.15107122579E+03  0.15114431932E+03  0.47000000000E+01 0.  1.
         -5   -1    0    0    0  501 -0.00000000000E+00 -0.00000000000E+00 -0.15671127908E+03  0.15678174317E+03  0.47000000000E+01 0.  1.
         25    2    1    2    0    0 -0.29660704437E+02 -0.34051450543E+01 -0.87564307597E+02  0.15551480988E+03  0.12500398285E+03 0.  0.
         25    2    1    2    0    0  0.29660704437E+02  0.34051450543E+01  0.81924254311E+02  0.15241125260E+03  0.12500501620E+03 0.  0.
          5    1    4    4  502    0 -0.58012141651E+01 -0.80803047385E+01 -0.31267830819E+02  0.33146834759E+02  0.47000000000E+01 0.  1.
         -5    1    4    4    0  502  0.35461918602E+02  0.11485449793E+02  0.11319208513E+03  0.11926441785E+03  0.47000000000E+01 0.  1.
          5    1    3    3  503    0 -0.10047130196E+02 -0.39984689728E+02 -0.10295175386E+03  0.11099943180E+03  0.47000000000E+01 0.  1.
         -5    1    3    3    0  503 -0.19613574240E+02  0.36579544673E+02  0.15387446264E+02  0.44515378079E+02  0.47000000000E+01 0.  1.
<mgrwt>
<rscale>  0 0.12852059E+03</rscale>
<asrwt>0</asrwt>
<pdfrwt beam="1">  1        5 0.23252770E-01 0.12852084E+03</pdfrwt>
<pdfrwt beam="2">  1       -5 0.24120470E-01 0.12852084E+03</pdfrwt>
<totfact> 0.20160262E+02</totfact>
</mgrwt>
</event>
<event>
 8    1  0.3488953E-007  0.1296062E+03  0.7546771E-02  0.1228041E+00
         -5   -1    0    0    0  501 -0.00000000000E+00  0.00000000000E+00  0.14408334418E+04  0.14408411075E+04  0.47000000000E+01 0. -1.
          5   -1    0    0  501    0  0.00000000000E+00 -0.00000000000E+00 -0.12066128947E+02  0.12949187919E+02  0.47000000000E+01 0. -1.
         25    2    1    2    0    0 -0.34158357910E+02  0.23339835175E+01  0.90459869800E+03  0.91383618798E+03  0.12500213256E+03 0.  0.
         25    2    1    2    0    0  0.34158357910E+02 -0.23339835175E+01  0.52416861487E+03  0.53995410744E+03  0.12500184171E+03 0.  0.
          5    1    3    3  502    0 -0.92448872802E+01  0.21164921780E+02  0.27705735916E+02  0.36374711784E+02  0.47000000000E+01 0.  1.
         -5    1    3    3    0  502 -0.24913470630E+02 -0.18830938262E+02  0.87689296209E+03  0.87746147620E+03  0.47000000000E+01 0.  1.
          5    1    4    4  503    0  0.46797112922E+02  0.43527259375E+02  0.42569152275E+03  0.43048804238E+03  0.47000000000E+01 0. -1.
         -5    1    4    4    0  503 -0.12638755012E+02 -0.45861242892E+02  0.98477092119E+02  0.10946606506E+03  0.47000000000E+01 0. -1.
<mgrwt>
<rscale>  0 0.12960616E+03</rscale>
<asrwt>0</asrwt>
<pdfrwt beam="2">  1        5 0.19248441E-02 0.12960623E+03</pdfrwt>
<pdfrwt beam="1">  1       -5 0.22173529E+00 0.12960623E+03</pdfrwt>
<totfact> 0.76056178E+01</totfact>
</mgrwt>
</event>
<event>
 8    1  0.3488953E-007  0.1428335E+03  0.7546771E-02  0.1209569E+00
         -5   -1    0    0    0  501 -0.00000000000E+00  0.00000000000E+00  0.26089635927E+02  0.26509603973E+02  0.47000000000E+01 0.  1.
          5   -1    0    0  501    0  0.00000000000E+00 -0.00000000000E+00 -0.84608166972E+03  0.84609472391E+03  0.47000000000E+01 0.  1.
         25    2    1    2    0    0 -0.15808890721E+02  0.67278900168E+02 -0.28377776231E+03  0.31769248842E+03  0.12498930907E+03 0.  0.
         25    2    1    2    0    0  0.15808890721E+02 -0.67278900168E+02 -0.53621427148E+03  0.55491183946E+03  0.12500013283E+03 0.  0.
          5    1    4    4  502    0 -0.51534735005E+02 -0.26019539359E+02 -0.30729290496E+03  0.31270411698E+03  0.47000000000E+01 0. -1.
         -5    1    4    4    0  502  0.67343625726E+02 -0.41259360809E+02 -0.22892136652E+03  0.24220772248E+03  0.47000000000E+01 0. -1.
          5    1    3    3  503    0  0.35663733538E+02 -0.79634103922E+01 -0.28485777094E+02  0.46570884591E+02  0.47000000000E+01 0.  1.
         -5    1    3    3    0  503 -0.51472624259E+02  0.75242310560E+02 -0.25529198522E+03  0.27112160383E+03  0.47000000000E+01 0.  1.
<mgrwt>
<rscale>  0 0.14283112E+03</rscale>
<asrwt>0</asrwt>
<pdfrwt beam="2">  1        5 0.13019970E+00 0.14283349E+03</pdfrwt>
<pdfrwt beam="1">  1       -5 0.40471002E-02 0.14283349E+03</pdfrwt>
<totfact> 0.11074913E+02</totfact>
</mgrwt>
</event>
<event>
 8    1  0.3488953E-007  0.1363555E+03  0.7546771E-02  0.1218322E+00
         -5   -1    0    0    0  501 -0.00000000000E+00  0.00000000000E+00  0.16612439197E+03  0.16619086500E+03  0.47000000000E+01 0.  1.
          5   -1    0    0  501    0  0.00000000000E+00 -0.00000000000E+00 -0.11184404365E+03  0.11194275367E+03  0.47000000000E+01 0.  1.
         25    2    1    2    0    0  0.33391646918E+01 -0.54350030649E+02  0.23687242303E+02  0.13838831465E+03  0.12500065733E+03 0.  0.
         25    2    1    2    0    0 -0.33391646918E+01  0.54350030649E+02  0.30593106020E+02  0.13974530401E+03  0.12501094354E+03 0.  0.
          5    1    4    4  502    0 -0.54147015387E+02 -0.14851438333E+01 -0.77893669833E+01  0.54926033586E+02  0.47000000000E+01 0.  1.
         -5    1    4    4    0  502  0.50807850695E+02  0.55835174482E+02  0.38382473004E+02  0.84819270426E+02  0.47000000000E+01 0.  1.
          5    1    3    3  503    0  0.49061701402E+02 -0.56744078030E+02  0.45070510394E+02  0.87637787758E+02  0.47000000000E+01 0.  1.
         -5    1    3    3    0  503 -0.45722536710E+02  0.23940473811E+01 -0.21383268091E+02  0.50750526897E+02  0.47000000000E+01 0.  1.
<mgrwt>
<rscale>  0 0.13635310E+03</rscale>
<asrwt>0</asrwt>
<pdfrwt beam="2">  1        5 0.17219482E-01 0.13635546E+03</pdfrwt>
<pdfrwt beam="1">  1       -5 0.25570305E-01 0.13635546E+03</pdfrwt>
<totfact> 0.32239061E+02</totfact>
</mgrwt>
</event>
<event>
 8    1  0.3488953E-007  0.1637800E+03  0.7546771E-02  0.1184494E+00
          5   -1    0    0  501    0  0.00000000000E+00  0.00000000000E+00  0.69811357893E+03  0.69812939996E+03  0.47000000000E+01 0. -1.
         -5   -1    0    0    0  501 -0.00000000000E+00 -0.00000000000E+00 -0.39817449744E+02  0.40093881131E+02  0.47000000000E+01 0. -1.
         25    2    1    2    0    0 -0.58072591333E+02 -0.88469324475E+02  0.25649496310E+03  0.30432460047E+03  0.12499819645E+03 0.  0.
         25    2    1    2    0    0  0.58072591333E+02  0.88469324475E+02  0.40180116609E+03  0.43389868063E+03  0.12499856295E+03 0.  0.
          5    1    4    4  502    0  0.66577294790E+02  0.29798132472E+02  0.34138986793E+03  0.34912690645E+03  0.47000000000E+01 0. -1.
         -5    1    4    4    0  502 -0.85047034573E+01  0.58671192003E+02  0.60411298163E+02  0.84771774181E+02  0.47000000000E+01 0. -1.
          5    1    3    3  503    0 -0.90924639043E+02 -0.29371282498E+02  0.15962356638E+03  0.18609603748E+03  0.47000000000E+01 0.  1.
         -5    1    3    3    0  503  0.32852047710E+02 -0.59098041977E+02  0.96871396718E+02  0.11822856299E+03  0.47000000000E+01 0.  1.
<mgrwt>
<rscale>  0 0.16377993E+03</rscale>
<asrwt>0</asrwt>
<pdfrwt beam="1">  1        5 0.10742457E+00 0.16378000E+03</pdfrwt>
<pdfrwt beam="2">  1       -5 0.61482426E-02 0.16378000E+03</pdfrwt>
<totfact> 0.93879446E+01</totfact>
</mgrwt>
</event>
<event>
 8    1  0.3488953E-007  0.1257768E+03  0.7546771E-02  0.1233861E+00
          5   -1    0    0  501    0  0.00000000000E+00  0.00000000000E+00  0.13117597097E+03  0.13126014384E+03  0.47000000000E+01 0. -1.
         -5   -1    0    0    0  501 -0.00000000000E+00 -0.00000000000E+00 -0.12293095376E+03  0.12302076813E+03  0.47000000000E+01 0. -1.
         25    2    1    2    0    0  0.12520152738E+02  0.61593743340E+01 -0.13998722449E+02  0.12655342344E+03  0.12500045055E+03 0.  0.
         25    2    1    2    0    0 -0.12520152738E+02 -0.61593743340E+01  0.22243739664E+02  0.12772748853E+03  0.12499934102E+03 0.  0.
          5    1    3    3  502    0  0.11433195239E+02  0.20599545362E+02  0.52817584132E+02  0.58024532881E+02  0.47000000000E+01 0. -1.
         -5    1    3    3    0  502  0.10869574991E+01 -0.14440171028E+02 -0.66816306581E+02  0.68528890557E+02  0.47000000000E+01 0. -1.
          5    1    4    4  503    0 -0.69923097143E+01 -0.34247399616E+02  0.66230569407E+02  0.75035692171E+02  0.47000000000E+01 0. -1.
         -5    1    4    4    0  503 -0.55278430234E+01  0.28088025282E+02 -0.43986829743E+02  0.52691796359E+02  0.47000000000E+01 0. -1.
<mgrwt>
<rscale>  0 0.12577653E+03</rscale>
<asrwt>0</asrwt>
<pdfrwt beam="1">  1        5 0.20194302E-01 0.12577681E+03</pdfrwt>
<pdfrwt beam="2">  1       -5 0.18925838E-01 0.12577681E+03</pdfrwt>
<totfact> 0.41122296E+02</totfact>
</mgrwt>
</event>
<event>
 8    1  0.3488953E-007  0.1524353E+03  0.7546771E-02  0.1197531E+00
          5   -1    0    0  501    0  0.00000000000E+00  0.00000000000E+00  0.77429558928E+03  0.77430985373E+03  0.47000000000E+01 0. -1.
         -5   -1    0    0    0  501 -0.00000000000E+00 -0.00000000000E+00 -0.37492443314E+02  0.37785887652E+02  0.47000000000E+01 0. -1.
         25    2    1    2    0    0  0.50846220973E+02 -0.70759153508E+02  0.18536673263E+03  0.23999447306E+03  0.12507727828E+03 0.  0.
         25    2    1    2    0    0 -0.50846220973E+02  0.70759153508E+02  0.55143641334E+03  0.57210126832E+03  0.12500218903E+03 0.  0.
          5    1    3    3  502    0 -0.31436589291E+02 -0.31105029668E+02  0.15548225125E+02  0.47112836058E+02  0.47000000000E+01 0. -1.
         -5    1    3    3    0  502  0.82282810264E+02 -0.39654123840E+02  0.16981850750E+03  0.19288163700E+03  0.47000000000E+01 0. -1.
          5    1    4    4  503    0 -0.81204388849E+02  0.22879259717E+02  0.21717603968E+03  0.23303462297E+03  0.47000000000E+01 0. -1.
         -5    1    4    4    0  503  0.30358167876E+02  0.47879893791E+02  0.33426037366E+03  0.33906664535E+03  0.47000000000E+01 0. -1.
<mgrwt>
<rscale>  0 0.15241990E+03</rscale>
<asrwt>0</asrwt>
<pdfrwt beam="1">  1        5 0.11914606E+00 0.15243530E+03</pdfrwt>
<pdfrwt beam="2">  1       -5 0.57917384E-02 0.15243530E+03</pdfrwt>
<totfact> 0.78351162E+01</totfact>
</mgrwt>
</event>
<event>
 8    1  0.3488953E-007  0.1250913E+03  0.7546771E-02  0.1234929E+00
         -5   -1    0    0    0  501 -0.00000000000E+00  0.00000000000E+00  0.32515654249E+03  0.32519050897E+03  0.47000000000E+01 0.  1.
          5   -1    0    0  501    0  0.00000000000E+00 -0.00000000000E+00 -0.49767727582E+02  0.49989165913E+02  0.47000000000E+01 0.  1.
         25    2    1    2    0    0 -0.33366558302E+01  0.32300247633E+01  0.17325097226E+03  0.21368670598E+03  0.12499817036E+03 0.  0.
         25    2    1    2    0    0  0.33366558302E+01 -0.32300247633E+01  0.10213784264E+03  0.16149296890E+03  0.12500509498E+03 0.  0.
          5    1    4    4  502    0 -0.33273417635E+02 -0.25382031413E+02 -0.83349295771E+01  0.42929347663E+02  0.47000000000E+01 0. -1.
         -5    1    4    4    0  502  0.36610073465E+02  0.22152006650E+02  0.11047277222E+03  0.11856362123E+03  0.47000000000E+01 0. -1.
          5    1    3    3  503    0 -0.22017602654E+02 -0.56019882283E+02  0.10617347193E+03  0.12213884796E+03  0.47000000000E+01 0. -1.
         -5    1    3    3    0  503  0.18680946824E+02  0.59249907046E+02  0.67077500326E+02  0.91547858027E+02  0.47000000000E+01 0. -1.
<mgrwt>
<rscale>  0 0.12508960E+03</rscale>
<asrwt>0</asrwt>
<pdfrwt beam="2">  1        5 0.76762199E-02 0.12509133E+03</pdfrwt>
<pdfrwt beam="1">  1       -5 0.50043731E-01 0.12509133E+03</pdfrwt>
<totfact> 0.33719503E+02</totfact>
</mgrwt>
</event>
<event>
 8    1  0.3488953E-007  0.1301446E+03  0.7546771E-02  0.1227242E+00
         -5   -1    0    0    0  501 -0.00000000000E+00  0.00000000000E+00  0.53466140840E+02  0.53672322629E+02  0.47000000000E+01 0.  1.
          5   -1    0    0  501    0  0.00000000000E+00 -0.00000000000E+00 -0.31867196687E+03  0.31870662445E+03  0.47000000000E+01 0.  1.
         25    2    1    2    0    0 -0.33783683275E+02  0.13071790196E+02 -0.11540660679E+03  0.17394336387E+03  0.12500159994E+03 0.  0.
         25    2    1    2    0    0  0.33783683275E+02 -0.13071790196E+02 -0.14979921924E+03  0.19843558322E+03  0.12499866258E+03 0.  0.
          5    1    3    3  502    0  0.40825359683E+02  0.19629515516E+02 -0.13720646669E+02  0.47564419661E+02  0.47000000000E+01 0.  1.
         -5    1    3    3    0  502 -0.74609042958E+02 -0.65577253200E+01 -0.10168596012E+03  0.12637894421E+03  0.47000000000E+01 0.  1.
          5    1    4    4  503    0 -0.23109222207E+02 -0.18615320937E+02 -0.13622119193E+03  0.13949505172E+03  0.47000000000E+01 0.  1.
         -5    1    4    4    0  503  0.56892905482E+02  0.55435307406E+01 -0.13578027314E+02  0.58940531496E+02  0.47000000000E+01 0.  1.
<mgrwt>
<rscale>  0 0.13014386E+03</rscale>
<asrwt>0</asrwt>
<pdfrwt beam="2">  1        5 0.49044981E-01 0.13014457E+03</pdfrwt>
<pdfrwt beam="1">  1       -5 0.82440865E-02 0.13014457E+03</pdfrwt>
<totfact> 0.31595581E+02</totfact>
</mgrwt>
</event>
<event>
 8    1  0.3488953E-007  0.1484753E+03  0.7546771E-02  0.1202361E+00
         -5   -1    0    0    0  501 -0.00000000000E+00  0.00000000000E+00  0.12096165893E+03  0.12105293442E+03  0.47000000000E+01 0.  1.
          5   -1    0    0  501    0  0.00000000000E+00 -0.00000000000E+00 -0.18877157233E+03  0.18883007313E+03  0.47000000000E+01 0.  1.
         25    2    1    2    0    0  0.13819563443E+02 -0.78917933562E+02 -0.46796826287E+01  0.14854376738E+03  0.12499732327E+03 0.  0.
         25    2    1    2    0    0 -0.13819563443E+02  0.78917933562E+02 -0.63130230769E+02  0.16133924017E+03  0.12500361519E+03 0.  0.
          5    1    3    3  502    0  0.16383785911E+02 -0.10462043363E+03  0.25010652869E+02  0.10891045098E+03  0.47000000000E+01 0. -1.
         -5    1    3    3    0  502 -0.25642224676E+01  0.25702500073E+02 -0.29690335498E+02  0.39633316400E+02  0.47000000000E+01 0. -1.
          5    1    4    4  503    0 -0.32867608503E+02  0.45177412540E+02 -0.95427732330E+02  0.11067890671E+03  0.47000000000E+01 0.  1.
         -5    1    4    4    0  503  0.19048045060E+02  0.33740521021E+02  0.32297501562E+02  0.50660333462E+02  0.47000000000E+01 0.  1.
<mgrwt>
<rscale>  0 0.14847401E+03</rscale>
<asrwt>0</asrwt>
<pdfrwt beam="2">  1        5 0.29053302E-01 0.14847533E+03</pdfrwt>
<pdfrwt beam="1">  1       -5 0.18621007E-01 0.14847533E+03</pdfrwt>
<totfact> 0.22423381E+02</totfact>
</mgrwt>
</event>
<event>
 8    1  0.3488953E-007  0.1319929E+03  0.7546771E-02  0.1224534E+00
         -5   -1    0    0    0  501 -0.00000000000E+00  0.00000000000E+00  0.19217325015E+02  0.19783720093E+02  0.47000000000E+01 0. -1.
          5   -1    0    0  501    0  0.00000000000E+00 -0.00000000000E+00 -0.92583652941E+03  0.92584845908E+03  0.47000000000E+01 0. -1.
         25    2    1    2    0    0  0.36544150193E+02 -0.21392661563E+02 -0.36397579216E+03  0.38716985388E+03  0.12501598933E+03 0.  0.
         25    2    1    2    0    0 -0.36544150193E+02  0.21392661563E+02 -0.54264341223E+03  0.55846232530E+03  0.12500070024E+03 0.  0.
          5    1    4    4  502    0  0.46137270401E+02  0.14551565972E+02 -0.21798400779E+03  0.22333721912E+03  0.47000000000E+01 0.  1.
         -5    1    4    4    0  502 -0.82681420593E+02  0.68410955909E+01 -0.32465940444E+03  0.33512510618E+03  0.47000000000E+01 0.  1.
          5    1    3    3  503    0  0.67483027069E+01 -0.66379721853E+02 -0.12126278885E+03  0.13848668175E+03  0.47000000000E+01 0. -1.
         -5    1    3    3    0  503  0.29795847486E+02  0.44987060290E+02 -0.24271300332E+03  0.24868317213E+03  0.47000000000E+01 0. -1.
<mgrwt>
<rscale>  0 0.13198925E+03</rscale>
<asrwt>0</asrwt>
<pdfrwt beam="2">  1        5 0.14248084E+00 0.13199287E+03</pdfrwt>
<pdfrwt beam="1">  1       -5 0.30009988E-02 0.13199287E+03</pdfrwt>
<totfact> 0.13852097E+02</totfact>
</mgrwt>
</event>
<event>
 8    1  0.3488953E-007  0.1317766E+03  0.7546771E-02  0.1224852E+00
         -5   -1    0    0    0  501 -0.00000000000E+00  0.00000000000E+00  0.32630177414E+03  0.32633562141E+03  0.47000000000E+01 0.  1.
          5   -1    0    0  501    0  0.00000000000E+00 -0.00000000000E+00 -0.57596470795E+02  0.57787917838E+02  0.47000000000E+01 0.  1.
         25    2    1    2    0    0 -0.33210986957E+02  0.25107111813E+02  0.18811056164E+03  0.22967511806E+03  0.12502695604E+03 0.  0.
         25    2    1    2    0    0  0.33210986957E+02 -0.25107111813E+02  0.80594741700E+02  0.15444842119E+03  0.12500186279E+03 0.  0.
          5    1    3    3  502    0 -0.63447721001E+01  0.69624065027E+02  0.14829991220E+03  0.16402048812E+03  0.47000000000E+01 0. -1.
         -5    1    3    3    0  502 -0.26866214857E+02 -0.44516953214E+02  0.39810649439E+02  0.65654629943E+02  0.47000000000E+01 0. -1.
          5    1    4    4  503    0  0.72966933990E+02 -0.27614873774E+02  0.18163079870E+02  0.80241773285E+02  0.47000000000E+01 0.  1.
         -5    1    4    4    0  503 -0.39755947033E+02  0.25077619608E+01  0.62431661830E+02  0.74206647906E+02  0.47000000000E+01 0.  1.
<mgrwt>
<rscale>  0 0.13177066E+03</rscale>
<asrwt>0</asrwt>
<pdfrwt beam="2">  1        5 0.88783256E-02 0.13177662E+03</pdfrwt>
<pdfrwt beam="1">  1       -5 0.50217605E-01 0.13177662E+03</pdfrwt>
<totfact> 0.26574546E+02</totfact>
</mgrwt>
</event>
<event>
 8    1  0.3488953E-007  0.1666383E+03  0.7546771E-02  0.1181401E+00
         -5   -1    0    0    0  501 -0.00000000000E+00  0.00000000000E+00  0.70627093991E+03  0.70628657821E+03  0.47000000000E+01 0.  1.
          5   -1    0    0  501    0  0.00000000000E+00 -0.00000000000E+00 -0.47655127819E+02  0.47886336333E+02  0.47000000000E+01 0.  1.
         25    2    1    2    0    0 -0.10464797048E+03  0.34525922751E+02  0.48807737854E+03  0.51574009347E+03  0.12500031801E+03 0.  0.
         25    2    1    2    0    0  0.10464797048E+03 -0.34525922751E+02  0.17053843355E+03  0.23843282108E+03  0.12499446300E+03 0.  0.
          5    1    4    4  502    0  0.12416451987E+03  0.18295669698E+01  0.13775581628E+03  0.18552339537E+03  0.47000000000E+01 0. -1.
         -5    1    4    4    0  502 -0.19516549397E+02 -0.36355489721E+02  0.32782617267E+02  0.52909425702E+02  0.47000000000E+01 0. -1.
          5    1    3    3  503    0 -0.78856809254E+02 -0.16500886659E+02  0.41531346815E+03  0.42308160260E+03  0.47000000000E+01 0. -1.
         -5    1    3    3    0  503 -0.25791161224E+02  0.51026809411E+02  0.72763910389E+02  0.92658490874E+02  0.47000000000E+01 0. -1.
<mgrwt>
<rscale>  0 0.16663718E+03</rscale>
<asrwt>0</asrwt>
<pdfrwt beam="2">  1        5 0.73505463E-02 0.16663828E+03</pdfrwt>
<pdfrwt beam="1">  1       -5 0.10867606E+00 0.16663828E+03</pdfrwt>
<totfact> 0.67669648E+01</totfact>
</mgrwt>
</event>
<event>
 8    1  0.3488953E-007  0.1294153E+03  0.7546771E-02  0.1228330E+00
          5   -1    0    0  501    0  0.00000000000E+00  0.00000000000E+00  0.27940437381E+04  0.27940476912E+04  0.47000000000E+01 0. -1.
         -5   -1    0    0    0  501 -0.00000000000E+00 -0.00000000000E+00 -0.51319586210E+01  0.69589510192E+01  0.47000000000E+01 0. -1.
         25    2    1    2    0    0 -0.13979788982E+02  0.30447116072E+02  0.12601287047E+04  0.12667556846E+04  0.12499260240E+03 0.  0.
         25    2    1    2    0    0  0.13979788982E+02 -0.30447116072E+02  0.15287830748E+04  0.15342509576E+04  0.12500339884E+03 0.  0.
          5    1    4    4  502    0  0.25077747587E+02  0.20229374573E+02  0.11532819141E+03  0.11983656684E+03  0.47000000000E+01 0.  1.
         -5    1    4    4    0  502 -0.11097958605E+02 -0.50676490645E+02  0.14134548834E+04  0.14144143908E+04  0.47000000000E+01 0.  1.
          5    1    3    3  503    0  0.17543974293E+02  0.49688204240E+02  0.11343439845E+04  0.11355769784E+04  0.47000000000E+01 0.  1.
         -5    1    3    3    0  503 -0.31523763275E+02 -0.19241088168E+02  0.12578472019E+03  0.13117870620E+03  0.47000000000E+01 0.  1.
<mgrwt>
<rscale>  0 0.12941266E+03</rscale>
<asrwt>0</asrwt>
<pdfrwt beam="1">  1        5 0.42999444E+00 0.12941527E+03</pdfrwt>
<pdfrwt beam="2">  1       -5 0.93037250E-03 0.12941527E+03</pdfrwt>
<totfact> 0.10110352E+01</totfact>
</mgrwt>
</event>
<event>
 8    1  0.3488953E-007  0.1322735E+03  0.7546771E-02  0.1224122E+00
         -5   -1    0    0    0  501 -0.00000000000E+00  0.00000000000E+00  0.74656675012E+02  0.74804472619E+02  0.47000000000E+01 0.  1.
          5   -1    0    0  501    0  0.00000000000E+00 -0.00000000000E+00 -0.23465576865E+03  0.23470283288E+03  0.47000000000E+01 0.  1.
         25    2    1    2    0    0  0.43016093014E+01 -0.43036931221E+02 -0.71497580733E+02  0.15036016582E+03  0.12500237647E+03 0.  0.
         25    2    1    2    0    0 -0.43016093014E+01  0.43036931221E+02 -0.88501512910E+02  0.15914713968E+03  0.12499845195E+03 0.  0.
          5    1    3    3  502    0 -0.43642082487E+02  0.22196709086E+02 -0.14639129466E+02  0.51319775619E+02  0.47000000000E+01 0.  1.
         -5    1    3    3    0  502  0.47943691789E+02 -0.65233640307E+02 -0.56858451267E+02  0.99040390198E+02  0.47000000000E+01 0.  1.
          5    1    4    4  503    0  0.14310272631E+02 -0.38917751570E+02 -0.76355114898E+01  0.42423652904E+02  0.47000000000E+01 0.  1.
         -5    1    4    4    0  503 -0.18611881932E+02  0.81954682790E+02 -0.80866001420E+02  0.11672348678E+03  0.47000000000E+01 0.  1.
<mgrwt>
<rscale>  0 0.13227256E+03</rscale>
<asrwt>0</asrwt>
<pdfrwt beam="2">  1        5 0.36115876E-01 0.13227349E+03</pdfrwt>
<pdfrwt beam="1">  1       -5 0.11500632E-01 0.13227349E+03</pdfrwt>
<totfact> 0.33449253E+02</totfact>
</mgrwt>
</event>
<event>
 8    1  0.3488953E-007  0.1659634E+03  0.7546771E-02  0.1182135E+00
         -5   -1    0    0    0  501 -0.00000000000E+00  0.00000000000E+00  0.53774325676E+03  0.53776379591E+03  0.47000000000E+01 0. -1.
          5   -1    0    0  501    0  0.00000000000E+00 -0.00000000000E+00 -0.67769582708E+02  0.67932365926E+02  0.47000000000E+01 0. -1.
         25    2    1    2    0    0 -0.10634355071E+03 -0.24707977681E+02  0.38502561868E+03  0.41925571997E+03  0.12494477480E+03 0.  0.
         25    2    1    2    0    0  0.10634355071E+03  0.24707977681E+02  0.84948055372E+02  0.18644044187E+03  0.12499772523E+03 0.  0.
          5    1    3    3  502    0 -0.44845052545E+02 -0.21358561184E+02  0.33789749207E+03  0.34156122734E+03  0.47000000000E+01 0.  1.
         -5    1    3    3    0  502 -0.61498498163E+02 -0.33494164976E+01  0.47128126606E+02  0.77694492627E+02  0.47000000000E+01 0.  1.
          5    1    4    4  503    0 -0.12379731496E+02 -0.31722791158E+02  0.19503305612E+02  0.39522932084E+02  0.47000000000E+01 0.  1.
         -5    1    4    4    0  503  0.11872328220E+03  0.56430768839E+02  0.65444749760E+02  0.14691750978E+03  0.47000000000E+01 0.  1.
<mgrwt>
<rscale>  0 0.16595348E+03</rscale>
<asrwt>0</asrwt>
<pdfrwt beam="2">  1        5 0.10440192E-01 0.16596345E+03</pdfrwt>
<pdfrwt beam="1">  1       -5 0.82743831E-01 0.16596345E+03</pdfrwt>
<totfact> 0.71071792E+01</totfact>
</mgrwt>
</event>
<event>
 8    1  0.3488953E-007  0.1395373E+03  0.7546771E-02  0.1213956E+00
         -5   -1    0    0    0  501 -0.00000000000E+00  0.00000000000E+00  0.18442493999E+04  0.18442553888E+04  0.47000000000E+01 0. -1.
          5   -1    0    0  501    0  0.00000000000E+00 -0.00000000000E+00 -0.10033440492E+02  0.11079707943E+02  0.47000000000E+01 0. -1.
         25    2    1    2    0    0  0.13205569840E+02  0.60586288733E+02  0.93879505042E+03  0.94910706222E+03  0.12499193334E+03 0.  0.
         25    2    1    2    0    0 -0.13205569840E+02 -0.60586288733E+02  0.89542090897E+03  0.90622803449E+03  0.12500224321E+03 0.  0.
          5    1    3    3  502    0 -0.38801204268E+02 -0.16842865061E+02  0.40219242333E+03  0.40443794449E+03  0.47000000000E+01 0. -1.
         -5    1    3    3    0  502  0.52006774109E+02  0.77429153794E+02  0.53660262709E+03  0.54466911773E+03  0.47000000000E+01 0. -1.
          5    1    4    4  503    0 -0.46792704458E+02 -0.85414969155E+02  0.62592698148E+03  0.63347608502E+03  0.47000000000E+01 0.  1.
         -5    1    4    4    0  503  0.33587134617E+02  0.24828680422E+02  0.26949392749E+03  0.27275194947E+03  0.47000000000E+01 0.  1.
<mgrwt>
<rscale>  0 0.13953495E+03</rscale>
<asrwt>0</asrwt>
<pdfrwt beam="2">  1        5 0.16245488E-02 0.13953726E+03</pdfrwt>
<pdfrwt beam="1">  1       -5 0.28381166E+00 0.13953726E+03</pdfrwt>
<totfact> 0.40981398E+01</totfact>
</mgrwt>
</event>
<event>
 8    1  0.3488953E-007  0.1365976E+03  0.7546771E-02  0.1217992E+00
          5   -1    0    0  501    0  0.00000000000E+00  0.00000000000E+00  0.17316926995E+03  0.17323303973E+03  0.47000000000E+01 0.  1.
         -5   -1    0    0    0  501 -0.00000000000E+00 -0.00000000000E+00 -0.22042593607E+03  0.22047603791E+03  0.47000000000E+01 0.  1.
         25    2    1    2    0    0 -0.13239437266E+02 -0.53446768313E+02 -0.16442756273E+03  0.21376466549E+03  0.12500827607E+03 0.  0.
         25    2    1    2    0    0  0.13239437266E+02  0.53446768313E+02  0.11717089661E+03  0.17994441215E+03  0.12497652864E+03 0.  0.
          5    1    4    4  502    0  0.40237158703E+02  0.41666998609E+02 -0.94349690846E+00  0.58121836688E+02  0.47000000000E+01 0. -1.
         -5    1    4    4    0  502 -0.26997721437E+02  0.11779769705E+02  0.11811439351E+03  0.12182257546E+03  0.47000000000E+01 0. -1.
          5    1    3    3  503    0 -0.52509601457E+02 -0.74499219532E+02 -0.10124803146E+03  0.13631084268E+03  0.47000000000E+01 0.  1.
         -5    1    3    3    0  503  0.39270164191E+02  0.21052451219E+02 -0.63179531267E+02  0.77453822817E+02  0.47000000000E+01 0.  1.
<mgrwt>
<rscale>  0 0.13659035E+03</rscale>
<asrwt>0</asrwt>
<pdfrwt beam="1">  1        5 0.26650186E-01 0.13659762E+03</pdfrwt>
<pdfrwt beam="2">  1       -5 0.33920442E-01 0.13659762E+03</pdfrwt>
<totfact> 0.81566681E+01</totfact>
</mgrwt>
</event>
<event>
 8    1  0.3488953E-007  0.1328528E+03  0.7546771E-02  0.1223283E+00
         -5   -1    0    0    0  501 -0.00000000000E+00  0.00000000000E+00  0.18788335675E+03  0.18794213403E+03  0.47000000000E+01 0.  1.
          5   -1    0    0  501    0  0.00000000000E+00 -0.00000000000E+00 -0.93899436269E+02  0.94016988527E+02  0.47000000000E+01 0.  1.
         25    2    1    2    0    0 -0.39894351780E+02 -0.20815657512E+02  0.51386731470E+02  0.14244432586E+03  0.12499975559E+03 0.  0.
         25    2    1    2    0    0  0.39894351780E+02  0.20815657512E+02  0.42597189012E+02  0.13951479670E+03  0.12500002834E+03 0.  0.
          5    1    3    3  502    0 -0.20806635966E+02 -0.58323780392E+02  0.72220624499E+02  0.95249609251E+02  0.47000000000E+01 0. -1.
         -5    1    3    3    0  502 -0.19087715814E+02  0.37508122880E+02 -0.20833893029E+02  0.47194716608E+02  0.47000000000E+01 0. -1.
          5    1    4    4  503    0  0.62588619546E+02  0.57224432348E+02  0.10193351065E+02  0.85545107167E+02  0.47000000000E+01 0. -1.
         -5    1    4    4    0  503 -0.22694267767E+02 -0.36408774836E+02  0.32403837946E+02  0.53969689532E+02  0.47000000000E+01 0. -1.
<mgrwt>
<rscale>  0 0.13285270E+03</rscale>
<asrwt>0</asrwt>
<pdfrwt beam="2">  1        5 0.14459631E-01 0.13285277E+03</pdfrwt>
<pdfrwt beam="1">  1       -5 0.28918695E-01 0.13285277E+03</pdfrwt>
<totfact> 0.34592485E+02</totfact>
</mgrwt>
</event>
<event>
 8    1  0.3488953E-007  0.1864226E+03  0.7546771E-02  0.1161728E+00
          5   -1    0    0  501    0  0.00000000000E+00  0.00000000000E+00  0.15730979820E+03  0.15737999431E+03  0.47000000000E+01 0.  1.
         -5   -1    0    0    0  501 -0.00000000000E+00 -0.00000000000E+00 -0.22309857411E+03  0.22314807588E+03  0.47000000000E+01 0.  1.
         25    2    1    2    0    0 -0.13721780819E+03 -0.17332695333E+02 -0.52293800581E+02  0.19361823818E+03  0.12499692542E+03 0.  0.
         25    2    1    2    0    0  0.13721780819E+03  0.17332695333E+02 -0.13494975329E+02  0.18690983202E+03  0.12499608688E+03 0.  0.
          5    1    4    4  502    0  0.14584975705E+03 -0.49006115763E+01 -0.39556343573E+02  0.15127115370E+03  0.47000000000E+01 0.  1.
         -5    1    4    4    0  502 -0.86319488638E+01  0.22233306910E+02  0.26061368244E+02  0.35638678315E+02  0.47000000000E+01 0.  1.
          5    1    3    3  503    0 -0.14814908442E+03 -0.44890613240E+02 -0.34313123965E+02  0.15862786277E+03  0.47000000000E+01 0.  1.
         -5    1    3    3    0  503  0.10931276232E+02  0.27557917906E+02 -0.17980676616E+02  0.34990375404E+02  0.47000000000E+01 0.  1.
<mgrwt>
<rscale>  0 0.18642245E+03</rscale>
<asrwt>0</asrwt>
<pdfrwt beam="1">  1        5 0.24210715E-01 0.18642259E+03</pdfrwt>
<pdfrwt beam="2">  1       -5 0.34332065E-01 0.18642259E+03</pdfrwt>
<totfact> 0.10528653E+02</totfact>
</mgrwt>
</event>
<event>
 8    1  0.3488953E-007  0.1453716E+03  0.7546771E-02  0.1206283E+00
          5   -1    0    0  501    0  0.00000000000E+00  0.00000000000E+00  0.13710828770E+03  0.13718882081E+03  0.47000000000E+01 0. -1.
         -5   -1    0    0    0  501 -0.00000000000E+00 -0.00000000000E+00 -0.20760439070E+03  0.20765758603E+03  0.47000000000E+01 0. -1.
         25    2    1    2    0    0 -0.72668907793E+02  0.14935701121E+02 -0.12286711408E+03  0.19032903834E+03  0.12499987915E+03 0.  0.
         25    2    1    2    0    0  0.72668907793E+02 -0.14935701121E+02  0.52371011078E+02  0.15451736850E+03  0.12501619511E+03 0.  0.
          5    1    4    4  502    0  0.82346513710E+02 -0.15391743649E+02  0.85433901270E+02  0.11974512758E+03  0.47000000000E+01 0.  1.
         -5    1    4    4    0  502 -0.96776059171E+01  0.45604252752E+00 -0.33062890192E+02  0.34772240925E+02  0.47000000000E+01 0.  1.
          5    1    3    3  503    0 -0.27079573380E+01 -0.48111521439E+02 -0.25245099067E+02  0.54602715638E+02  0.47000000000E+01 0. -1.
         -5    1    3    3    0  503 -0.69960950455E+02  0.63047222560E+02 -0.97622015009E+02  0.13572632271E+03  0.47000000000E+01 0. -1.
<mgrwt>
<rscale>  0 0.14536807E+03</rscale>
<asrwt>0</asrwt>
<pdfrwt beam="1">  1        5 0.21103870E-01 0.14537157E+03</pdfrwt>
<pdfrwt beam="2">  1       -5 0.31949424E-01 0.14537157E+03</pdfrwt>
<totfact> 0.14620154E+02</totfact>
</mgrwt>
</event>
<event>
 8    1  0.3488953E-007  0.1270545E+03  0.7546771E-02  0.1231894E+00
         -5   -1    0    0    0  501 -0.00000000000E+00  0.00000000000E+00  0.71282503233E+03  0.71284052685E+03  0.47000000000E+01 0. -1.
          5   -1    0    0  501    0  0.00000000000E+00 -0.00000000000E+00 -0.23700240292E+02  0.24161775388E+02  0.47000000000E+01 0. -1.
         25    2    1    2    0    0  0.63945932030E+01 -0.21825012948E+02  0.43044449723E+03  0.44880387405E+03  0.12500092061E+03 0.  0.
         25    2    1    2    0    0 -0.63945932030E+01  0.21825012948E+02  0.25868029480E+03  0.28819842818E+03  0.12500246828E+03 0.  0.
          5    1    4    4  502    0  0.11447728822E+02  0.53274032166E+02  0.43311594645E+02  0.69765014363E+02  0.47000000000E+01 0. -1.
         -5    1    4    4    0  502 -0.17842322025E+02 -0.31449019218E+02  0.21536870016E+03  0.21843341382E+03  0.47000000000E+01 0. -1.
          5    1    3    3  503    0 -0.19628580601E+02 -0.57366919875E+02  0.11338325049E+03  0.12866272251E+03  0.47000000000E+01 0.  1.
         -5    1    3    3    0  503  0.26023173804E+02  0.35541906927E+02  0.31706124675E+03  0.32014115155E+03  0.47000000000E+01 0.  1.
<mgrwt>
<rscale>  0 0.12705409E+03</rscale>
<asrwt>0</asrwt>
<pdfrwt beam="2">  1        5 0.36828858E-02 0.12705447E+03</pdfrwt>
<pdfrwt beam="1">  1       -5 0.10970207E+00 0.12705447E+03</pdfrwt>
<totfact> 0.19218522E+02</totfact>
</mgrwt>
</event>
<event>
 8    1  0.3488953E-007  0.1341562E+03  0.7546771E-02  0.1221418E+00
         -5   -1    0    0    0  501 -0.00000000000E+00  0.00000000000E+00  0.45713425484E+03  0.45715841559E+03  0.47000000000E+01 0. -1.
          5   -1    0    0  501    0  0.00000000000E+00 -0.00000000000E+00 -0.88480763948E+02  0.88605505409E+02  0.47000000000E+01 0. -1.
         25    2    1    2    0    0 -0.15416346927E+02 -0.46204079605E+02  0.38771180433E+03  0.41026616197E+03  0.12500159885E+03 0.  0.
         25    2    1    2    0    0  0.15416346927E+02  0.46204079605E+02 -0.19058313437E+02  0.13549775903E+03  0.12499577060E+03 0.  0.
          5    1    4    4  502    0  0.14545583903E+02 -0.39327484016E+02  0.12812491395E+02  0.44096201037E+02  0.47000000000E+01 0.  1.
         -5    1    4    4    0  502  0.87076302376E+00  0.85531563622E+02 -0.31870804832E+02  0.91401557998E+02  0.47000000000E+01 0.  1.
          5    1    3    3  503    0 -0.12498889753E+01  0.37102242387E+02  0.21148986250E+03  0.21477474375E+03  0.47000000000E+01 0.  1.
         -5    1    3    3    0  503 -0.14166457952E+02 -0.83306321992E+02  0.17622194183E+03  0.19549141822E+03  0.47000000000E+01 0.  1.
<mgrwt>
<rscale>  0 0.13415482E+03</rscale>
<asrwt>0</asrwt>
<pdfrwt beam="2">  1        5 0.13623879E-01 0.13415618E+03</pdfrwt>
<pdfrwt beam="1">  1       -5 0.70339801E-01 0.13415618E+03</pdfrwt>
<totfact> 0.60308460E+01</totfact>
</mgrwt>
</event>
<event>
 8    1  0.3488953E-007  0.1370176E+03  0.7546771E-02  0.1217400E+00
         -5   -1    0    0    0  501 -0.00000000000E+00  0.00000000000E+00  0.17892852137E+03  0.17899023929E+03  0.47000000000E+01 0.  1.
          5   -1    0    0  501    0  0.00000000000E+00 -0.00000000000E+00 -0.10669140967E+03  0.10679488236E+03  0.47000000000E+01 0.  1.
         25    2    1    2    0    0 -0.12578595077E+02  0.54687116390E+02  0.55179255793E+02  0.14771109743E+03  0.12499966513E+03 0.  0.
         25    2    1    2    0    0  0.12578595077E+02 -0.54687116390E+02  0.17057855906E+02  0.13807402421E+03  0.12499825583E+03 0.  0.
          5    1    3    3  502    0 -0.17910009630E+02  0.24434540361E+02 -0.38382421852E+02  0.49123472137E+02  0.47000000000E+01 0.  1.
         -5    1    3    3    0  502  0.53314145536E+01  0.30252576029E+02  0.93561677645E+02  0.98587625295E+02  0.47000000000E+01 0.  1.
          5    1    4    4  503    0  0.23615255751E+02  0.30224981371E+02  0.33039621035E+02  0.50842269434E+02  0.47000000000E+01 0.  1.
         -5    1    4    4    0  503 -0.11036660674E+02 -0.84912097762E+02 -0.15981765129E+02  0.87231754779E+02  0.47000000000E+01 0.  1.
<mgrwt>
<rscale>  0 0.13701726E+03</rscale>
<asrwt>0</asrwt>
<pdfrwt beam="2">  1        5 0.16426770E-01 0.13701758E+03</pdfrwt>
<pdfrwt beam="1">  1       -5 0.27540172E-01 0.13701758E+03</pdfrwt>
<totfact> 0.30504826E+02</totfact>
</mgrwt>
</event>
<event>
 8    1  0.3488953E-007  0.1258121E+03  0.7546771E-02  0.1233806E+00
         -5   -1    0    0    0  501 -0.00000000000E+00  0.00000000000E+00  0.70784290245E+02  0.70940156086E+02  0.47000000000E+01 0. -1.
          5   -1    0    0  501    0  0.00000000000E+00 -0.00000000000E+00 -0.22738548208E+03  0.22743405079E+03  0.47000000000E+01 0. -1.
         25    2    1    2    0    0  0.10368437842E+02 -0.97532873842E+01 -0.58041467904E+02  0.13855334203E+03  0.12500234187E+03 0.  0.
         25    2    1    2    0    0 -0.10368437842E+02  0.97532873842E+01 -0.98559723931E+02  0.15982086485E+03  0.12500423410E+03 0.  0.
          5    1    4    4  502    0  0.56308825538E+01 -0.11152284169E+02 -0.12292274677E+03  0.12364534748E+03  0.47000000000E+01 0.  1.
         -5    1    4    4    0  502 -0.15999320396E+02  0.20905571554E+02  0.24363022838E+02  0.36175517369E+02  0.47000000000E+01 0.  1.
          5    1    3    3  503    0 -0.35564419611E+02 -0.25787541852E+02 -0.74807938197E+02  0.86880048770E+02  0.47000000000E+01 0.  1.
         -5    1    3    3    0  503  0.45932857453E+02  0.16034254467E+02  0.16766470293E+02  0.51673293259E+02  0.47000000000E+01 0.  1.
<mgrwt>
<rscale>  0 0.12581165E+03</rscale>
<asrwt>0</asrwt>
<pdfrwt beam="2">  1        5 0.34998107E-01 0.12581212E+03</pdfrwt>
<pdfrwt beam="1">  1       -5 0.10905617E-01 0.12581212E+03</pdfrwt>
<totfact> 0.38404880E+02</totfact>
</mgrwt>
</event>
<event>
 8    1  0.3488953E-007  0.1279351E+03  0.7546771E-02  0.1230553E+00
         -5   -1    0    0    0  501 -0.00000000000E+00  0.00000000000E+00  0.67681559895E+02  0.67844554312E+02  0.47000000000E+01 0.  1.
          5   -1    0    0  501    0  0.00000000000E+00 -0.00000000000E+00 -0.24194794968E+03  0.24199359569E+03  0.47000000000E+01 0.  1.
         25    2    1    2    0    0 -0.17500329358E+01 -0.27120226671E+02 -0.94851961902E+02  0.15926168435E+03  0.12501527953E+03 0.  0.
         25    2    1    2    0    0  0.17500329358E+01  0.27120226671E+02 -0.79414427882E+02  0.15057646565E+03  0.12501220477E+03 0.  0.
          5    1    4    4  502    0  0.54713308015E+02 -0.15098636315E+02 -0.52767427905E+02  0.77640236606E+02  0.47000000000E+01 0. -1.
         -5    1    4    4    0  502 -0.52963275079E+02  0.42218862986E+02 -0.26646999977E+02  0.72936229041E+02  0.47000000000E+01 0. -1.
          5    1    3    3  503    0 -0.27588876903E+02 -0.67614156279E+02 -0.31625573743E+02  0.79718800622E+02  0.47000000000E+01 0. -1.
         -5    1    3    3    0  503  0.25838843968E+02  0.40493929607E+02 -0.63226388159E+02  0.79542883731E+02  0.47000000000E+01 0. -1.
<mgrwt>
<rscale>  0 0.12793435E+03</rscale>
<asrwt>0</asrwt>
<pdfrwt beam="2">  1        5 0.37238811E-01 0.12793510E+03</pdfrwt>
<pdfrwt beam="1">  1       -5 0.10428597E-01 0.12793510E+03</pdfrwt>
<totfact> 0.36890502E+02</totfact>
</mgrwt>
</event>
<event>
 8    1  0.3488953E-007  0.1309347E+03  0.7546771E-02  0.1226076E+00
         -5   -1    0    0    0  501 -0.00000000000E+00  0.00000000000E+00  0.13114723623E+03  0.13123142752E+03  0.47000000000E+01 0. -1.
          5   -1    0    0  501    0  0.00000000000E+00 -0.00000000000E+00 -0.13178250408E+03  0.13186628978E+03  0.47000000000E+01 0. -1.
         25    2    1    2    0    0  0.48317867148E+01  0.38664282093E+02 -0.13020783940E+02  0.13158055839E+03  0.12500251861E+03 0.  0.
         25    2    1    2    0    0 -0.48317867148E+01 -0.38664282093E+02  0.12385516091E+02  0.13151715892E+03  0.12500035683E+03 0.  0.
          5    1    3    3  502    0  0.41843389676E+02  0.56216395419E+02 -0.41396424340E+02  0.81528561385E+02  0.47000000000E+01 0. -1.
         -5    1    3    3    0  502 -0.37011602961E+02 -0.17552113326E+02  0.28375640400E+02  0.50051997003E+02  0.47000000000E+01 0. -1.
          5    1    4    4  503    0 -0.17409640354E+02 -0.72342729668E+02 -0.25768494717E+02  0.78883911116E+02  0.47000000000E+01 0.  1.
         -5    1    4    4    0  503  0.12577853639E+02  0.33678447574E+02  0.38154010808E+02  0.52633247799E+02  0.47000000000E+01 0.  1.
<mgrwt>
<rscale>  0 0.13093421E+03</rscale>
<asrwt>0</asrwt>
<pdfrwt beam="2">  1        5 0.20287153E-01 0.13093473E+03</pdfrwt>
<pdfrwt beam="1">  1       -5 0.20189419E-01 0.13093473E+03</pdfrwt>
<totfact> 0.36697061E+02</totfact>
</mgrwt>
</event>
<event>
 8    1  0.3488953E-007  0.1334302E+03  0.7546771E-02  0.1222453E+00
         -5   -1    0    0    0  501 -0.00000000000E+00  0.00000000000E+00  0.68973891263E+03  0.68975492575E+03  0.47000000000E+01 0.  1.
          5   -1    0    0  501    0  0.00000000000E+00 -0.00000000000E+00 -0.39541927545E+02  0.39820271646E+02  0.47000000000E+01 0.  1.
         25    2    1    2    0    0 -0.38349954807E+02  0.26592849709E+02  0.54084258465E+03  0.55705854111E+03  0.12500247262E+03 0.  0.
         25    2    1    2    0    0  0.38349954807E+02 -0.26592849709E+02  0.10935440043E+03  0.17251665629E+03  0.12500285242E+03 0.  0.
          5    1    3    3  502    0  0.10971801366E+02  0.33542258256E+02  0.46400362213E+03  0.46536750517E+03  0.47000000000E+01 0.  1.
         -5    1    3    3    0  502 -0.49321756173E+02 -0.69494085467E+01  0.76838962515E+02  0.91691035938E+02  0.47000000000E+01 0.  1.
          5    1    4    4  503    0  0.16549841443E+02  0.50242881849E+02  0.37862682503E+02  0.65222060337E+02  0.47000000000E+01 0.  1.
         -5    1    4    4    0  503  0.21800113364E+02 -0.76835731559E+02  0.71491717932E+02  0.10729459595E+03  0.47000000000E+01 0.  1.
<mgrwt>
<rscale>  0 0.13343009E+03</rscale>
<asrwt>0</asrwt>
<pdfrwt beam="2">  1        5 0.61060168E-02 0.13343018E+03</pdfrwt>
<pdfrwt beam="1">  1       -5 0.10613631E+00 0.13343018E+03</pdfrwt>
<totfact> 0.91867485E+01</totfact>
</mgrwt>
</event>
<event>
 8    1  0.3488953E-007  0.1699182E+03  0.7546771E-02  0.1177933E+00
         -5   -1    0    0    0  501 -0.00000000000E+00  0.00000000000E+00  0.64236083659E+03  0.64237803074E+03  0.47000000000E+01 0.  1.
          5   -1    0    0  501    0  0.00000000000E+00 -0.00000000000E+00 -0.53349476507E+02  0.53556107435E+02  0.47000000000E+01 0.  1.
         25    2    1    2    0    0  0.11363216029E+03 -0.18302572996E+02  0.43343615655E+03  0.46555219368E+03  0.12499876480E+03 0.  0.
         25    2    1    2    0    0 -0.11363216029E+03  0.18302572996E+02  0.15557520353E+03  0.23038194450E+03  0.12499977747E+03 0.  0.
          5    1    3    3  502    0  0.29517021645E+02  0.48890008202E+02  0.10144892448E+03  0.11651378351E+03  0.47000000000E+01 0.  1.
         -5    1    3    3    0  502  0.84115138646E+02 -0.67192581197E+02  0.33198723207E+03  0.34903841017E+03  0.47000000000E+01 0.  1.
          5    1    4    4  503    0 -0.77572966853E+02  0.16146657033E+01  0.17073384307E+03  0.18759612870E+03  0.47000000000E+01 0.  1.
         -5    1    4    4    0  503 -0.36059193438E+02  0.16687907292E+02 -0.15158639542E+02  0.42785815803E+02  0.47000000000E+01 0.  1.
<mgrwt>
<rscale>  0 0.16991802E+03</rscale>
<asrwt>0</asrwt>
<pdfrwt beam="2">  1        5 0.82248288E-02 0.16991821E+03</pdfrwt>
<pdfrwt beam="1">  1       -5 0.98841965E-01 0.16991821E+03</pdfrwt>
<totfact> 0.70911151E+01</totfact>
</mgrwt>
</event>
<event>
 8    1  0.3488953E-007  0.1560153E+03  0.7546771E-02  0.1193274E+00
         -5   -1    0    0    0  501 -0.00000000000E+00  0.00000000000E+00  0.10771107071E+04  0.10771209613E+04  0.47000000000E+01 0. -1.
          5   -1    0    0  501    0  0.00000000000E+00 -0.00000000000E+00 -0.22344212618E+02  0.22833174057E+02  0.47000000000E+01 0. -1.
         25    2    1    2    0    0  0.93276883436E+02 -0.41647188910E+01  0.53339420841E+03  0.55574288302E+03  0.12499139407E+03 0.  0.
         25    2    1    2    0    0 -0.93276883436E+02  0.41647188910E+01  0.52137228607E+03  0.54421125238E+03  0.12497561627E+03 0.  0.
          5    1    4    4  502    0  0.10013180759E+01  0.43941420946E+02  0.25537288639E+03  0.25917031508E+03  0.47000000000E+01 0. -1.
         -5    1    4    4    0  502 -0.94278201512E+02 -0.39776702055E+02  0.26599939968E+03  0.28504093730E+03  0.47000000000E+01 0. -1.
          5    1    3    3  503    0  0.11861051218E+02  0.40415220188E+02  0.60905883481E+02  0.74200345022E+02  0.47000000000E+01 0. -1.
         -5    1    3    3    0  503  0.81415832218E+02 -0.44579939079E+02  0.47248832493E+03  0.48154253800E+03  0.47000000000E+01 0. -1.
<mgrwt>
<rscale>  0 0.15601213E+03</rscale>
<asrwt>0</asrwt>
<pdfrwt beam="2">  1        5 0.34759730E-02 0.15601529E+03</pdfrwt>
<pdfrwt beam="1">  1       -5 0.16574771E+00 0.15601529E+03</pdfrwt>
<totfact> 0.75651485E+01</totfact>
</mgrwt>
</event>
<event>
 8    1  0.3488953E-007  0.1799940E+03  0.7546771E-02  0.1167815E+00
          5   -1    0    0  501    0  0.00000000000E+00  0.00000000000E+00  0.33500662889E+03  0.33503959676E+03  0.47000000000E+01 0. -1.
         -5   -1    0    0    0  501 -0.00000000000E+00 -0.00000000000E+00 -0.10545267615E+03  0.10555736312E+03  0.47000000000E+01 0. -1.
         25    2    1    2    0    0 -0.12536629977E+03 -0.32509041924E+02  0.50993725758E+02  0.18707807468E+03  0.12499719611E+03 0.  0.
         25    2    1    2    0    0  0.12536629977E+03  0.32509041924E+02  0.17856022698E+03  0.25351888520E+03  0.12495808725E+03 0.  0.
          5    1    3    3  502    0 -0.88504895429E+02  0.29083648266E+02  0.65131189502E+02  0.11376790829E+03  0.47000000000E+01 0.  1.
         -5    1    3    3    0  502 -0.36861404339E+02 -0.61592690189E+02 -0.14137463744E+02  0.73310166388E+02  0.47000000000E+01 0.  1.
          5    1    4    4  503    0  0.56222350160E+02 -0.16062988275E+02  0.15491272798E+03  0.16564726239E+03  0.47000000000E+01 0.  1.
         -5    1    4    4    0  503  0.69143949608E+02  0.48572030199E+02  0.23647498999E+02  0.87871622802E+02  0.47000000000E+01 0.  1.
<mgrwt>
<rscale>  0 0.17998723E+03</rscale>
<asrwt>0</asrwt>
<pdfrwt beam="1">  1        5 0.51550070E-01 0.17999402E+03</pdfrwt>
<pdfrwt beam="2">  1       -5 0.16234077E-01 0.17999402E+03</pdfrwt>
<totfact> 0.94917814E+01</totfact>
</mgrwt>
</event>
<event>
 8    1  0.3488953E-007  0.1613917E+03  0.7546771E-02  0.1187135E+00
         -5   -1    0    0    0  501 -0.00000000000E+00  0.00000000000E+00  0.56418996217E+02  0.56614425142E+02  0.47000000000E+01 0. -1.
          5   -1    0    0  501    0  0.00000000000E+00 -0.00000000000E+00 -0.48670640555E+03  0.48672909838E+03  0.47000000000E+01 0. -1.
         25    2    1    2    0    0 -0.71652460376E+02 -0.72720032431E+02 -0.15231739653E+03  0.22191863856E+03  0.12500005864E+03 0.  0.
         25    2    1    2    0    0  0.71652460376E+02  0.72720032431E+02 -0.27797001281E+03  0.32142488496E+03  0.12499740180E+03 0.  0.
          5    1    3    3  502    0 -0.84638757272E+02 -0.84227828256E+02 -0.16215136308E+03  0.20142790480E+03  0.47000000000E+01 0. -1.
         -5    1    3    3    0  502  0.12986296896E+02  0.11507795825E+02  0.98339665486E+01  0.20490733757E+02  0.47000000000E+01 0. -1.
          5    1    4    4  503    0  0.55393619427E+02 -0.24931598795E+02 -0.86189122622E+02  0.10554947916E+03  0.47000000000E+01 0. -1.
         -5    1    4    4    0  503  0.16258840949E+02  0.97651631226E+02 -0.19178089019E+03  0.21587540580E+03  0.47000000000E+01 0. -1.
<mgrwt>
<rscale>  0 0.16139122E+03</rscale>
<asrwt>0</asrwt>
<pdfrwt beam="2">  1        5 0.74894684E-01 0.16139174E+03</pdfrwt>
<pdfrwt beam="1">  1       -5 0.86966245E-02 0.16139174E+03</pdfrwt>
<totfact> 0.12209959E+02</totfact>
</mgrwt>
</event>
<event>
 8    1  0.3488953E-007  0.1569216E+03  0.7546771E-02  0.1192218E+00
          5   -1    0    0  501    0  0.00000000000E+00  0.00000000000E+00  0.37449783992E+02  0.37743559994E+02  0.47000000000E+01 0. -1.
         -5   -1    0    0    0  501 -0.00000000000E+00 -0.00000000000E+00 -0.74456394936E+03  0.74457878340E+03  0.47000000000E+01 0. -1.
         25    2    1    2    0    0 -0.36119387506E+02 -0.87724934982E+02 -0.48945917209E+03  0.51399777858E+03  0.12499264325E+03 0.  0.
         25    2    1    2    0    0  0.36119387506E+02  0.87724934982E+02 -0.21765499328E+03  0.26832456482E+03  0.12499640640E+03 0.  0.
          5    1    3    3  502    0 -0.69222409130E+02 -0.42092564489E+02 -0.15672527271E+03  0.17648916969E+03  0.47000000000E+01 0.  1.
         -5    1    3    3    0  502  0.33103021623E+02 -0.45632370493E+02 -0.33273389938E+03  0.33750860889E+03  0.47000000000E+01 0.  1.
          5    1    4    4  503    0  0.41909353977E+02  0.11370611430E+03 -0.20565581708E+03  0.23875066383E+03  0.47000000000E+01 0. -1.
         -5    1    4    4    0  503 -0.57899664710E+01 -0.25981179313E+02 -0.11999176197E+02  0.29573900988E+02  0.47000000000E+01 0. -1.
<mgrwt>
<rscale>  0 0.15692081E+03</rscale>
<asrwt>0</asrwt>
<pdfrwt beam="1">  1        5 0.57852450E-02 0.15692156E+03</pdfrwt>
<pdfrwt beam="2">  1       -5 0.11457203E+00 0.15692156E+03</pdfrwt>
<totfact> 0.87426348E+01</totfact>
</mgrwt>
</event>
<event>
 8    1  0.3488953E-007  0.1369707E+03  0.7546771E-02  0.1217467E+00
         -5   -1    0    0    0  501 -0.00000000000E+00  0.00000000000E+00  0.17010748515E+03  0.17017240230E+03  0.47000000000E+01 0. -1.
          5   -1    0    0  501    0  0.00000000000E+00 -0.00000000000E+00 -0.11621736708E+03  0.11631236569E+03  0.47000000000E+01 0. -1.
         25    2    1    2    0    0  0.54271844049E+02 -0.13745677855E+02  0.59662015216E+02  0.14940053349E+03  0.12500634636E+03 0.  0.
         25    2    1    2    0    0 -0.54271844049E+02  0.13745677855E+02 -0.57718971505E+01  0.13708423450E+03  0.12499758332E+03 0.  0.
          5    1    3    3  502    0  0.14072210106E+02 -0.42344629695E+02  0.83207141872E+02  0.94533661834E+02  0.47000000000E+01 0.  1.
         -5    1    3    3    0  502  0.40199633943E+02  0.28598951840E+02 -0.23545126656E+02  0.54866871651E+02  0.47000000000E+01 0.  1.
          5    1    4    4  503    0  0.13164599694E+01  0.35303234051E+02 -0.50917513105E+02  0.62150901379E+02  0.47000000000E+01 0.  1.
         -5    1    4    4    0  503 -0.55588304018E+02 -0.21557556196E+02  0.45145615955E+02  0.74933333122E+02  0.47000000000E+01 0.  1.
<mgrwt>
<rscale>  0 0.13696867E+03</rscale>
<asrwt>0</asrwt>
<pdfrwt beam="2">  1        5 0.17891896E-01 0.13697067E+03</pdfrwt>
<pdfrwt beam="1">  1       -5 0.26182683E-01 0.13697067E+03</pdfrwt>
<totfact> 0.28752951E+02</totfact>
</mgrwt>
</event>
<event>
 8    1  0.3488953E-007  0.1520937E+03  0.7546771E-02  0.1197924E+00
          5   -1    0    0  501    0  0.00000000000E+00  0.00000000000E+00  0.63680129444E+03  0.63681863870E+03  0.47000000000E+01 0. -1.
         -5   -1    0    0    0  501 -0.00000000000E+00 -0.00000000000E+00 -0.40421110544E+02  0.40693441457E+02  0.47000000000E+01 0. -1.
         25    2    1    2    0    0  0.56338605811E+02 -0.65832152139E+02  0.18856569763E+03  0.24225918078E+03  0.12499831035E+03 0.  0.
         25    2    1    2    0    0 -0.56338605811E+02  0.65832152139E+02  0.40781448627E+03  0.43525289939E+03  0.12499808179E+03 0.  0.
          5    1    3    3  502    0  0.51817293680E+02 -0.95421437403E+02  0.18084550725E+03  0.21099163522E+03  0.47000000000E+01 0. -1.
         -5    1    3    3    0  502  0.45213121314E+01  0.29589285263E+02  0.77201903771E+01  0.31267545558E+02  0.47000000000E+01 0. -1.
          5    1    4    4  503    0 -0.39717992486E+02  0.17183431043E+02  0.36665277667E+03  0.36922775881E+03  0.47000000000E+01 0. -1.
         -5    1    4    4    0  503 -0.16620613325E+02  0.48648721097E+02  0.41161709597E+02  0.66025140580E+02  0.47000000000E+01 0. -1.
<mgrwt>
<rscale>  0 0.15209364E+03</rscale>
<asrwt>0</asrwt>
<pdfrwt beam="1">  1        5 0.97991707E-01 0.15209368E+03</pdfrwt>
<pdfrwt beam="2">  1       -5 0.62409155E-02 0.15209368E+03</pdfrwt>
<totfact> 0.11220905E+02</totfact>
</mgrwt>
</event>
<event>
 8    1  0.3488953E-007  0.1509243E+03  0.7546771E-02  0.1199344E+00
         -5   -1    0    0    0  501 -0.00000000000E+00  0.00000000000E+00  0.40681747064E+03  0.40684461950E+03  0.47000000000E+01 0. -1.
          5   -1    0    0  501    0  0.00000000000E+00 -0.00000000000E+00 -0.63188108337E+02  0.63362662785E+02  0.47000000000E+01 0. -1.
         25    2    1    2    0    0  0.83929743059E+02  0.10431826416E+02  0.25173427184E+03  0.29350738582E+03  0.12499366840E+03 0.  0.
         25    2    1    2    0    0 -0.83929743059E+02 -0.10431826416E+02  0.91895090465E+02  0.17669989647E+03  0.12500048395E+03 0.  0.
          5    1    3    3  502    0  0.38535994590E+02  0.44841356632E+02  0.33934371655E+02  0.68333020739E+02  0.47000000000E+01 0.  1.
         -5    1    3    3    0  502  0.45393748469E+02 -0.34409530216E+02  0.21779990018E+03  0.22517436508E+03  0.47000000000E+01 0.  1.
          5    1    4    4  503    0 -0.10995023699E+03 -0.31478723158E+02  0.56103188177E+02  0.12747400657E+03  0.47000000000E+01 0. -1.
         -5    1    4    4    0  503  0.26020493936E+02  0.21046896742E+02  0.35791902288E+02  0.49225889901E+02  0.47000000000E+01 0. -1.
<mgrwt>
<rscale>  0 0.15092289E+03</rscale>
<asrwt>0</asrwt>
<pdfrwt beam="2">  1        5 0.97367627E-02 0.15092430E+03</pdfrwt>
<pdfrwt beam="1">  1       -5 0.62602821E-01 0.15092430E+03</pdfrwt>
<totfact> 0.14702505E+02</totfact>
</mgrwt>
</event>
<event>
 8    1  0.3488953E-007  0.1256081E+03  0.7546771E-02  0.1234123E+00
         -5   -1    0    0    0  501 -0.00000000000E+00  0.00000000000E+00  0.52729310121E+03  0.52731404740E+03  0.47000000000E+01 0.  1.
          5   -1    0    0  501    0  0.00000000000E+00 -0.00000000000E+00 -0.30139490979E+02  0.30503752498E+02  0.47000000000E+01 0.  1.
         25    2    1    2    0    0  0.50022833346E+01  0.11282693008E+02  0.28146996556E+03  0.30822445418E+03  0.12499860256E+03 0.  0.
         25    2    1    2    0    0 -0.50022833346E+01 -0.11282693008E+02  0.21568364468E+03  0.24959334572E+03  0.12500032659E+03 0.  0.
          5    1    4    4  502    0 -0.12522068310E+02  0.41489772749E+02  0.18017050441E+03  0.18536910233E+03  0.47000000000E+01 0.  1.
         -5    1    4    4    0  502  0.75197849750E+01 -0.52772465758E+02  0.35513140264E+02  0.64224243395E+02  0.47000000000E+01 0.  1.
          5    1    3    3  503    0 -0.13214114089E+01  0.66759719567E+02  0.12141552445E+03  0.13864496335E+03  0.47000000000E+01 0. -1.
         -5    1    3    3    0  503  0.63236947435E+01 -0.55477026558E+02  0.16005444111E+03  0.16957949083E+03  0.47000000000E+01 0. -1.
<mgrwt>
<rscale>  0 0.12560771E+03</rscale>
<asrwt>0</asrwt>
<pdfrwt beam="2">  1        5 0.46664762E-02 0.12560814E+03</pdfrwt>
<pdfrwt beam="1">  1       -5 0.81151646E-01 0.12560814E+03</pdfrwt>
<totfact> 0.26733370E+02</totfact>
</mgrwt>
</event>
<event>
 8    1  0.3488953E-007  0.1717124E+03  0.7546771E-02  0.1176074E+00
         -5   -1    0    0    0  501 -0.00000000000E+00  0.00000000000E+00  0.13846495529E+04  0.13846575296E+04  0.47000000000E+01 0.  1.
          5   -1    0    0  501    0  0.00000000000E+00 -0.00000000000E+00 -0.23310070910E+02  0.23779180092E+02  0.47000000000E+01 0.  1.
         25    2    1    2    0    0  0.36149154475E+02  0.11203877053E+03  0.89874433129E+03  0.91500083441E+03  0.12500282591E+03 0.  0.
         25    2    1    2    0    0 -0.36149154475E+02 -0.11203877053E+03  0.46259515067E+03  0.49343587527E+03  0.12500096844E+03 0.  0.
          5    1    3    3  502    0  0.53544287675E+02  0.10151810134E+03  0.40934295229E+03  0.42515486382E+03  0.47000000000E+01 0.  1.
         -5    1    3    3    0  502 -0.17395133200E+02  0.10520669189E+02  0.48940137900E+03  0.48984597059E+03  0.47000000000E+01 0.  1.
          5    1    4    4  503    0 -0.24138414047E+02 -0.13104365551E+03  0.44487847658E+03  0.46442873685E+03  0.47000000000E+01 0. -1.
         -5    1    4    4    0  503 -0.12010740427E+02  0.19004884984E+02  0.17716674091E+02  0.29007138427E+02  0.47000000000E+01 0. -1.
<mgrwt>
<rscale>  0 0.17171208E+03</rscale>
<asrwt>0</asrwt>
<pdfrwt beam="2">  1        5 0.36228633E-02 0.17171242E+03</pdfrwt>
<pdfrwt beam="1">  1       -5 0.21305973E+00 0.17171242E+03</pdfrwt>
<totfact> 0.33844188E+01</totfact>
</mgrwt>
</event>
<event>
 8    1  0.3488953E-007  0.1492022E+03  0.7546771E-02  0.1201459E+00
         -5   -1    0    0    0  501 -0.00000000000E+00  0.00000000000E+00  0.31962337078E+03  0.31965792521E+03  0.47000000000E+01 0. -1.
          5   -1    0    0  501    0  0.00000000000E+00 -0.00000000000E+00 -0.79909605926E+02  0.80047705272E+02  0.47000000000E+01 0. -1.
         25    2    1    2    0    0  0.56591590923E+02 -0.58592966661E+02  0.19180936713E+03  0.24300167516E+03  0.12499294742E+03 0.  0.
         25    2    1    2    0    0 -0.56591590923E+02  0.58592966661E+02  0.47904397722E+02  0.15670395532E+03  0.12500221753E+03 0.  0.
          5    1    4    4  502    0  0.35757875024E+02 -0.94894935678E+00  0.26236607834E+02  0.44609143925E+02  0.47000000000E+01 0. -1.
         -5    1    4    4    0  502 -0.92349465947E+02  0.59541916018E+02  0.21667789888E+02  0.11209481140E+03  0.47000000000E+01 0. -1.
          5    1    3    3  503    0  0.13872627576E+01 -0.82081251621E+01  0.16218570899E+03  0.16246720289E+03  0.47000000000E+01 0.  1.
         -5    1    3    3    0  503  0.55204328166E+02 -0.50384841499E+02  0.29623658147E+02  0.80534472266E+02  0.47000000000E+01 0.  1.
<mgrwt>
<rscale>  0 0.14920026E+03</rscale>
<asrwt>0</asrwt>
<pdfrwt beam="2">  1        5 0.12307066E-01 0.14920221E+03</pdfrwt>
<pdfrwt beam="1">  1       -5 0.49186108E-01 0.14920221E+03</pdfrwt>
<totfact> 0.16333130E+02</totfact>
</mgrwt>
</event>
<event>
 8    1  0.3488953E-007  0.1479353E+03  0.7546771E-02  0.1203039E+00
          5   -1    0    0  501    0  0.00000000000E+00  0.00000000000E+00  0.34785483535E+03  0.34788658565E+03  0.47000000000E+01 0. -1.
         -5   -1    0    0    0  501 -0.00000000000E+00 -0.00000000000E+00 -0.64797301787E+02  0.64967532806E+02  0.47000000000E+01 0. -1.
         25    2    1    2    0    0  0.13196666838E+02  0.78013748469E+02  0.10520003404E+03  0.18152655889E+03  0.12499818980E+03 0.  0.
         25    2    1    2    0    0 -0.13196666838E+02 -0.78013748469E+02  0.17785749952E+03  0.23132755957E+03  0.12497540844E+03 0.  0.
          5    1    4    4  502    0 -0.23062482857E+02 -0.10630235232E+01 -0.11808655672E+02  0.26354173926E+02  0.47000000000E+01 0.  1.
         -5    1    4    4    0  502  0.98658160195E+01 -0.76950724946E+02  0.18966615520E+03  0.20497338564E+03  0.47000000000E+01 0.  1.
          5    1    3    3  503    0 -0.50648685203E+02  0.57318497926E+01  0.40883278872E+02  0.65510883876E+02  0.47000000000E+01 0.  1.
         -5    1    3    3    0  503  0.63845352041E+02  0.72281898676E+02  0.64316755167E+02  0.11601567501E+03  0.47000000000E+01 0.  1.
<mgrwt>
<rscale>  0 0.14793046E+03</rscale>
<asrwt>0</asrwt>
<pdfrwt beam="1">  1        5 0.53531665E-01 0.14793527E+03</pdfrwt>
<pdfrwt beam="2">  1       -5 0.99843527E-02 0.14793527E+03</pdfrwt>
<totfact> 0.19660183E+02</totfact>
</mgrwt>
</event>
<event>
 8    1  0.3488953E-007  0.1405722E+03  0.7546771E-02  0.1212563E+00
          5   -1    0    0  501    0  0.00000000000E+00  0.00000000000E+00  0.43440114473E+02  0.43693632779E+02  0.47000000000E+01 0. -1.
         -5   -1    0    0    0  501 -0.00000000000E+00 -0.00000000000E+00 -0.45824754524E+03  0.45827164730E+03  0.47000000000E+01 0. -1.
         25    2    1    2    0    0 -0.58140038030E+02  0.27450203021E+02 -0.18128612720E+03  0.22939834838E+03  0.12500065863E+03 0.  0.
         25    2    1    2    0    0  0.58140038030E+02 -0.27450203021E+02 -0.23352130357E+03  0.27256693170E+03  0.12500702127E+03 0.  0.
          5    1    4    4  502    0  0.13731594709E+02  0.26112453228E+02 -0.18551309713E+03  0.18790320943E+03  0.47000000000E+01 0. -1.
         -5    1    4    4    0  502  0.44408443321E+02 -0.53562656249E+02 -0.48008206433E+02  0.84663722264E+02  0.47000000000E+01 0. -1.
          5    1    3    3  503    0  0.12811639341E+02  0.40231858462E+02 -0.10210590422E+02  0.43693096648E+02  0.47000000000E+01 0. -1.
         -5    1    3    3    0  503 -0.70951677372E+02 -0.12781655442E+02 -0.17107553678E+03  0.18570525173E+03  0.47000000000E+01 0. -1.
<mgrwt>
<rscale>  0 0.14057075E+03</rscale>
<asrwt>0</asrwt>
<pdfrwt beam="1">  1        5 0.67044503E-02 0.14057216E+03</pdfrwt>
<pdfrwt beam="2">  1       -5 0.70520974E-01 0.14057216E+03</pdfrwt>
<totfact> 0.20903621E+02</totfact>
</mgrwt>
</event>
<event>
 8    1  0.3488953E-007  0.1537716E+03  0.7546771E-02  0.1195924E+00
          5   -1    0    0  501    0  0.00000000000E+00  0.00000000000E+00  0.58532381747E+03  0.58534268706E+03  0.47000000000E+01 0. -1.
         -5   -1    0    0    0  501 -0.00000000000E+00 -0.00000000000E+00 -0.42360371746E+02  0.42620313167E+02  0.47000000000E+01 0. -1.
         25    2    1    2    0    0  0.87172581695E+02 -0.20420094029E+02  0.20137117908E+03  0.25336941197E+03  0.12501867028E+03 0.  0.
         25    2    1    2    0    0 -0.87172581695E+02  0.20420094029E+02  0.34159226665E+03  0.37459358826E+03  0.12497615971E+03 0.  0.
          5    1    4    4  502    0 -0.50147253429E+02  0.39903248488E+02  0.53997671309E+02  0.83933633146E+02  0.47000000000E+01 0. -1.
         -5    1    4    4    0  502 -0.37025328266E+02 -0.19483154458E+02  0.28759459534E+03  0.29065995512E+03  0.47000000000E+01 0. -1.
          5    1    3    3  503    0  0.92831842112E+02 -0.59734681981E+02  0.16900283318E+03  0.20191590023E+03  0.47000000000E+01 0.  1.
         -5    1    3    3    0  503 -0.56592604172E+01  0.39314587952E+02  0.32368345897E+02  0.51453511741E+02  0.47000000000E+01 0.  1.
<mgrwt>
<rscale>  0 0.15376297E+03</rscale>
<asrwt>0</asrwt>
<pdfrwt beam="1">  1        5 0.90071261E-01 0.15377161E+03</pdfrwt>
<pdfrwt beam="2">  1       -5 0.65384275E-02 0.15377161E+03</pdfrwt>
<totfact> 0.12740987E+02</totfact>
</mgrwt>
</event>
<event>
 8    1  0.3488953E-007  0.1308758E+03  0.7546771E-02  0.1226164E+00
          5   -1    0    0  501    0  0.00000000000E+00  0.00000000000E+00  0.89237980564E+03  0.89239218257E+03  0.47000000000E+01 0.  1.
         -5   -1    0    0    0  501 -0.00000000000E+00 -0.00000000000E+00 -0.28523159281E+02  0.28907795063E+02  0.47000000000E+01 0.  1.
         25    2    1    2    0    0  0.10815618693E+02 -0.37216278051E+02  0.16655182336E+03  0.21182062460E+03  0.12500575260E+03 0.  0.
         25    2    1    2    0    0 -0.10815618693E+02  0.37216278051E+02  0.69730482300E+03  0.70947935303E+03  0.12499962896E+03 0.  0.
          5    1    4    4  502    0  0.49188821507E+02  0.28120838136E+02  0.18415156584E+03  0.19272833446E+03  0.47000000000E+01 0.  1.
         -5    1    4    4    0  502 -0.60004440200E+02  0.90954399143E+01  0.51315325716E+03  0.51675101858E+03  0.47000000000E+01 0.  1.
          5    1    3    3  503    0 -0.55882031965E+02 -0.28896694114E+02  0.88931682019E+02  0.10903556527E+03  0.47000000000E+01 0.  1.
         -5    1    3    3    0  503  0.66697650657E+02 -0.83195839369E+01  0.77620141337E+02  0.10278505933E+03  0.47000000000E+01 0.  1.
<mgrwt>
<rscale>  0 0.13087431E+03</rscale>
<asrwt>0</asrwt>
<pdfrwt beam="1">  1        5 0.13731972E+00 0.13087577E+03</pdfrwt>
<pdfrwt beam="2">  1       -5 0.44187185E-02 0.13087577E+03</pdfrwt>
<totfact> 0.81119203E+01</totfact>
</mgrwt>
</event>
<event>
 8    1  0.3488953E-007  0.1432199E+03  0.7546771E-02  0.1209061E+00
          5   -1    0    0  501    0  0.00000000000E+00  0.00000000000E+00  0.75905033820E+02  0.76050405385E+02  0.47000000000E+01 0.  1.
         -5   -1    0    0    0  501 -0.00000000000E+00 -0.00000000000E+00 -0.30544120301E+03  0.30547736168E+03  0.47000000000E+01 0.  1.
         25    2    1    2    0    0  0.50380885173E+02 -0.48470765256E+02 -0.17990592228E+03  0.22995233456E+03  0.12499714645E+03 0.  0.
         25    2    1    2    0    0 -0.50380885173E+02  0.48470765256E+02 -0.49630246915E+02  0.15157543251E+03  0.12499720659E+03 0.  0.
          5    1    4    4  502    0 -0.42705770132E+02  0.89259495988E+01  0.36044208204E+02  0.56786709043E+02  0.47000000000E+01 0. -1.
         -5    1    4    4    0  502 -0.76751150407E+01  0.39544815657E+02 -0.85674455119E+02  0.94788723465E+02  0.47000000000E+01 0. -1.
          5    1    3    3  503    0  0.34040938237E+02 -0.85628371154E+02 -0.80395403644E+02  0.12237856981E+03  0.47000000000E+01 0. -1.
         -5    1    3    3    0  503  0.16339946937E+02  0.37157605898E+02 -0.99510518636E+02  0.10757376474E+03  0.47000000000E+01 0. -1.
<mgrwt>
<rscale>  0 0.14321992E+03</rscale>
<asrwt>0</asrwt>
<pdfrwt beam="1">  1        5 0.11691662E-01 0.14321994E+03</pdfrwt>
<pdfrwt beam="2">  1       -5 0.47004918E-01 0.14321994E+03</pdfrwt>
<totfact> 0.19421867E+02</totfact>
</mgrwt>
</event>
<event>
 8    1  0.3488953E-007  0.2001663E+03  0.7546771E-02  0.1149600E+00
         -5   -1    0    0    0  501 -0.00000000000E+00  0.00000000000E+00  0.14605498441E+03  0.14613058705E+03  0.47000000000E+01 0.  1.
          5   -1    0    0  501    0  0.00000000000E+00 -0.00000000000E+00 -0.29441920729E+03  0.29445671944E+03  0.47000000000E+01 0.  1.
         25    2    1    2    0    0  0.15412328991E+03  0.26216520569E+02 -0.16388098908E+02  0.20082855856E+03  0.12498898232E+03 0.  0.
         25    2    1    2    0    0 -0.15412328991E+03 -0.26216520569E+02 -0.13197612397E+03  0.23975874793E+03  0.12500106186E+03 0.  0.
          5    1    4    4  502    0 -0.78050574435E+02 -0.72606116097E+02 -0.47185173502E+02  0.11667077982E+03  0.47000000000E+01 0.  1.
         -5    1    4    4    0  502 -0.76072715480E+02  0.46389595528E+02 -0.84790950467E+02  0.12308796812E+03  0.47000000000E+01 0.  1.
          5    1    3    3  503    0  0.12782512204E+03 -0.19228042127E+02 -0.49589979063E+02  0.13852882534E+03  0.47000000000E+01 0. -1.
         -5    1    3    3    0  503  0.26298167879E+02  0.45444562696E+02  0.33201880156E+02  0.62299733212E+02  0.47000000000E+01 0. -1.
<mgrwt>
<rscale>  0 0.20016444E+03</rscale>
<asrwt>0</asrwt>
<pdfrwt beam="2">  1        5 0.45303964E-01 0.20016633E+03</pdfrwt>
<pdfrwt beam="1">  1       -5 0.22478699E-01 0.20016633E+03</pdfrwt>
<totfact> 0.70012668E+01</totfact>
</mgrwt>
</event>
<event>
 8    1  0.3488953E-007  0.1300744E+03  0.7546771E-02  0.1227346E+00
         -5   -1    0    0    0  501 -0.00000000000E+00  0.00000000000E+00  0.45446465836E+02  0.45688852655E+02  0.47000000000E+01 0. -1.
          5   -1    0    0  501    0  0.00000000000E+00 -0.00000000000E+00 -0.41354356270E+03  0.41357027003E+03  0.47000000000E+01 0. -1.
         25    2    1    2    0    0  0.17672644661E+02 -0.31339102311E+02 -0.11045840478E+03  0.17064703737E+03  0.12499956190E+03 0.  0.
         25    2    1    2    0    0 -0.17672644661E+02  0.31339102311E+02 -0.25763869208E+03  0.28861208531E+03  0.12499911370E+03 0.  0.
          5    1    4    4  502    0  0.13329419696E+02  0.14579835781E+02  0.70887360670E+01  0.21507794397E+02  0.47000000000E+01 0.  1.
         -5    1    4    4    0  502 -0.31002064356E+02  0.16759266530E+02 -0.26472742815E+03  0.26710429091E+03  0.47000000000E+01 0.  1.
          5    1    3    3  503    0  0.41096666991E+02  0.49578495016E+00  0.11023310505E+02  0.42811040807E+02  0.47000000000E+01 0. -1.
         -5    1    3    3    0  503 -0.23424022331E+02 -0.31834887261E+02 -0.12148171529E+03  0.12783599657E+03  0.47000000000E+01 0. -1.
<mgrwt>
<rscale>  0 0.13007430E+03</rscale>
<asrwt>0</asrwt>
<pdfrwt beam="2">  1        5 0.63642783E-01 0.13007441E+03</pdfrwt>
<pdfrwt beam="1">  1       -5 0.70124638E-02 0.13007441E+03</pdfrwt>
<totfact> 0.23724825E+02</totfact>
</mgrwt>
</event>
<event>
 8    1  0.3488953E-007  0.1354463E+03  0.7546771E-02  0.1219592E+00
         -5   -1    0    0    0  501 -0.00000000000E+00  0.00000000000E+00  0.13930768161E+03  0.13938694400E+03  0.47000000000E+01 0. -1.
          5   -1    0    0  501    0  0.00000000000E+00 -0.00000000000E+00 -0.13241611168E+03  0.13249949673E+03  0.47000000000E+01 0. -1.
         25    2    1    2    0    0 -0.33602106120E+02 -0.39881743078E+02  0.14556401695E+02  0.13622626419E+03  0.12500420496E+03 0.  0.
         25    2    1    2    0    0  0.33602106120E+02  0.39881743078E+02 -0.76648317634E+01  0.13566017653E+03  0.12500111553E+03 0.  0.
          5    1    4    4  502    0  0.52959229711E+02  0.53841640146E+02  0.37432718538E+02  0.84420972763E+02  0.47000000000E+01 0. -1.
         -5    1    4    4    0  502 -0.19357123591E+02 -0.13959897067E+02 -0.45097550301E+02  0.51239203771E+02  0.47000000000E+01 0. -1.
          5    1    3    3  503    0  0.21412640654E+02  0.12760078476E+01 -0.41814447311E+02  0.47229941560E+02  0.47000000000E+01 0. -1.
         -5    1    3    3    0  503 -0.55014746774E+02 -0.41157750926E+02  0.56370849006E+02  0.88996322629E+02  0.47000000000E+01 0. -1.
<mgrwt>
<rscale>  0 0.13544561E+03</rscale>
<asrwt>0</asrwt>
<pdfrwt beam="2">  1        5 0.20384221E-01 0.13544632E+03</pdfrwt>
<pdfrwt beam="1">  1       -5 0.21444462E-01 0.13544632E+03</pdfrwt>
<totfact> 0.32877051E+02</totfact>
</mgrwt>
</event>
<event>
 8    1  0.3488953E-007  0.1453779E+03  0.7546771E-02  0.1206271E+00
         -5   -1    0    0    0  501 -0.00000000000E+00  0.00000000000E+00  0.64894181925E+03  0.64895883904E+03  0.47000000000E+01 0. -1.
          5   -1    0    0  501    0  0.00000000000E+00 -0.00000000000E+00 -0.32527162399E+02  0.32864970618E+02  0.47000000000E+01 0. -1.
         25    2    1    2    0    0 -0.17647320408E+02  0.72094602949E+02  0.33098076051E+03  0.36150102298E+03  0.12500266435E+03 0.  0.
         25    2    1    2    0    0  0.17647320408E+02 -0.72094602949E+02  0.28543389634E+03  0.32032278668E+03  0.12500047518E+03 0.  0.
          5    1    3    3  502    0  0.25105039392E+02  0.86321187691E+02  0.27572707156E+03  0.29005019986E+03  0.47000000000E+01 0.  1.
         -5    1    3    3    0  502 -0.42752359800E+02 -0.14226584742E+02  0.55253688952E+02  0.71450823121E+02  0.47000000000E+01 0.  1.
          5    1    4    4  503    0  0.44675477930E+02  0.23525396244E+01  0.33210625990E+02  0.55914832108E+02  0.47000000000E+01 0.  1.
         -5    1    4    4    0  503 -0.27028157522E+02 -0.74447142574E+02  0.25222327035E+03  0.26440795457E+03  0.47000000000E+01 0.  1.
<mgrwt>
<rscale>  0 0.14537740E+03</rscale>
<asrwt>0</asrwt>
<pdfrwt beam="2">  1        5 0.50314736E-02 0.14537787E+03</pdfrwt>
<pdfrwt beam="1">  1       -5 0.99864491E-01 0.14537787E+03</pdfrwt>
<totfact> 0.15155671E+02</totfact>
</mgrwt>
</event>
<event>
 8    1  0.3488953E-007  0.1496951E+03  0.7546771E-02  0.1200849E+00
         -5   -1    0    0    0  501 -0.00000000000E+00  0.00000000000E+00  0.26974145323E+03  0.26978239674E+03  0.47000000000E+01 0.  1.
          5   -1    0    0  501    0  0.00000000000E+00 -0.00000000000E+00 -0.85752219902E+02  0.85880924647E+02  0.47000000000E+01 0.  1.
         25    2    1    2    0    0 -0.28770179736E+02 -0.77171608523E+02  0.12405508007E+03  0.19441587834E+03  0.12499876182E+03 0.  0.
         25    2    1    2    0    0  0.28770179736E+02  0.77171608523E+02  0.59934153253E+02  0.16124744304E+03  0.12500181901E+03 0.  0.
          5    1    4    4  502    0  0.24036661230E+02  0.92897605502E+02  0.86756826804E+02  0.12944714438E+03  0.47000000000E+01 0.  1.
         -5    1    4    4    0  502  0.47335185059E+01 -0.15725996979E+02 -0.26822673551E+02  0.31800298660E+02  0.47000000000E+01 0.  1.
          5    1    3    3  503    0 -0.69964805530E+02 -0.68474142789E+02  0.52306968180E+02  0.11109406448E+03  0.47000000000E+01 0.  1.
         -5    1    3    3    0  503  0.41194625794E+02 -0.86974657339E+01  0.71748111891E+02  0.83321813857E+02  0.47000000000E+01 0.  1.
<mgrwt>
<rscale>  0 0.14969450E+03</rscale>
<asrwt>0</asrwt>
<pdfrwt beam="2">  1        5 0.13205699E-01 0.14969514E+03</pdfrwt>
<pdfrwt beam="1">  1       -5 0.41511734E-01 0.14969514E+03</pdfrwt>
<totfact> 0.20547087E+02</totfact>
</mgrwt>
</event>
<event>
 8    1  0.3488953E-007  0.1388418E+03  0.7546771E-02  0.1214897E+00
          5   -1    0    0  501    0  0.00000000000E+00  0.00000000000E+00  0.11144152972E+04  0.11144252082E+04  0.47000000000E+01 0. -1.
         -5   -1    0    0    0  501 -0.00000000000E+00 -0.00000000000E+00 -0.19843172672E+02  0.20392192175E+02  0.47000000000E+01 0. -1.
         25    2    1    2    0    0  0.51211817963E+02  0.32082080204E+02  0.33452338440E+03  0.36219186955E+03  0.12500058194E+03 0.  0.
         25    2    1    2    0    0 -0.51211817963E+02 -0.32082080204E+02  0.76004874010E+03  0.77262553078E+03  0.12499685324E+03 0.  0.
          5    1    4    4  502    0  0.15185160667E+02 -0.39996824264E+02  0.55986630395E+03  0.56151821284E+03  0.47000000000E+01 0.  1.
         -5    1    4    4    0  502 -0.66396978631E+02  0.79147440608E+01  0.20018243615E+03  0.21110731794E+03  0.47000000000E+01 0.  1.
          5    1    3    3  503    0  0.52486337395E+02 -0.25557255732E+02  0.26668397795E+03  0.27303923350E+03  0.47000000000E+01 0. -1.
         -5    1    3    3    0  503 -0.12745194319E+01  0.57639335936E+02  0.67839406448E+02  0.89152636047E+02  0.47000000000E+01 0. -1.
<mgrwt>
<rscale>  0 0.13884100E+03</rscale>
<asrwt>0</asrwt>
<pdfrwt beam="1">  1        5 0.17149146E+00 0.13884184E+03</pdfrwt>
<pdfrwt beam="2">  1       -5 0.30957912E-02 0.13884184E+03</pdfrwt>
<totfact> 0.80033520E+01</totfact>
</mgrwt>
</event>
<event>
 8    1  0.3488953E-007  0.1425991E+03  0.7546771E-02  0.1209877E+00
          5   -1    0    0  501    0  0.00000000000E+00  0.00000000000E+00  0.10436856482E+03  0.10447433811E+03  0.47000000000E+01 0. -1.
         -5   -1    0    0    0  501 -0.00000000000E+00 -0.00000000000E+00 -0.21681482180E+03  0.21686575790E+03  0.47000000000E+01 0. -1.
         25    2    1    2    0    0  0.13053251943E+02 -0.67359887400E+02 -0.10764851493E+03  0.17866928937E+03  0.12500708132E+03 0.  0.
         25    2    1    2    0    0 -0.13053251943E+02  0.67359887400E+02 -0.47977420403E+01  0.14267080664E+03  0.12499679565E+03 0.  0.
          5    1    3    3  502    0  0.49290547645E+02  0.16814002371E+01 -0.83172145795E+02  0.96809508986E+02  0.47000000000E+01 0. -1.
         -5    1    3    3    0  502 -0.36237295702E+02 -0.69041287637E+02 -0.24476369139E+02  0.81859780385E+02  0.47000000000E+01 0. -1.
          5    1    4    4  503    0 -0.63650102261E+02  0.64016915904E+02  0.60668901149E+01  0.90600210791E+02  0.47000000000E+01 0.  1.
         -5    1    4    4    0  503  0.50596850318E+02  0.33429714964E+01 -0.10864632155E+02  0.52070595852E+02  0.47000000000E+01 0.  1.
<mgrwt>
<rscale>  0 0.14259688E+03</rscale>
<asrwt>0</asrwt>
<pdfrwt beam="1">  1        5 0.16068757E-01 0.14259913E+03</pdfrwt>
<pdfrwt beam="2">  1       -5 0.33368181E-01 0.14259913E+03</pdfrwt>
<totfact> 0.22071011E+02</totfact>
</mgrwt>
</event>
<event>
 8    1  0.3488953E-007  0.1342293E+03  0.7546771E-02  0.1221321E+00
          5   -1    0    0  501    0  0.00000000000E+00  0.00000000000E+00  0.21199854083E+03  0.21205063385E+03  0.47000000000E+01 0.  1.
         -5   -1    0    0    0  501 -0.00000000000E+00 -0.00000000000E+00 -0.90044423706E+02  0.90167001950E+02  0.47000000000E+01 0.  1.
         25    2    1    2    0    0  0.46633440125E+02 -0.14418481831E+02  0.24695574735E+02  0.13645659586E+03  0.12501184259E+03 0.  0.
         25    2    1    2    0    0 -0.46633440125E+02  0.14418481831E+02  0.97258542391E+02  0.16576103993E+03  0.12503970544E+03 0.  0.
          5    1    3    3  502    0  0.36808605722E+02  0.29156531604E+02  0.62106405712E+02  0.78001746268E+02  0.47000000000E+01 0. -1.
         -5    1    3    3    0  502  0.98248344025E+01 -0.43575013434E+02 -0.37410830978E+02  0.58454849596E+02  0.47000000000E+01 0. -1.
          5    1    4    4  503    0 -0.77881267038E+02  0.29312598859E+02  0.27539169275E+02  0.87779360055E+02  0.47000000000E+01 0.  1.
         -5    1    4    4    0  503  0.31247826914E+02 -0.14894117029E+02  0.69719373116E+02  0.77981679878E+02  0.47000000000E+01 0.  1.
<mgrwt>
<rscale>  0 0.13422279E+03</rscale>
<asrwt>0</asrwt>
<pdfrwt beam="1">  1        5 0.32628596E-01 0.13422928E+03</pdfrwt>
<pdfrwt beam="2">  1       -5 0.13866425E-01 0.13422928E+03</pdfrwt>
<totfact> 0.29520383E+02</totfact>
</mgrwt>
</event>
<event>
 8    1  0.3488953E-007  0.1284233E+03  0.7546771E-02  0.1229818E+00
         -5   -1    0    0    0  501 -0.00000000000E+00  0.00000000000E+00  0.26933887760E+03  0.26937988229E+03  0.47000000000E+01 0. -1.
          5   -1    0    0  501    0  0.00000000000E+00 -0.00000000000E+00 -0.61342751065E+02  0.61522541464E+02  0.47000000000E+01 0. -1.
         25    2    1    2    0    0 -0.23896915963E+02  0.17158174032E+02  0.93467396761E+02  0.15883544811E+03  0.12500831889E+03 0.  0.
         25    2    1    2    0    0  0.23896915963E+02 -0.17158174032E+02  0.11452872977E+03  0.17206697565E+03  0.12499899454E+03 0.  0.
          5    1    3    3  502    0  0.31876286656E+02  0.51609651178E+02  0.31534512911E+02  0.68528601694E+02  0.47000000000E+01 0. -1.
         -5    1    3    3    0  502 -0.55773202619E+02 -0.34451477145E+02  0.61932883850E+02  0.90306846417E+02  0.47000000000E+01 0. -1.
          5    1    4    4  503    0 -0.17094516733E+02  0.47789929825E+02  0.53125430532E+02  0.73624053571E+02  0.47000000000E+01 0.  1.
         -5    1    4    4    0  503  0.40991432696E+02 -0.64948103858E+02  0.61403299238E+02  0.98442922074E+02  0.47000000000E+01 0.  1.
<mgrwt>
<rscale>  0 0.12842104E+03</rscale>
<asrwt>0</asrwt>
<pdfrwt beam="2">  1        5 0.94543307E-02 0.12842331E+03</pdfrwt>
<pdfrwt beam="1">  1       -5 0.41453734E-01 0.12842331E+03</pdfrwt>
<totfact> 0.35227021E+02</totfact>
</mgrwt>
</event>
<event>
 8    1  0.3488953E-007  0.1252502E+03  0.7546771E-02  0.1234681E+00
          5   -1    0    0  501    0  0.00000000000E+00  0.00000000000E+00  0.15786099016E+03  0.15793094128E+03  0.47000000000E+01 0. -1.
         -5   -1    0    0    0  501 -0.00000000000E+00 -0.00000000000E+00 -0.15262290592E+03  0.15269525668E+03  0.47000000000E+01 0. -1.
         25    2    1    2    0    0  0.72084742669E+01 -0.32407179657E+01 -0.89199541950E+02  0.15376296699E+03  0.12499610945E+03 0.  0.
         25    2    1    2    0    0 -0.72084742669E+01  0.32407179657E+01  0.94437626186E+02  0.15686323097E+03  0.12500057455E+03 0.  0.
          5    1    4    4  502    0 -0.13520056887E+02  0.11447992756E+02 -0.28236324740E+02  0.33663459584E+02  0.47000000000E+01 0. -1.
         -5    1    4    4    0  502  0.63115826206E+01 -0.82072747904E+01  0.12267395093E+03  0.12319977139E+03  0.47000000000E+01 0. -1.
          5    1    3    3  503    0  0.22794615655E+02 -0.11402733111E+02 -0.11738176305E+03  0.12020892281E+03  0.47000000000E+01 0. -1.
         -5    1    3    3    0  503 -0.15586141388E+02  0.81620151456E+01  0.28182221102E+02  0.33554044180E+02  0.47000000000E+01 0. -1.
<mgrwt>
<rscale>  0 0.12524907E+03</rscale>
<asrwt>0</asrwt>
<pdfrwt beam="1">  1        5 0.24297252E-01 0.12525018E+03</pdfrwt>
<pdfrwt beam="2">  1       -5 0.23491393E-01 0.12525018E+03</pdfrwt>
<totfact> 0.19320893E+02</totfact>
</mgrwt>
</event>
<event>
 8    1  0.3488953E-007  0.1492708E+03  0.7546771E-02  0.1201374E+00
         -5   -1    0    0    0  501 -0.00000000000E+00  0.00000000000E+00  0.31272190182E+02  0.31623407134E+02  0.47000000000E+01 0. -1.
          5   -1    0    0  501    0  0.00000000000E+00 -0.00000000000E+00 -0.71317691717E+03  0.71319240404E+03  0.47000000000E+01 0. -1.
         25    2    1    2    0    0 -0.41663314010E+02  0.70131345418E+02 -0.30966139995E+03  0.34376146664E+03  0.12501010353E+03 0.  0.
         25    2    1    2    0    0  0.41663314010E+02 -0.70131345418E+02 -0.37224332704E+03  0.40105434454E+03  0.12500102161E+03 0.  0.
          5    1    4    4  502    0  0.14161507249E+02  0.15351953710E+00  0.54343211115E+01  0.15880607726E+02  0.47000000000E+01 0.  1.
         -5    1    4    4    0  502  0.27501806761E+02 -0.70284864955E+02 -0.37767764815E+03  0.38517373681E+03  0.47000000000E+01 0.  1.
          5    1    3    3  503    0 -0.94697531946E+01  0.40177374095E+02 -0.12581991933E+02  0.43408456961E+02  0.47000000000E+01 0.  1.
         -5    1    3    3    0  503 -0.32193560815E+02  0.29953971323E+02 -0.29707940801E+03  0.30035300968E+03  0.47000000000E+01 0.  1.
<mgrwt>
<rscale>  0 0.14926887E+03</rscale>
<asrwt>0</asrwt>
<pdfrwt beam="2">  1        5 0.10974772E+00 0.14927077E+03</pdfrwt>
<pdfrwt beam="1">  1       -5 0.48393147E-02 0.14927077E+03</pdfrwt>
<totfact> 0.12917041E+02</totfact>
</mgrwt>
</event>
<event>
 8    1  0.3488953E-007  0.1282862E+03  0.7546771E-02  0.1230022E+00
          5   -1    0    0  501    0  0.00000000000E+00  0.00000000000E+00  0.64650141520E+02  0.64820759010E+02  0.47000000000E+01 0.  1.
         -5   -1    0    0    0  501 -0.00000000000E+00 -0.00000000000E+00 -0.27828518498E+03  0.27832487165E+03  0.47000000000E+01 0.  1.
         25    2    1    2    0    0 -0.25456628615E+02  0.13657869216E+02 -0.15745524932E+03  0.20309731604E+03  0.12498714698E+03 0.  0.
         25    2    1    2    0    0  0.25456628615E+02 -0.13657869216E+02 -0.56179794139E+02  0.14004831463E+03  0.12499113500E+03 0.  0.
          5    1    3    3  502    0  0.15688370285E+02  0.41140395421E+02 -0.14534596822E+03  0.15194142811E+03  0.47000000000E+01 0.  1.
         -5    1    3    3    0  502 -0.41144998900E+02 -0.27482526205E+02 -0.12109281107E+02  0.51155887931E+02  0.47000000000E+01 0.  1.
          5    1    4    4  503    0  0.50866435366E+02  0.39673785968E+02 -0.47288009315E+02  0.80122714413E+02  0.47000000000E+01 0.  1.
         -5    1    4    4    0  503 -0.25409806752E+02 -0.53331655183E+02 -0.88917848242E+01  0.59925600215E+02  0.47000000000E+01 0.  1.
<mgrwt>
<rscale>  0 0.12828528E+03</rscale>
<asrwt>0</asrwt>
<pdfrwt beam="1">  1        5 0.99623530E-02 0.12828625E+03</pdfrwt>
<pdfrwt beam="2">  1       -5 0.42829282E-01 0.12828625E+03</pdfrwt>
<totfact> 0.30060202E+02</totfact>
</mgrwt>
</event>
<event>
 8    1  0.3488953E-007  0.1597948E+03  0.7546771E-02  0.1188930E+00
          5   -1    0    0  501    0  0.00000000000E+00  0.00000000000E+00  0.22135618933E+03  0.22140608066E+03  0.47000000000E+01 0. -1.
         -5   -1    0    0    0  501 -0.00000000000E+00 -0.00000000000E+00 -0.13865708799E+03  0.13873672207E+03  0.47000000000E+01 0. -1.
         25    2    1    2    0    0  0.78281144388E+02 -0.61487600208E+02 -0.32614379961E+02  0.16308549843E+03  0.12499807787E+03 0.  0.
         25    2    1    2    0    0 -0.78281144388E+02  0.61487600208E+02  0.11531348130E+03  0.19705730430E+03  0.12500287862E+03 0.  0.
          5    1    3    3  502    0  0.21329082685E+02 -0.70618035730E+01  0.46178102683E+02  0.51568459404E+02  0.47000000000E+01 0. -1.
         -5    1    3    3    0  502  0.56952061703E+02 -0.54425796635E+02 -0.78792482643E+02  0.11151703902E+03  0.47000000000E+01 0. -1.
          5    1    4    4  503    0 -0.11099941648E+03  0.36135220483E+02  0.73447148094E+02  0.13799709483E+03  0.47000000000E+01 0.  1.
         -5    1    4    4    0  503  0.32718272095E+02  0.25352379725E+02  0.41866333206E+02  0.59060209470E+02  0.47000000000E+01 0.  1.
<mgrwt>
<rscale>  0 0.15979387E+03</rscale>
<asrwt>0</asrwt>
<pdfrwt beam="1">  1        5 0.34064761E-01 0.15979481E+03</pdfrwt>
<pdfrwt beam="2">  1       -5 0.21341823E-01 0.15979481E+03</pdfrwt>
<totfact> 0.12988446E+02</totfact>
</mgrwt>
</event>
<event>
 8    1  0.3488953E-007  0.1371024E+03  0.7546771E-02  0.1217284E+00
          5   -1    0    0  501    0  0.00000000000E+00  0.00000000000E+00  0.55614745336E+02  0.55812990412E+02  0.47000000000E+01 0.  1.
         -5   -1    0    0    0  501 -0.00000000000E+00 -0.00000000000E+00 -0.38888107528E+03  0.38890947625E+03  0.47000000000E+01 0.  1.
         25    2    1    2    0    0 -0.54019780074E+02 -0.15950061406E+02 -0.24770042435E+03  0.28311001372E+03  0.12499295399E+03 0.  0.
         25    2    1    2    0    0  0.54019780074E+02  0.15950061406E+02 -0.85565905598E+02  0.16161245294E+03  0.12499807857E+03 0.  0.
          5    1    4    4  502    0  0.16114893894E+01  0.64700226607E+02 -0.33902168281E+02  0.73213135674E+02  0.47000000000E+01 0. -1.
         -5    1    4    4    0  502  0.52408290685E+02 -0.48750165201E+02 -0.51663737317E+02  0.88399317267E+02  0.47000000000E+01 0. -1.
          5    1    3    3  503    0 -0.21811468552E+02 -0.27380157487E+01 -0.24695236376E+03  0.24797337933E+03  0.47000000000E+01 0. -1.
         -5    1    3    3    0  503 -0.32208311523E+02 -0.13212045657E+02 -0.74806059387E+00  0.35136634390E+02  0.47000000000E+01 0. -1.
<mgrwt>
<rscale>  0 0.13710121E+03</rscale>
<asrwt>0</asrwt>
<pdfrwt beam="1">  1        5 0.85735492E-02 0.13710237E+03</pdfrwt>
<pdfrwt beam="2">  1       -5 0.59845290E-01 0.13710237E+03</pdfrwt>
<totfact> 0.19612436E+02</totfact>
</mgrwt>
</event>
<event>
 8    1  0.3488953E-007  0.1341317E+03  0.7546771E-02  0.1221456E+00
          5   -1    0    0  501    0  0.00000000000E+00  0.00000000000E+00  0.19660659674E+02  0.20214636747E+02  0.47000000000E+01 0. -1.
         -5   -1    0    0    0  501 -0.00000000000E+00 -0.00000000000E+00 -0.90233840467E+03  0.90235064501E+03  0.47000000000E+01 0. -1.
         25    2    1    2    0    0 -0.33456361225E+02 -0.35290716047E+02 -0.45333569368E+03  0.47275876396E+03  0.12499133967E+03 0.  0.
         25    2    1    2    0    0  0.33456361225E+02  0.35290716047E+02 -0.42934205132E+03  0.44980651779E+03  0.12500617454E+03 0.  0.
          5    1    4    4  502    0  0.68831388893E+02 -0.11861999375E+02 -0.29201442308E+03  0.30028816230E+03  0.47000000000E+01 0. -1.
         -5    1    4    4    0  502 -0.35375027668E+02  0.47152715423E+02 -0.13732762824E+03  0.14951835550E+03  0.47000000000E+01 0. -1.
          5    1    3    3  503    0  0.47712880540E+02 -0.16036360626E+02 -0.17358682851E+03  0.18079867495E+03  0.47000000000E+01 0. -1.
         -5    1    3    3    0  503 -0.81169241765E+02 -0.19254355422E+02 -0.27974886517E+03  0.29196008901E+03  0.47000000000E+01 0. -1.
<mgrwt>
<rscale>  0 0.13412822E+03</rscale>
<asrwt>0</asrwt>
<pdfrwt beam="1">  1        5 0.30682728E-02 0.13413168E+03</pdfrwt>
<pdfrwt beam="2">  1       -5 0.13886482E+00 0.13413168E+03</pdfrwt>
<totfact> 0.14389675E+02</totfact>
</mgrwt>
</event>
<event>
 8    1  0.3488953E-007  0.1520737E+03  0.7546771E-02  0.1197951E+00
          5   -1    0    0  501    0  0.00000000000E+00  0.00000000000E+00  0.53364987883E+03  0.53367057552E+03  0.47000000000E+01 0.  1.
         -5   -1    0    0    0  501 -0.00000000000E+00 -0.00000000000E+00 -0.44417697439E+02  0.44665667416E+02  0.47000000000E+01 0.  1.
         25    2    1    2    0    0  0.84256275879E+02  0.20046733942E+02  0.19655677747E+03  0.24851007099E+03  0.12498678749E+03 0.  0.
         25    2    1    2    0    0 -0.84256275879E+02 -0.20046733942E+02  0.29267540392E+03  0.32982617195E+03  0.12500168028E+03 0.  0.
          5    1    3    3  502    0  0.23238709210E+02 -0.50703871205E+02  0.52477414708E+02  0.76726066075E+02  0.47000000000E+01 0. -1.
         -5    1    3    3    0  502  0.61017566669E+02  0.70750605147E+02  0.14407936276E+03  0.17178400491E+03  0.47000000000E+01 0. -1.
          5    1    4    4  503    0  0.27392321802E+02 -0.45930954067E+01  0.19461916993E+02  0.34238750447E+02  0.47000000000E+01 0.  1.
         -5    1    4    4    0  503 -0.11164859768E+03 -0.15453638536E+02  0.27321348693E+03  0.29558742150E+03  0.47000000000E+01 0.  1.
<mgrwt>
<rscale>  0 0.15207064E+03</rscale>
<asrwt>0</asrwt>
<pdfrwt beam="1">  1        5 0.82120648E-01 0.15207370E+03</pdfrwt>
<pdfrwt beam="2">  1       -5 0.68541586E-02 0.15207370E+03</pdfrwt>
<totfact> 0.14568411E+02</totfact>
</mgrwt>
</event>
<event>
 8    1  0.3488953E-007  0.1331995E+03  0.7546771E-02  0.1222790E+00
          5   -1    0    0  501    0  0.00000000000E+00  0.00000000000E+00  0.58212740164E+02  0.58402167061E+02  0.47000000000E+01 0.  1.
         -5   -1    0    0    0  501 -0.00000000000E+00 -0.00000000000E+00 -0.30909486876E+03  0.30913060006E+03  0.47000000000E+01 0.  1.
         25    2    1    2    0    0  0.20256673469E+01  0.45917551886E+02 -0.14892663001E+03  0.19979176522E+03  0.12500033370E+03 0.  0.
         25    2    1    2    0    0 -0.20256673469E+01 -0.45917551886E+02 -0.10195549858E+03  0.16774100190E+03  0.12501837916E+03 0.  0.
          5    1    3    3  502    0 -0.50371096881E+02 -0.10770412785E+02 -0.84785576445E+02  0.99317335675E+02  0.47000000000E+01 0. -1.
         -5    1    3    3    0  502  0.52396764227E+02  0.56687964671E+02 -0.64141053564E+02  0.10047442954E+03  0.47000000000E+01 0. -1.
          5    1    4    4  503    0  0.32221376714E+01 -0.85396570508E+02 -0.93499626215E+02  0.12675656404E+03  0.47000000000E+01 0.  1.
         -5    1    4    4    0  503 -0.52478050182E+01  0.39479018621E+02 -0.84558723693E+01  0.40984437855E+02  0.47000000000E+01 0.  1.
<mgrwt>
<rscale>  0 0.13319532E+03</rscale>
<asrwt>0</asrwt>
<pdfrwt beam="1">  1        5 0.89731262E-02 0.13319955E+03</pdfrwt>
<pdfrwt beam="2">  1       -5 0.47570376E-01 0.13319955E+03</pdfrwt>
<totfact> 0.29360579E+02</totfact>
</mgrwt>
</event>
<event>
 8    1  0.3488953E-007  0.1497440E+03  0.7546771E-02  0.1200808E+00
         -5   -1    0    0    0  501 -0.00000000000E+00  0.00000000000E+00  0.19042178934E+03  0.19047978332E+03  0.47000000000E+01 0. -1.
          5   -1    0    0  501    0  0.00000000000E+00 -0.00000000000E+00 -0.11804460589E+03  0.11813813516E+03  0.47000000000E+01 0. -1.
         25    2    1    2    0    0 -0.72285144362E+02  0.39641992679E+02  0.45836648586E+02  0.15654004826E+03  0.12492861432E+03 0.  0.
         25    2    1    2    0    0  0.72285144362E+02 -0.39641992679E+02  0.26540534861E+02  0.15207787023E+03  0.12500659560E+03 0.  0.
          5    1    3    3  502    0 -0.96980900685E+02  0.60851777892E+02  0.24039956999E+02  0.11708220831E+03  0.47000000000E+01 0.  1.
         -5    1    3    3    0  502  0.24695756323E+02 -0.21209785213E+02  0.21796691587E+02  0.39457839946E+02  0.47000000000E+01 0.  1.
          5    1    4    4  503    0  0.52540350983E+02 -0.83334579719E+02  0.31772035614E+02  0.10361801439E+03  0.47000000000E+01 0. -1.
         -5    1    4    4    0  503  0.19744793379E+02  0.43692587040E+02 -0.52315007535E+01  0.48459855839E+02  0.47000000000E+01 0. -1.
<mgrwt>
<rscale>  0 0.14972777E+03</rscale>
<asrwt>0</asrwt>
<pdfrwt beam="2">  1        5 0.18172364E-01 0.14974404E+03</pdfrwt>
<pdfrwt beam="1">  1       -5 0.29307315E-01 0.14974404E+03</pdfrwt>
<totfact> 0.23127841E+02</totfact>
</mgrwt>
</event>
<event>
 8    1  0.3488953E-007  0.1346609E+03  0.7546771E-02  0.1220700E+00
          5   -1    0    0  501    0  0.00000000000E+00  0.00000000000E+00  0.53001110024E+02  0.53209093807E+02  0.47000000000E+01 0. -1.
         -5   -1    0    0    0  501 -0.00000000000E+00 -0.00000000000E+00 -0.36004420264E+03  0.36007487812E+03  0.47000000000E+01 0. -1.
         25    2    1    2    0    0 -0.24815679749E+02  0.43510115770E+02 -0.20073250056E+03  0.24171621442E+03  0.12499697355E+03 0.  0.
         25    2    1    2    0    0  0.24815679749E+02 -0.43510115770E+02 -0.10631059206E+03  0.17156775751E+03  0.12499842118E+03 0.  0.
          5    1    4    4  502    0  0.60611982513E+02  0.10630254245E+01 -0.95475624340E+02  0.11319287650E+03  0.47000000000E+01 0.  1.
         -5    1    4    4    0  502 -0.35796302764E+02 -0.44573141194E+02 -0.10834967715E+02  0.58374881009E+02  0.47000000000E+01 0.  1.
          5    1    3    3  503    0 -0.67051309704E+02  0.55203724930E+02 -0.10516013364E+03  0.13647004465E+03  0.47000000000E+01 0. -1.
         -5    1    3    3    0  503  0.42235629955E+02 -0.11693609161E+02 -0.95572366922E+02  0.10524616977E+03  0.47000000000E+01 0. -1.
<mgrwt>
<rscale>  0 0.13466055E+03</rscale>
<asrwt>0</asrwt>
<pdfrwt beam="1">  1        5 0.81723756E-02 0.13466088E+03</pdfrwt>
<pdfrwt beam="2">  1       -5 0.55409773E-01 0.13466088E+03</pdfrwt>
<totfact> 0.25022437E+02</totfact>
</mgrwt>
</event>
<event>
 8    1  0.3488953E-007  0.1584270E+03  0.7546771E-02  0.1190485E+00
          5   -1    0    0  501    0  0.00000000000E+00  0.00000000000E+00  0.27069969239E+03  0.27074049099E+03  0.47000000000E+01 0.  1.
         -5   -1    0    0    0  501 -0.00000000000E+00 -0.00000000000E+00 -0.92831223444E+02  0.92950126660E+02  0.47000000000E+01 0.  1.
         25    2    1    2    0    0  0.63614571363E+02 -0.73669485479E+02  0.80090574212E+02  0.17751963192E+03  0.12499885143E+03 0.  0.
         25    2    1    2    0    0 -0.63614571363E+02  0.73669485479E+02  0.97777894737E+02  0.18617098573E+03  0.12500044979E+03 0.  0.
          5    1    4    4  502    0  0.23446237108E+02  0.53712279850E+02  0.78153719415E+01  0.59311930333E+02  0.47000000000E+01 0. -1.
         -5    1    4    4    0  502 -0.87060808471E+02  0.19957205629E+02  0.89962522796E+02  0.12685905540E+03  0.47000000000E+01 0. -1.
          5    1    3    3  503    0 -0.11854224458E+01  0.81888178101E+01 -0.26552212558E+02  0.28205885116E+02  0.47000000000E+01 0.  1.
         -5    1    3    3    0  503  0.64799993809E+02 -0.81858303290E+02  0.10664278677E+03  0.14931374681E+03  0.47000000000E+01 0.  1.
<mgrwt>
<rscale>  0 0.15842670E+03</rscale>
<asrwt>0</asrwt>
<pdfrwt beam="1">  1        5 0.41658392E-01 0.15842702E+03</pdfrwt>
<pdfrwt beam="2">  1       -5 0.14294011E-01 0.15842702E+03</pdfrwt>
<totfact> 0.18021047E+02</totfact>
</mgrwt>
</event>
<event>
 8    1  0.3488953E-007  0.1651612E+03  0.7546771E-02  0.1183002E+00
         -5   -1    0    0    0  501 -0.00000000000E+00  0.00000000000E+00  0.21266866330E+03  0.21272059221E+03  0.47000000000E+01 0. -1.
          5   -1    0    0  501    0  0.00000000000E+00 -0.00000000000E+00 -0.13327648421E+03  0.13335933130E+03  0.47000000000E+01 0. -1.
         25    2    1    2    0    0  0.10758928507E+03  0.87634369289E+01  0.73705992332E+02  0.18082083080E+03  0.12494537790E+03 0.  0.
         25    2    1    2    0    0 -0.10758928507E+03 -0.87634369289E+01  0.56861867570E+01  0.16525909270E+03  0.12500393159E+03 0.  0.
          5    1    3    3  502    0 -0.19674189277E+02  0.10533299705E+02  0.44722992146E+02  0.50202192710E+02  0.47000000000E+01 0.  1.
         -5    1    3    3    0  502  0.12726347435E+03 -0.17698627758E+01  0.28983000185E+02  0.13061863809E+03  0.47000000000E+01 0.  1.
          5    1    4    4  503    0 -0.11477458217E+03  0.27145939224E+02  0.29061905090E+02  0.12155982500E+03  0.47000000000E+01 0.  1.
         -5    1    4    4    0  503  0.71852970934E+01 -0.35909376152E+02 -0.23375718333E+02  0.43699267700E+02  0.47000000000E+01 0.  1.
<mgrwt>
<rscale>  0 0.16515016E+03</rscale>
<asrwt>0</asrwt>
<pdfrwt beam="2">  1        5 0.20514442E-01 0.16516124E+03</pdfrwt>
<pdfrwt beam="1">  1       -5 0.32728623E-01 0.16516124E+03</pdfrwt>
<totfact> 0.15308146E+02</totfact>
</mgrwt>
</event>
<event>
 8    1  0.3488953E-007  0.1264042E+03  0.7546771E-02  0.1232897E+00
         -5   -1    0    0    0  501 -0.00000000000E+00  0.00000000000E+00  0.50566814550E+02  0.50784768718E+02  0.47000000000E+01 0. -1.
          5   -1    0    0  501    0  0.00000000000E+00 -0.00000000000E+00 -0.31549427992E+03  0.31552928653E+03  0.47000000000E+01 0. -1.
         25    2    1    2    0    0 -0.17082228365E+02  0.75762935394E+01 -0.12541537860E+03  0.17806469123E+03  0.12501525636E+03 0.  0.
         25    2    1    2    0    0  0.17082228365E+02 -0.75762935394E+01 -0.13951208677E+03  0.18824936402E+03  0.12499999180E+03 0.  0.
          5    1    4    4  502    0 -0.33546771638E+02 -0.44910588145E+02 -0.97159219605E+02  0.11226909980E+03  0.47000000000E+01 0.  1.
         -5    1    4    4    0  502  0.50629000003E+02  0.37334294606E+02 -0.42352867164E+02  0.75980264227E+02  0.47000000000E+01 0.  1.
          5    1    3    3  503    0 -0.63296802320E+02  0.34691977190E+02 -0.65997632755E+02  0.97917291602E+02  0.47000000000E+01 0.  1.
         -5    1    3    3    0  503  0.46214573955E+02 -0.27115683651E+02 -0.59417745844E+02  0.80147399627E+02  0.47000000000E+01 0.  1.
<mgrwt>
<rscale>  0 0.12640041E+03</rscale>
<asrwt>0</asrwt>
<pdfrwt beam="2">  1        5 0.48557039E-01 0.12640418E+03</pdfrwt>
<pdfrwt beam="1">  1       -5 0.77989686E-02 0.12640418E+03</pdfrwt>
<totfact> 0.35109970E+02</totfact>
</mgrwt>
</event>
<event>
 8    1  0.3488953E-007  0.1323711E+03  0.7546771E-02  0.1223983E+00
          5   -1    0    0  501    0  0.00000000000E+00  0.00000000000E+00  0.67047814432E+02  0.67212345742E+02  0.47000000000E+01 0.  1.
         -5   -1    0    0    0  501 -0.00000000000E+00 -0.00000000000E+00 -0.27761882178E+03  0.27765860370E+03  0.47000000000E+01 0.  1.
         25    2    1    2    0    0  0.10565762179E+02  0.42233474601E+02 -0.14769694542E+03  0.19832656651E+03  0.12499495025E+03 0.  0.
         25    2    1    2    0    0 -0.10565762179E+02 -0.42233474601E+02 -0.62874061925E+02  0.14654438293E+03  0.12500722699E+03 0.  0.
          5    1    3    3  502    0 -0.28398549743E+02  0.41027287540E+02 -0.15082789379E+03  0.15893665246E+03  0.47000000000E+01 0. -1.
         -5    1    3    3    0  502  0.38964311921E+02  0.12061870604E+01  0.31309483669E+01  0.39389914044E+02  0.47000000000E+01 0. -1.
          5    1    4    4  503    0 -0.33300357132E+02 -0.69502500770E+02 -0.76059040389E+02  0.10838163601E+03  0.47000000000E+01 0. -1.
         -5    1    4    4    0  503  0.22734594953E+02  0.27269026169E+02  0.13184978465E+02  0.38162746927E+02  0.47000000000E+01 0. -1.
<mgrwt>
<rscale>  0 0.13236820E+03</rscale>
<asrwt>0</asrwt>
<pdfrwt beam="1">  1        5 0.10330765E-01 0.13237110E+03</pdfrwt>
<pdfrwt beam="2">  1       -5 0.42726304E-01 0.13237110E+03</pdfrwt>
<totfact> 0.28679029E+02</totfact>
</mgrwt>
</event>
<event>
 8    1  0.3488953E-007  0.1821981E+03  0.7546771E-02  0.1165694E+00
         -5   -1    0    0    0  501 -0.00000000000E+00  0.00000000000E+00  0.47385118231E+03  0.47387449074E+03  0.47000000000E+01 0.  1.
          5   -1    0    0  501    0  0.00000000000E+00 -0.00000000000E+00 -0.89286283198E+02  0.89409900835E+02  0.47000000000E+01 0.  1.
         25    2    1    2    0    0 -0.64433572919E+02 -0.11584349835E+03  0.32322819705E+03  0.37103887553E+03  0.12498791284E+03 0.  0.
         25    2    1    2    0    0  0.64433572919E+02  0.11584349835E+03  0.61336702056E+02  0.19224551604E+03  0.12499898396E+03 0.  0.
          5    1    4    4  502    0 -0.18429429718E+02  0.29297886053E+02  0.63323645975E+02  0.72318629318E+02  0.47000000000E+01 0.  1.
         -5    1    4    4    0  502  0.82863002638E+02  0.86545612293E+02 -0.19869439194E+01  0.11992688672E+03  0.47000000000E+01 0.  1.
          5    1    3    3  503    0  0.24761311155E+01 -0.59417808742E+01  0.17300897283E+03  0.17319246712E+03  0.47000000000E+01 0. -1.
         -5    1    3    3    0  503 -0.66909704035E+02 -0.10990171747E+03  0.15021922422E+03  0.19784640841E+03  0.47000000000E+01 0. -1.
<mgrwt>
<rscale>  0 0.18219620E+03</rscale>
<asrwt>0</asrwt>
<pdfrwt beam="2">  1        5 0.13747653E-01 0.18219810E+03</pdfrwt>
<pdfrwt beam="1">  1       -5 0.72911486E-01 0.18219810E+03</pdfrwt>
<totfact> 0.59894963E+01</totfact>
</mgrwt>
</event>
<event>
 8    1  0.3488953E-007  0.1343280E+03  0.7546771E-02  0.1221172E+00
         -5   -1    0    0    0  501 -0.00000000000E+00  0.00000000000E+00  0.32627383713E+03  0.32630768731E+03  0.47000000000E+01 0. -1.
          5   -1    0    0  501    0  0.00000000000E+00 -0.00000000000E+00 -0.59929070512E+02  0.60113089194E+02  0.47000000000E+01 0. -1.
         25    2    1    2    0    0  0.29590024717E+02  0.39281754841E+02  0.18753930409E+03  0.23068280204E+03  0.12499975500E+03 0.  0.
         25    2    1    2    0    0 -0.29590024717E+02 -0.39281754841E+02  0.78805462530E+02  0.15573797447E+03  0.12500155975E+03 0.  0.
          5    1    3    3  502    0 -0.17164091225E+02  0.68410221238E+02  0.14362866620E+03  0.16008075510E+03  0.47000000000E+01 0.  1.
         -5    1    3    3    0  502  0.46754115943E+02 -0.29128466398E+02  0.43910637889E+02  0.70602046940E+02  0.47000000000E+01 0.  1.
          5    1    4    4  503    0 -0.68020961971E+02  0.26484039174E+01  0.70416321592E+02  0.98053116510E+02  0.47000000000E+01 0. -1.
         -5    1    4    4    0  503  0.38430937254E+02 -0.41930158758E+02  0.83891409382E+01  0.57684857956E+02  0.47000000000E+01 0. -1.
<mgrwt>
<rscale>  0 0.13432760E+03</rscale>
<asrwt>0</asrwt>
<pdfrwt beam="2">  1        5 0.92366161E-02 0.13432802E+03</pdfrwt>
<pdfrwt beam="1">  1       -5 0.50212734E-01 0.13432802E+03</pdfrwt>
<totfact> 0.24986880E+02</totfact>
</mgrwt>
</event>
<event>
 8    1  0.3488953E-007  0.1318957E+03  0.7546771E-02  0.1224672E+00
         -5   -1    0    0    0  501 -0.00000000000E+00  0.00000000000E+00  0.11934330450E+04  0.11934422998E+04  0.47000000000E+01 0.  1.
          5   -1    0    0  501    0  0.00000000000E+00 -0.00000000000E+00 -0.17688726762E+02  0.18302487657E+02  0.47000000000E+01 0.  1.
         25    2    1    2    0    0 -0.41152595609E+02  0.88585530303E+01  0.85225975640E+03  0.86240434155E+03  0.12499018304E+03 0.  0.
         25    2    1    2    0    0  0.41152595609E+02 -0.88585530303E+01  0.32348456189E+03  0.34934044593E+03  0.12499790118E+03 0.  0.
          5    1    4    4  502    0 -0.16556991092E+02 -0.51528318192E+02  0.19118306302E+03  0.19875199399E+03  0.47000000000E+01 0.  1.
         -5    1    4    4    0  502  0.57709586701E+02  0.42669765162E+02  0.13230149887E+03  0.15058845194E+03  0.47000000000E+01 0.  1.
          5    1    3    3  503    0  0.39774666120E+02 -0.18600848593E+02  0.36789976025E+03  0.37054060401E+03  0.47000000000E+01 0. -1.
         -5    1    3    3    0  503 -0.80927261729E+02  0.27459401623E+02  0.48435999615E+03  0.49186373754E+03  0.47000000000E+01 0. -1.
<mgrwt>
<rscale>  0 0.13189391E+03</rscale>
<asrwt>0</asrwt>
<pdfrwt beam="2">  1        5 0.27692671E-02 0.13189574E+03</pdfrwt>
<pdfrwt beam="1">  1       -5 0.18365299E+00 0.13189574E+03</pdfrwt>
<totfact> 0.77200917E+01</totfact>
</mgrwt>
</event>
<event>
 8    1  0.3488953E-007  0.1461331E+03  0.7546771E-02  0.1205307E+00
          5   -1    0    0  501    0  0.00000000000E+00  0.00000000000E+00  0.23565207605E+03  0.23569894134E+03  0.47000000000E+01 0. -1.
         -5   -1    0    0    0  501 -0.00000000000E+00 -0.00000000000E+00 -0.12352547689E+03  0.12361485930E+03  0.47000000000E+01 0. -1.
         25    2    1    2    0    0 -0.65764398987E+02  0.37480533112E+02 -0.36770644759E+02  0.15068831791E+03  0.12500056920E+03 0.  0.
         25    2    1    2    0    0  0.65764398987E+02 -0.37480533112E+02  0.14889724392E+03  0.20862548273E+03  0.12499782502E+03 0.  0.
          5    1    3    3  502    0  0.18601503923E+02  0.36296826088E+02 -0.50491603159E+02  0.65076628076E+02  0.47000000000E+01 0. -1.
         -5    1    3    3    0  502 -0.84365902910E+02  0.11837070245E+01  0.13720958400E+02  0.85611689830E+02  0.47000000000E+01 0. -1.
          5    1    4    4  503    0  0.45771095828E+02 -0.32660379504E+02  0.16979857958E+03  0.17892831310E+03  0.47000000000E+01 0. -1.
         -5    1    4    4    0  503  0.19993303160E+02 -0.48201536087E+01 -0.20901335652E+02  0.29697169631E+02  0.47000000000E+01 0. -1.
<mgrwt>
<rscale>  0 0.14613253E+03</rscale>
<asrwt>0</asrwt>
<pdfrwt beam="1">  1        5 0.36264646E-01 0.14613312E+03</pdfrwt>
<pdfrwt beam="2">  1       -5 0.19014400E-01 0.14613312E+03</pdfrwt>
<totfact> 0.13813935E+02</totfact>
</mgrwt>
</event>
<event>
 8    1  0.3488953E-007  0.1483294E+03  0.7546771E-02  0.1202546E+00
         -5   -1    0    0    0  501 -0.00000000000E+00  0.00000000000E+00  0.26242011717E+03  0.26246220279E+03  0.47000000000E+01 0. -1.
          5   -1    0    0  501    0  0.00000000000E+00 -0.00000000000E+00 -0.85412850011E+02  0.85542065366E+02  0.47000000000E+01 0. -1.
         25    2    1    2    0    0 -0.34353794630E+02  0.72071727696E+02  0.11300527999E+03  0.18647199217E+03  0.12500837341E+03 0.  0.
         25    2    1    2    0    0  0.34353794630E+02 -0.72071727696E+02  0.64001987172E+02  0.16153227599E+03  0.12498761813E+03 0.  0.
          5    1    4    4  502    0 -0.17196021618E+02  0.26803777460E+02  0.32091113451E+02  0.45454100015E+02  0.47000000000E+01 0. -1.
         -5    1    4    4    0  502  0.51549816248E+02 -0.98875505156E+02  0.31910873721E+02  0.11607817597E+03  0.47000000000E+01 0. -1.
          5    1    3    3  503    0  0.35263895414E+02  0.59754514562E+02  0.86108245785E+02  0.11068362265E+03  0.47000000000E+01 0. -1.
         -5    1    3    3    0  503 -0.69617690044E+02  0.12317213134E+02  0.26897034201E+02  0.75788369525E+02  0.47000000000E+01 0. -1.
<mgrwt>
<rscale>  0 0.14832503E+03</rscale>
<asrwt>0</asrwt>
<pdfrwt beam="2">  1        5 0.13153616E-01 0.14832940E+03</pdfrwt>
<pdfrwt beam="1">  1       -5 0.40385502E-01 0.14832940E+03</pdfrwt>
<totfact> 0.21830504E+02</totfact>
</mgrwt>
</event>
<event>
 8    1  0.3488953E-007  0.1284090E+03  0.7546771E-02  0.1229836E+00
         -5   -1    0    0    0  501 -0.00000000000E+00  0.00000000000E+00  0.33071079009E+03  0.33074418616E+03  0.47000000000E+01 0.  1.
          5   -1    0    0  501    0  0.00000000000E+00 -0.00000000000E+00 -0.52120425338E+02  0.52331909361E+02  0.47000000000E+01 0.  1.
         25    2    1    2    0    0  0.36012310507E+01 -0.29169834639E+02  0.18037265966E+03  0.22141104809E+03  0.12499883098E+03 0.  0.
         25    2    1    2    0    0 -0.36012310507E+01  0.29169834639E+02  0.98217705092E+02  0.16166504743E+03  0.12500008740E+03 0.  0.
          5    1    3    3  502    0 -0.24843723833E+02 -0.57017203233E+02  0.36956165801E+02  0.72498415632E+02  0.47000000000E+01 0. -1.
         -5    1    3    3    0  502  0.28444954884E+02  0.27847368595E+02  0.14341649386E+03  0.14891263246E+03  0.47000000000E+01 0. -1.
          5    1    4    4  503    0  0.57635860927E+02  0.29893106872E+02  0.36678789559E+02  0.74718899261E+02  0.47000000000E+01 0. -1.
         -5    1    4    4    0  503 -0.61237091978E+02 -0.72327223318E+00  0.61538915533E+02  0.86946148170E+02  0.47000000000E+01 0. -1.
<mgrwt>
<rscale>  0 0.12840869E+03</rscale>
<asrwt>0</asrwt>
<pdfrwt beam="2">  1        5 0.80373639E-02 0.12840899E+03</pdfrwt>
<pdfrwt beam="1">  1       -5 0.50897420E-01 0.12840899E+03</pdfrwt>
<totfact> 0.30362405E+02</totfact>
</mgrwt>
</event>
<event>
 8    1  0.3488953E-007  0.1370791E+03  0.7546771E-02  0.1217315E+00
          5   -1    0    0  501    0  0.00000000000E+00  0.00000000000E+00  0.45042780610E+02  0.45287328085E+02  0.47000000000E+01 0.  1.
         -5   -1    0    0    0  501 -0.00000000000E+00 -0.00000000000E+00 -0.42429997010E+03  0.42432600041E+03  0.47000000000E+01 0.  1.
         25    2    1    2    0    0  0.11051979002E+02  0.55159576999E+02 -0.22289663691E+03  0.26167459420E+03  0.12500382927E+03 0.  0.
         25    2    1    2    0    0 -0.11051979002E+02 -0.55159576999E+02 -0.15636055258E+03  0.20793873429E+03  0.12500067857E+03 0.  0.
          5    1    4    4  502    0 -0.30599783125E+02 -0.51890100188E+02 -0.17197003062E+03  0.18227646765E+03  0.47000000000E+01 0.  1.
         -5    1    4    4    0  502  0.19547804124E+02 -0.32694768101E+01  0.15609478045E+02  0.25662266648E+02  0.47000000000E+01 0.  1.
          5    1    3    3  503    0 -0.19299724127E+02  0.56454758961E+02 -0.31129702007E+02  0.67459376722E+02  0.47000000000E+01 0. -1.
         -5    1    3    3    0  503  0.30351703129E+02 -0.12951819624E+01 -0.19176693490E+03  0.19421521748E+03  0.47000000000E+01 0. -1.
<mgrwt>
<rscale>  0 0.13707839E+03</rscale>
<asrwt>0</asrwt>
<pdfrwt beam="1">  1        5 0.69504725E-02 0.13707911E+03</pdfrwt>
<pdfrwt beam="2">  1       -5 0.65297729E-01 0.13707911E+03</pdfrwt>
<totfact> 0.23167748E+02</totfact>
</mgrwt>
</event>
<event>
 8    1  0.3488953E-007  0.1276815E+03  0.7546771E-02  0.1230938E+00
         -5   -1    0    0    0  501 -0.00000000000E+00  0.00000000000E+00  0.43068472219E+02  0.43324165304E+02  0.47000000000E+01 0. -1.
          5   -1    0    0  501    0  0.00000000000E+00 -0.00000000000E+00 -0.38047216550E+03  0.38050119411E+03  0.47000000000E+01 0. -1.
         25    2    1    2    0    0  0.25796988436E+02  0.35142469378E+01 -0.14884600821E+03  0.19610496784E+03  0.12499675879E+03 0.  0.
         25    2    1    2    0    0 -0.25796988436E+02 -0.35142469378E+01 -0.18855768507E+03  0.22772039158E+03  0.12499896638E+03 0.  0.
          5    1    3    3  502    0 -0.15508799985E+02  0.30493694770E+02  0.46155354450E+01  0.34839366600E+02  0.47000000000E+01 0. -1.
         -5    1    3    3    0  502  0.41305788420E+02 -0.26979447832E+02 -0.15346154365E+03  0.16126560124E+03  0.47000000000E+01 0. -1.
          5    1    4    4  503    0 -0.29143085334E+02  0.38463879803E+02 -0.17586610288E+02  0.51576819732E+02  0.47000000000E+01 0.  1.
         -5    1    4    4    0  503  0.33460968987E+01 -0.41978126741E+02 -0.17097107478E+03  0.17614357184E+03  0.47000000000E+01 0.  1.
<mgrwt>
<rscale>  0 0.12768100E+03</rscale>
<asrwt>0</asrwt>
<pdfrwt beam="2">  1        5 0.58556079E-01 0.12768154E+03</pdfrwt>
<pdfrwt beam="1">  1       -5 0.66478207E-02 0.12768154E+03</pdfrwt>
<totfact> 0.30965736E+02</totfact>
</mgrwt>
</event>
<event>
 8    1  0.3488953E-007  0.1283015E+03  0.7546771E-02  0.1229999E+00
         -5   -1    0    0    0  501 -0.00000000000E+00  0.00000000000E+00  0.18645098368E+03  0.18651021236E+03  0.47000000000E+01 0.  1.
          5   -1    0    0  501    0  0.00000000000E+00 -0.00000000000E+00 -0.10631569753E+03  0.10641953553E+03  0.47000000000E+01 0.  1.
         25    2    1    2    0    0  0.16103508353E+02 -0.24037130896E+02  0.10056085374E+03  0.16301257267E+03  0.12499402746E+03 0.  0.
         25    2    1    2    0    0 -0.16103508353E+02  0.24037130896E+02 -0.20425567585E+02  0.12991717522E+03  0.12499664781E+03 0.  0.
          5    1    3    3  502    0 -0.20619995166E+02  0.39340899447E+01 -0.22720123570E+02  0.31288261047E+02  0.47000000000E+01 0.  1.
         -5    1    3    3    0  502  0.36723503519E+02 -0.27971220841E+02  0.12328097731E+03  0.13172431162E+03  0.47000000000E+01 0.  1.
          5    1    4    4  503    0 -0.16598234937E+02  0.28173126123E+02  0.49608907869E+02  0.59601679327E+02  0.47000000000E+01 0. -1.
         -5    1    4    4    0  503  0.49472658432E+00 -0.41359952262E+01 -0.70034475455E+02  0.70315495896E+02  0.47000000000E+01 0. -1.
<mgrwt>
<rscale>  0 0.12830084E+03</rscale>
<asrwt>0</asrwt>
<pdfrwt beam="2">  1        5 0.16368805E-01 0.12830148E+03</pdfrwt>
<pdfrwt beam="1">  1       -5 0.28697310E-01 0.12830148E+03</pdfrwt>
<totfact> 0.27690701E+02</totfact>
</mgrwt>
</event>
<event>
 8    1  0.3488953E-007  0.1335385E+03  0.7546771E-02  0.1222299E+00
         -5   -1    0    0    0  501 -0.00000000000E+00  0.00000000000E+00  0.51994932725E+03  0.51997056927E+03  0.47000000000E+01 0. -1.
          5   -1    0    0  501    0  0.00000000000E+00 -0.00000000000E+00 -0.34381135602E+02  0.34700900353E+02  0.47000000000E+01 0. -1.
         25    2    1    2    0    0 -0.40323149619E+02  0.24135471991E+02  0.21837726432E+03  0.25596838311E+03  0.12499082437E+03 0.  0.
         25    2    1    2    0    0  0.40323149619E+02 -0.24135471991E+02  0.26719092732E+03  0.29870308651E+03  0.12499625932E+03 0.  0.
          5    1    3    3  502    0 -0.12698079720E+02 -0.28746055821E+01 -0.14391793371E+02  0.19967931848E+02  0.47000000000E+01 0.  1.
         -5    1    3    3    0  502 -0.27625069899E+02  0.27010077573E+02  0.23276905770E+03  0.23600045127E+03  0.47000000000E+01 0.  1.
          5    1    4    4  503    0 -0.41076894559E+02 -0.31044945984E+02  0.10188828177E+03  0.11425590532E+03  0.47000000000E+01 0.  1.
         -5    1    4    4    0  503  0.81400044178E+02  0.69094739927E+01  0.16530264555E+03  0.18444718119E+03  0.47000000000E+01 0.  1.
<mgrwt>
<rscale>  0 0.13353727E+03</rscale>
<asrwt>0</asrwt>
<pdfrwt beam="2">  1        5 0.53156367E-02 0.13353854E+03</pdfrwt>
<pdfrwt beam="1">  1       -5 0.80018437E-01 0.13353854E+03</pdfrwt>
<totfact> 0.22739465E+02</totfact>
</mgrwt>
</event>
<event>
 8    1  0.3488953E-007  0.1339800E+03  0.7546771E-02  0.1221670E+00
          5   -1    0    0  501    0  0.00000000000E+00  0.00000000000E+00  0.13577464945E+04  0.13577546293E+04  0.47000000000E+01 0.  1.
         -5   -1    0    0    0  501 -0.00000000000E+00 -0.00000000000E+00 -0.13587565472E+02  0.14377480149E+02  0.47000000000E+01 0.  1.
         25    2    1    2    0    0  0.17707717363E+02  0.44839802532E+02  0.51102348236E+03  0.52829247813E+03  0.12499508703E+03 0.  0.
         25    2    1    2    0    0 -0.17707717363E+02 -0.44839802532E+02  0.83313544666E+03  0.84383963128E+03  0.12500591868E+03 0.  0.
          5    1    3    3  502    0 -0.28142529906E+01 -0.24279305059E+02  0.36015790747E+03  0.36101691510E+03  0.47000000000E+01 0.  1.
         -5    1    3    3    0  502  0.20521970353E+02  0.69119107591E+02  0.15086557489E+03  0.16727556303E+03  0.47000000000E+01 0.  1.
          5    1    4    4  503    0 -0.55123832655E+02 -0.55841538603E+01  0.17886840999E+03  0.18731208662E+03  0.47000000000E+01 0.  1.
         -5    1    4    4    0  503  0.37416115292E+02 -0.39255648672E+02  0.65426703667E+03  0.65652754467E+03  0.47000000000E+01 0.  1.
<mgrwt>
<rscale>  0 0.13397751E+03</rscale>
<asrwt>0</asrwt>
<pdfrwt beam="1">  1        5 0.20894546E+00 0.13398004E+03</pdfrwt>
<pdfrwt beam="2">  1       -5 0.21517832E-02 0.13398004E+03</pdfrwt>
<totfact> 0.78084891E+01</totfact>
</mgrwt>
</event>
<event>
 8    1  0.3488953E-007  0.1599205E+03  0.7546771E-02  0.1188788E+00
         -5   -1    0    0    0  501 -0.00000000000E+00  0.00000000000E+00  0.89791044954E+02  0.89913968626E+02  0.47000000000E+01 0.  1.
          5   -1    0    0  501    0  0.00000000000E+00 -0.00000000000E+00 -0.34682488006E+03  0.34685672464E+03  0.47000000000E+01 0.  1.
         25    2    1    2    0    0 -0.54183046195E+02 -0.83746821312E+02 -0.35940433690E+02  0.16390282706E+03  0.12499235725E+03 0.  0.
         25    2    1    2    0    0  0.54183046195E+02  0.83746821312E+02 -0.22109340141E+03  0.27286786620E+03  0.12500099072E+03 0.  0.
          5    1    4    4  502    0  0.75536764820E+01 -0.26015459888E+02 -0.96476451681E+02  0.10031778462E+03  0.47000000000E+01 0. -1.
         -5    1    4    4    0  502  0.46629369713E+02  0.10976228120E+03 -0.12461694973E+03  0.17255008158E+03  0.47000000000E+01 0. -1.
          5    1    3    3  503    0 -0.65646608490E+02 -0.93168928658E+02 -0.64743490076E+02  0.13116301301E+03  0.47000000000E+01 0.  1.
         -5    1    3    3    0  503  0.11463562294E+02  0.94221073462E+01  0.28803056386E+02  0.32739814057E+02  0.47000000000E+01 0.  1.
<mgrwt>
<rscale>  0 0.15991886E+03</rscale>
<asrwt>0</asrwt>
<pdfrwt beam="2">  1        5 0.53369579E-01 0.15992054E+03</pdfrwt>
<pdfrwt beam="1">  1       -5 0.13825912E-01 0.15992054E+03</pdfrwt>
<totfact> 0.11393070E+02</totfact>
</mgrwt>
</event>
<event>
 8    1  0.3488953E-007  0.1607473E+03  0.7546771E-02  0.1187856E+00
         -5   -1    0    0    0  501 -0.00000000000E+00  0.00000000000E+00  0.13497006727E+04  0.13497088559E+04  0.47000000000E+01 0. -1.
          5   -1    0    0  501    0  0.00000000000E+00 -0.00000000000E+00 -0.33047665380E+02  0.33380206517E+02  0.47000000000E+01 0. -1.
         25    2    1    2    0    0  0.74436092183E+02 -0.68368923170E+02  0.11084896800E+04  0.11200844007E+04  0.12499860955E+03 0.  0.
         25    2    1    2    0    0 -0.74436092183E+02  0.68368923170E+02  0.20816332722E+03  0.26300466176E+03  0.12499775932E+03 0.  0.
          5    1    4    4  502    0 -0.45889685286E+02  0.19880708220E+02  0.31189403319E+01  0.50328158756E+02  0.47000000000E+01 0. -1.
         -5    1    4    4    0  502 -0.28546406897E+02  0.48488214951E+02  0.20504438689E+03  0.21267650301E+03  0.47000000000E+01 0. -1.
          5    1    3    3  503    0 -0.19696460811E+02 -0.62590630560E+02  0.41086066618E+03  0.41609387716E+03  0.47000000000E+01 0.  1.
         -5    1    3    3    0  503  0.94132552994E+02 -0.57782926099E+01  0.69762901387E+03  0.70399052351E+03  0.47000000000E+01 0.  1.
<mgrwt>
<rscale>  0 0.16074713E+03</rscale>
<asrwt>0</asrwt>
<pdfrwt beam="2">  1        5 0.51104658E-02 0.16074730E+03</pdfrwt>
<pdfrwt beam="1">  1       -5 0.20767247E+00 0.16074730E+03</pdfrwt>
<totfact> 0.20494744E+01</totfact>
</mgrwt>
</event>
<event>
 8    1  0.3488953E-007  0.1574917E+03  0.7546771E-02  0.1191558E+00
         -5   -1    0    0    0  501 -0.00000000000E+00  0.00000000000E+00  0.17122481644E+04  0.17122546150E+04  0.47000000000E+01 0.  1.
          5   -1    0    0  501    0  0.00000000000E+00 -0.00000000000E+00 -0.14611516734E+02  0.15348824752E+02  0.47000000000E+01 0.  1.
         25    2    1    2    0    0  0.68403533572E+02  0.67079860260E+02  0.10067052627E+04  0.10189499223E+04  0.12499882869E+03 0.  0.
         25    2    1    2    0    0 -0.68403533572E+02 -0.67079860260E+02  0.69093138495E+03  0.70865351740E+03  0.12499951181E+03 0.  0.
          5    1    4    4  502    0 -0.11781054439E+02 -0.18279037481E+02  0.11385825506E+02  0.24992868530E+02  0.47000000000E+01 0.  1.
         -5    1    4    4    0  502 -0.56622479133E+02 -0.48800822779E+02  0.67954555945E+03  0.68366064887E+03  0.47000000000E+01 0.  1.
          5    1    3    3  503    0  0.51254884941E+02  0.10392801972E+03  0.70320431396E+03  0.71270365068E+03  0.47000000000E+01 0. -1.
         -5    1    3    3    0  503  0.17148648631E+02 -0.36848159459E+02  0.30350094876E+03  0.30624627165E+03  0.47000000000E+01 0. -1.
<mgrwt>
<rscale>  0 0.15749154E+03</rscale>
<asrwt>0</asrwt>
<pdfrwt beam="2">  1        5 0.23051391E-02 0.15749168E+03</pdfrwt>
<pdfrwt beam="1">  1       -5 0.26347986E+00 0.15749168E+03</pdfrwt>
<totfact> 0.32584790E+01</totfact>
</mgrwt>
</event>
<event>
 8    1  0.3488953E-007  0.1300590E+03  0.7546771E-02  0.1227368E+00
         -5   -1    0    0    0  501 -0.00000000000E+00  0.00000000000E+00  0.21986648778E+03  0.21991671708E+03  0.47000000000E+01 0.  1.
          5   -1    0    0  501    0  0.00000000000E+00 -0.00000000000E+00 -0.76889425700E+02  0.77032939607E+02  0.47000000000E+01 0.  1.
         25    2    1    2    0    0 -0.31162985526E+02 -0.17855980169E+02  0.66525533119E+02  0.14608559470E+03  0.12500154690E+03 0.  0.
         25    2    1    2    0    0  0.31162985526E+02  0.17855980169E+02  0.76451528963E+02  0.15086406198E+03  0.12500064489E+03 0.  0.
          5    1    4    4  502    0  0.23735136393E+02  0.35463232917E+02  0.10656656094E+03  0.11488916180E+03  0.47000000000E+01 0. -1.
         -5    1    4    4    0  502  0.74278491325E+01 -0.17607252748E+02 -0.30115031977E+02  0.35974900181E+02  0.47000000000E+01 0. -1.
          5    1    3    3  503    0 -0.11720670780E+02 -0.63309325860E+02  0.71316092719E+02  0.96195217891E+02  0.47000000000E+01 0.  1.
         -5    1    3    3    0  503 -0.19442314746E+02  0.45453345691E+02 -0.47905596001E+01  0.49890376812E+02  0.47000000000E+01 0.  1.
<mgrwt>
<rscale>  0 0.13005883E+03</rscale>
<asrwt>0</asrwt>
<pdfrwt beam="2">  1        5 0.11844046E-01 0.13005904E+03</pdfrwt>
<pdfrwt beam="1">  1       -5 0.33840517E-01 0.13005904E+03</pdfrwt>
<totfact> 0.35952261E+02</totfact>
</mgrwt>
</event>
<event>
 8    1  0.3488953E-007  0.1448770E+03  0.7546771E-02  0.1206936E+00
         -5   -1    0    0    0  501 -0.00000000000E+00  0.00000000000E+00  0.82931312538E+02  0.83064388274E+02  0.47000000000E+01 0.  1.
          5   -1    0    0  501    0  0.00000000000E+00 -0.00000000000E+00 -0.25845451461E+03  0.25849724587E+03  0.47000000000E+01 0.  1.
         25    2    1    2    0    0  0.70881314898E+02  0.17894550068E+02 -0.11345185358E+03  0.18401270213E+03  0.12507987745E+03 0.  0.
         25    2    1    2    0    0 -0.70881314898E+02 -0.17894550068E+02 -0.62071348493E+02  0.15754893201E+03  0.12499775178E+03 0.  0.
          5    1    4    4  502    0 -0.40107978594E+01 -0.15968002068E+01  0.36599918021E+02  0.37152123351E+02  0.47000000000E+01 0. -1.
         -5    1    4    4    0  502 -0.66870517038E+02 -0.16297749861E+02 -0.98671266514E+02  0.12039680866E+03  0.47000000000E+01 0. -1.
          5    1    3    3  503    0 -0.14948973101E+02  0.24091187923E+02 -0.90317481130E+02  0.94779715815E+02  0.47000000000E+01 0.  1.
         -5    1    3    3    0  503  0.85830287999E+02 -0.61966378552E+01 -0.23134372448E+02  0.89232986318E+02  0.47000000000E+01 0.  1.
<mgrwt>
<rscale>  0 0.14485929E+03</rscale>
<asrwt>0</asrwt>
<pdfrwt beam="2">  1        5 0.39775756E-01 0.14487702E+03</pdfrwt>
<pdfrwt beam="1">  1       -5 0.12772187E-01 0.14487702E+03</pdfrwt>
<totfact> 0.23552188E+02</totfact>
</mgrwt>
</event>
<event>
 8    1  0.3488953E-007  0.1288384E+03  0.7546771E-02  0.1229205E+00
         -5   -1    0    0    0  501 -0.00000000000E+00  0.00000000000E+00  0.85757156688E+02  0.85885854034E+02  0.47000000000E+01 0. -1.
          5   -1    0    0  501    0  0.00000000000E+00 -0.00000000000E+00 -0.24177238249E+03  0.24181806164E+03  0.47000000000E+01 0. -1.
         25    2    1    2    0    0  0.22833699362E+02 -0.21057968606E+02 -0.46007144463E+01  0.12892047060E+03  0.12503801541E+03 0.  0.
         25    2    1    2    0    0 -0.22833699362E+02  0.21057968606E+02 -0.15141451136E+03  0.19878344508E+03  0.12499475156E+03 0.  0.
          5    1    4    4  502    0 -0.16379006014E+00 -0.51299671521E+02 -0.75361624605E+02  0.91286075545E+02  0.47000000000E+01 0. -1.
         -5    1    4    4    0  502 -0.22669909302E+02  0.72357640127E+02 -0.76052886754E+02  0.10749736953E+03  0.47000000000E+01 0. -1.
          5    1    3    3  503    0 -0.33986940483E+01  0.50907081497E+02  0.54437351260E+01  0.51524812662E+02  0.47000000000E+01 0. -1.
         -5    1    3    3    0  503  0.26232393410E+02 -0.71965050103E+02 -0.10044449572E+02  0.77395657937E+02  0.47000000000E+01 0. -1.
<mgrwt>
<rscale>  0 0.12882785E+03</rscale>
<asrwt>0</asrwt>
<pdfrwt beam="2">  1        5 0.37209164E-01 0.12883835E+03</pdfrwt>
<pdfrwt beam="1">  1       -5 0.13206822E-01 0.12883835E+03</pdfrwt>
<totfact> 0.24405685E+02</totfact>
</mgrwt>
</event>
<event>
 8    1  0.3488953E-007  0.1500282E+03  0.7546771E-02  0.1200440E+00
         -5   -1    0    0    0  501 -0.00000000000E+00  0.00000000000E+00  0.15021431411E+03  0.15028782440E+03  0.47000000000E+01 0.  1.
          5   -1    0    0  501    0  0.00000000000E+00 -0.00000000000E+00 -0.14970048718E+03  0.14977424966E+03  0.47000000000E+01 0.  1.
         25    2    1    2    0    0 -0.92668949158E+01  0.82441636809E+02  0.14880501592E+01  0.15003070959E+03  0.12499800281E+03 0.  0.
         25    2    1    2    0    0  0.92668949158E+01 -0.82441636809E+02 -0.97422322646E+00  0.15003136448E+03  0.12500384952E+03 0.  0.
          5    1    3    3  502    0  0.43068917402E+02  0.85983857381E+02  0.95378617945E+01  0.96753378153E+02  0.47000000000E+01 0.  1.
         -5    1    3    3    0  502 -0.52335812318E+02 -0.35422205724E+01 -0.80498116353E+01  0.53277331436E+02  0.47000000000E+01 0.  1.
          5    1    4    4  503    0 -0.14428208695E+02 -0.33001134542E+02 -0.59493012369E+02  0.69704781815E+02  0.47000000000E+01 0. -1.
         -5    1    4    4    0  503  0.23695103611E+02 -0.49440502267E+02  0.58518789143E+02  0.80326582663E+02  0.47000000000E+01 0. -1.
<mgrwt>
<rscale>  0 0.15002698E+03</rscale>
<asrwt>0</asrwt>
<pdfrwt beam="2">  1        5 0.23042173E-01 0.15002820E+03</pdfrwt>
<pdfrwt beam="1">  1       -5 0.23121223E-01 0.15002820E+03</pdfrwt>
<totfact> 0.23431141E+02</totfact>
</mgrwt>
</event>
<event>
 8    1  0.3488953E-007  0.1385880E+03  0.7546771E-02  0.1215246E+00
          5   -1    0    0  501    0  0.00000000000E+00  0.00000000000E+00  0.12719655338E+03  0.12728335788E+03  0.47000000000E+01 0. -1.
         -5   -1    0    0    0  501 -0.00000000000E+00 -0.00000000000E+00 -0.17364627717E+03  0.17370987184E+03  0.47000000000E+01 0. -1.
         25    2    1    2    0    0  0.14795741425E+02  0.57981266226E+02 -0.77775587844E+02  0.15892038627E+03  0.12500362359E+03 0.  0.
         25    2    1    2    0    0 -0.14795741425E+02 -0.57981266226E+02  0.31325864057E+02  0.14207284345E+03  0.12499056720E+03 0.  0.
          5    1    4    4  502    0 -0.61058178537E+02 -0.56998494542E+02 -0.38644873586E+01  0.83749351095E+02  0.47000000000E+01 0.  1.
         -5    1    4    4    0  502  0.46262437112E+02 -0.98277168434E+00  0.35190351415E+02  0.58323492355E+02  0.47000000000E+01 0.  1.
          5    1    3    3  503    0 -0.35254691486E+02  0.74817836037E+02 -0.62422575953E+02  0.10372690032E+03  0.47000000000E+01 0. -1.
         -5    1    3    3    0  503  0.50050432911E+02 -0.16836569811E+02 -0.15353011891E+02  0.55193485954E+02  0.47000000000E+01 0. -1.
<mgrwt>
<rscale>  0 0.13858510E+03</rscale>
<asrwt>0</asrwt>
<pdfrwt beam="1">  1        5 0.19580269E-01 0.13858805E+03</pdfrwt>
<pdfrwt beam="2">  1       -5 0.26726381E-01 0.13858805E+03</pdfrwt>
<totfact> 0.23477071E+02</totfact>
</mgrwt>
</event>
<event>
 8    1  0.3488953E-007  0.1532498E+03  0.7546771E-02  0.1196536E+00
         -5   -1    0    0    0  501 -0.00000000000E+00  0.00000000000E+00  0.26271556584E+02  0.26688662113E+02  0.47000000000E+01 0.  1.
          5   -1    0    0  501    0  0.00000000000E+00 -0.00000000000E+00 -0.95483652716E+03  0.95484809452E+03  0.47000000000E+01 0.  1.
         25    2    1    2    0    0  0.37635574513E+02 -0.80273878773E+02 -0.33299517237E+03  0.36656612717E+03  0.12499843471E+03 0.  0.
         25    2    1    2    0    0 -0.37635574513E+02  0.80273878773E+02 -0.59556979820E+03  0.61497062946E+03  0.12500063394E+03 0.  0.
          5    1    4    4  502    0  0.20633170987E+00  0.10649682251E+03 -0.43434823382E+03  0.44723829666E+03  0.47000000000E+01 0. -1.
         -5    1    4    4    0  502 -0.37841906223E+02 -0.26222943735E+02 -0.16122156438E+03  0.16773233280E+03  0.47000000000E+01 0. -1.
          5    1    3    3  503    0  0.38224758731E+02 -0.11209264040E+03 -0.23122456164E+03  0.25983221532E+03  0.47000000000E+01 0.  1.
         -5    1    3    3    0  503 -0.58918421794E+00  0.31818761627E+02 -0.10177061073E+03  0.10673391185E+03  0.47000000000E+01 0.  1.
<mgrwt>
<rscale>  0 0.15324932E+03</rscale>
<asrwt>0</asrwt>
<pdfrwt beam="2">  1        5 0.14693088E+00 0.15324977E+03</pdfrwt>
<pdfrwt beam="1">  1       -5 0.40747535E-02 0.15324977E+03</pdfrwt>
<totfact> 0.81110904E+01</totfact>
</mgrwt>
</event>
<event>
 8    1  0.3488953E-007  0.1496162E+03  0.7546771E-02  0.1200950E+00
          5   -1    0    0  501    0  0.00000000000E+00  0.00000000000E+00  0.92063729698E+02  0.92183622873E+02  0.47000000000E+01 0.  1.
         -5   -1    0    0    0  501 -0.00000000000E+00 -0.00000000000E+00 -0.24348947726E+03  0.24353483434E+03  0.47000000000E+01 0.  1.
         25    2    1    2    0    0  0.78037284889E+02  0.25851712215E+02 -0.66927874748E+02  0.16390342547E+03  0.12500745420E+03 0.  0.
         25    2    1    2    0    0 -0.78037284889E+02 -0.25851712215E+02 -0.84497872817E+02  0.17181503174E+03  0.12498954262E+03 0.  0.
          5    1    4    4  502    0  0.32549799003E+02  0.48940892915E+01 -0.93425934836E+01  0.34537162277E+02  0.47000000000E+01 0. -1.
         -5    1    4    4    0  502 -0.11058708389E+03 -0.30745801506E+02 -0.75155279334E+02  0.13727786947E+03  0.47000000000E+01 0. -1.
          5    1    3    3  503    0  0.32081048466E+02 -0.43189668911E+02 -0.59724006888E+02  0.80520731306E+02  0.47000000000E+01 0.  1.
         -5    1    3    3    0  503  0.45956236423E+02  0.69041381126E+02 -0.72038678601E+01  0.83382694164E+02  0.47000000000E+01 0.  1.
<mgrwt>
<rscale>  0 0.14961241E+03</rscale>
<asrwt>0</asrwt>
<pdfrwt beam="1">  1        5 0.14176362E-01 0.14961615E+03</pdfrwt>
<pdfrwt beam="2">  1       -5 0.37472631E-01 0.14961615E+03</pdfrwt>
<totfact> 0.22293728E+02</totfact>
</mgrwt>
</event>
<event>
 8    1  0.3488953E-007  0.1390894E+03  0.7546771E-02  0.1214566E+00
          5   -1    0    0  501    0  0.00000000000E+00  0.00000000000E+00  0.24121773792E+03  0.24126352208E+03  0.47000000000E+01 0.  1.
         -5   -1    0    0    0  501 -0.00000000000E+00 -0.00000000000E+00 -0.88868236375E+02  0.88992434714E+02  0.47000000000E+01 0.  1.
         25    2    1    2    0    0  0.60962981123E+02  0.15247810007E+00  0.24267671892E+02  0.14119059695E+03  0.12501742459E+03 0.  0.
         25    2    1    2    0    0 -0.60962981123E+02 -0.15247810007E+00  0.12808182966E+03  0.18906535985E+03  0.12499698752E+03 0.  0.
          5    1    4    4  502    0 -0.60934630130E+02 -0.55138251923E+02  0.62488707039E+02  0.10334497802E+03  0.47000000000E+01 0. -1.
         -5    1    4    4    0  502 -0.28350993463E-01  0.54985773823E+02  0.65593122617E+02  0.85720381832E+02  0.47000000000E+01 0. -1.
          5    1    3    3  503    0  0.83995562608E+02  0.34422817672E+02 -0.39094239391E+01  0.90981088749E+02  0.47000000000E+01 0.  1.
         -5    1    3    3    0  503 -0.23032581485E+02 -0.34270339572E+02  0.28177095831E+02  0.50209508200E+02  0.47000000000E+01 0.  1.
<mgrwt>
<rscale>  0 0.13908482E+03</rscale>
<asrwt>0</asrwt>
<pdfrwt beam="1">  1        5 0.37123496E-01 0.13908941E+03</pdfrwt>
<pdfrwt beam="2">  1       -5 0.13685112E-01 0.13908941E+03</pdfrwt>
<totfact> 0.23625236E+02</totfact>
</mgrwt>
</event>
<event>
 8    1  0.3488953E-007  0.1504954E+03  0.7546771E-02  0.1199866E+00
          5   -1    0    0  501    0  0.00000000000E+00  0.00000000000E+00  0.57164951326E+03  0.57166883422E+03  0.47000000000E+01 0. -1.
         -5   -1    0    0    0  501 -0.00000000000E+00 -0.00000000000E+00 -0.44582738224E+02  0.44829795310E+02  0.47000000000E+01 0. -1.
         25    2    1    2    0    0 -0.81815516314E+02  0.18159476433E+02  0.15937746015E+03  0.21920241072E+03  0.12499990707E+03 0.  0.
         25    2    1    2    0    0  0.81815516314E+02 -0.18159476433E+02  0.36768931489E+03  0.39729621881E+03  0.12500123159E+03 0.  0.
          5    1    3    3  502    0  0.27961711036E+02 -0.48183772143E+01  0.64113193247E+01  0.29466405592E+02  0.47000000000E+01 0.  1.
         -5    1    3    3    0  502 -0.10977722735E+03  0.22977853647E+02  0.15296614082E+03  0.18973600513E+03  0.47000000000E+01 0.  1.
          5    1    4    4  503    0  0.56254881195E+01 -0.59483421694E+02  0.19525584940E+03  0.20424705701E+03  0.47000000000E+01 0. -1.
         -5    1    4    4    0  503  0.76190028195E+02  0.41323945262E+02  0.17243346549E+03  0.19304916179E+03  0.47000000000E+01 0. -1.
<mgrwt>
<rscale>  0 0.15049508E+03</rscale>
<asrwt>0</asrwt>
<pdfrwt beam="1">  1        5 0.87966564E-01 0.15049536E+03</pdfrwt>
<pdfrwt beam="2">  1       -5 0.68793739E-02 0.15049536E+03</pdfrwt>
<totfact> 0.12278682E+02</totfact>
</mgrwt>
</event>
<event>
 8    1  0.3488953E-007  0.1544957E+03  0.7546771E-02  0.1195058E+00
         -5   -1    0    0    0  501 -0.00000000000E+00  0.00000000000E+00  0.14744102028E+03  0.14751591257E+03  0.47000000000E+01 0.  1.
          5   -1    0    0  501    0  0.00000000000E+00 -0.00000000000E+00 -0.16775462841E+03  0.16782045570E+03  0.47000000000E+01 0.  1.
         25    2    1    2    0    0  0.89597613221E+02  0.14694849335E+02  0.19717805950E+02  0.15574882967E+03  0.12500094071E+03 0.  0.
         25    2    1    2    0    0 -0.89597613221E+02 -0.14694849335E+02 -0.40031414076E+02  0.15958753860E+03  0.12498798931E+03 0.  0.
          5    1    4    4  502    0 -0.19563525960E+02  0.38748822500E+01  0.43997982315E+02  0.48535128600E+02  0.47000000000E+01 0. -1.
         -5    1    4    4    0  502 -0.70034087261E+02 -0.18569731585E+02 -0.84029396391E+02  0.11105241000E+03  0.47000000000E+01 0. -1.
          5    1    3    3  503    0  0.48617717334E+02 -0.12472470237E+02 -0.49542701651E+02  0.70681074124E+02  0.47000000000E+01 0.  1.
         -5    1    3    3    0  503  0.40979895887E+02  0.27167319572E+02  0.69260507600E+02  0.85067755541E+02  0.47000000000E+01 0.  1.
<mgrwt>
<rscale>  0 0.15449303E+03</rscale>
<asrwt>0</asrwt>
<pdfrwt beam="2">  1        5 0.25819229E-01 0.15449565E+03</pdfrwt>
<pdfrwt beam="1">  1       -5 0.22694058E-01 0.15449565E+03</pdfrwt>
<totfact> 0.19715287E+02</totfact>
</mgrwt>
</event>
<event>
 8    1  0.3488953E-007  0.1369925E+03  0.7546771E-02  0.1217437E+00
         -5   -1    0    0    0  501 -0.00000000000E+00  0.00000000000E+00  0.91985920061E+02  0.92105914519E+02  0.47000000000E+01 0.  1.
          5   -1    0    0  501    0  0.00000000000E+00 -0.00000000000E+00 -0.21868532300E+03  0.21873582354E+03  0.47000000000E+01 0.  1.
         25    2    1    2    0    0 -0.46357865264E+02 -0.31489093903E+02 -0.22715384751E+02  0.13885450353E+03  0.12499587889E+03 0.  0.
         25    2    1    2    0    0  0.46357865264E+02  0.31489093903E+02 -0.10398401819E+03  0.17198723453E+03  0.12500527227E+03 0.  0.
          5    1    4    4  502    0 -0.39368408421E+02  0.27847056585E+02 -0.54106411176E+02  0.72628671146E+02  0.47000000000E+01 0. -1.
         -5    1    4    4    0  502  0.85726273685E+02  0.36420373182E+01 -0.49877607018E+02  0.99358563383E+02  0.47000000000E+01 0. -1.
          5    1    3    3  503    0  0.53337975339E+01  0.34733129999E+02 -0.39478518239E+02  0.53061126242E+02  0.47000000000E+01 0.  1.
         -5    1    3    3    0  503 -0.51691662798E+02 -0.66222223903E+02  0.16763133488E+02  0.85793377284E+02  0.47000000000E+01 0.  1.
<mgrwt>
<rscale>  0 0.13699031E+03</rscale>
<asrwt>0</asrwt>
<pdfrwt beam="2">  1        5 0.33657011E-01 0.13699246E+03</pdfrwt>
<pdfrwt beam="1">  1       -5 0.14164795E-01 0.13699246E+03</pdfrwt>
<totfact> 0.26898230E+02</totfact>
</mgrwt>
</event>
<event>
 8    1  0.3488953E-007  0.1584068E+03  0.7546771E-02  0.1190508E+00
         -5   -1    0    0    0  501 -0.00000000000E+00  0.00000000000E+00  0.22940670046E+03  0.22945484134E+03  0.47000000000E+01 0. -1.
          5   -1    0    0  501    0  0.00000000000E+00 -0.00000000000E+00 -0.13951555727E+03  0.13959470162E+03  0.47000000000E+01 0. -1.
         25    2    1    2    0    0  0.93317772036E+02 -0.27570686176E+02  0.13081962388E+03  0.20544068877E+03  0.12499501309E+03 0.  0.
         25    2    1    2    0    0 -0.93317772036E+02  0.27570686176E+02 -0.40928480679E+02  0.16360885419E+03  0.12499746927E+03 0.  0.
          5    1    4    4  502    0 -0.81885414135E+02 -0.32948054377E+02 -0.49406645769E+02  0.10126155234E+03  0.47000000000E+01 0.  1.
         -5    1    4    4    0  502 -0.11432357901E+02  0.60518740553E+02  0.84781650898E+01  0.62347301855E+02  0.47000000000E+01 0.  1.
          5    1    3    3  503    0  0.23179767722E+02 -0.61143372948E+02  0.17370361186E+02  0.67820595211E+02  0.47000000000E+01 0. -1.
         -5    1    3    3    0  503  0.70138004314E+02  0.33572686772E+02  0.11344926269E+03  0.13762009356E+03  0.47000000000E+01 0. -1.
<mgrwt>
<rscale>  0 0.15840632E+03</rscale>
<asrwt>0</asrwt>
<pdfrwt beam="2">  1        5 0.21473723E-01 0.15840681E+03</pdfrwt>
<pdfrwt beam="1">  1       -5 0.35303129E-01 0.15840681E+03</pdfrwt>
<totfact> 0.11917244E+02</totfact>
</mgrwt>
</event>
<event>
 8    1  0.3488953E-007  0.1333006E+03  0.7546771E-02  0.1222639E+00
          5   -1    0    0  501    0  0.00000000000E+00  0.00000000000E+00  0.51688313004E+03  0.51690449807E+03  0.47000000000E+01 0. -1.
         -5   -1    0    0    0  501 -0.00000000000E+00 -0.00000000000E+00 -0.53653552856E+02  0.53859017203E+02  0.47000000000E+01 0. -1.
         25    2    1    2    0    0 -0.22984600272E+02 -0.40195959855E+02  0.60203388227E+02  0.14626480311E+03  0.12499975054E+03 0.  0.
         25    2    1    2    0    0  0.22984600272E+02  0.40195959855E+02  0.40302618896E+03  0.42449871216E+03  0.12500016241E+03 0.  0.
          5    1    4    4  502    0  0.44761035221E+02  0.77607712393E+02  0.27641523360E+03  0.29060966718E+03  0.47000000000E+01 0.  1.
         -5    1    4    4    0  502 -0.21776434949E+02 -0.37411752538E+02  0.12661095536E+03  0.13388904498E+03  0.47000000000E+01 0.  1.
          5    1    3    3  503    0 -0.25852710224E+02  0.62303257220E+01  0.87879659882E+02  0.91935326211E+02  0.47000000000E+01 0.  1.
         -5    1    3    3    0  503  0.28681099522E+01 -0.46426285577E+02 -0.27676271655E+02  0.54329476897E+02  0.47000000000E+01 0.  1.
<mgrwt>
<rscale>  0 0.13330049E+03</rscale>
<asrwt>0</asrwt>
<pdfrwt beam="1">  1        5 0.79537933E-01 0.13330059E+03</pdfrwt>
<pdfrwt beam="2">  1       -5 0.82718411E-02 0.13330059E+03</pdfrwt>
<totfact> 0.10908458E+02</totfact>
</mgrwt>
</event>
<event>
 8    1  0.3488953E-007  0.1328544E+03  0.7546771E-02  0.1223283E+00
          5   -1    0    0  501    0  0.00000000000E+00  0.00000000000E+00  0.24003476831E+02  0.24459290668E+02  0.47000000000E+01 0.  1.
         -5   -1    0    0    0  501 -0.00000000000E+00 -0.00000000000E+00 -0.85571974892E+03  0.85573265609E+03  0.47000000000E+01 0.  1.
         25    2    1    2    0    0 -0.44444832665E+02 -0.70417111421E+01 -0.58588778239E+03  0.60076048518E+03  0.12499495249E+03 0.  0.
         25    2    1    2    0    0  0.44444832665E+02  0.70417111421E+01 -0.24582848970E+03  0.27943146158E+03  0.12500146609E+03 0.  0.
          5    1    3    3  502    0 -0.91765775830E+01 -0.60462552449E+02 -0.38536786853E+03  0.39021841822E+03  0.47000000000E+01 0.  1.
         -5    1    3    3    0  502 -0.35268255082E+02  0.53420841307E+02 -0.20051991386E+03  0.21054206696E+03  0.47000000000E+01 0.  1.
          5    1    4    4  503    0  0.10281813778E+02 -0.30844394804E+01  0.13355365105E+02  0.17767533272E+02  0.47000000000E+01 0.  1.
         -5    1    4    4    0  503  0.34163018887E+02  0.10126150623E+02 -0.25918385480E+03  0.26166392830E+03  0.47000000000E+01 0.  1.
<mgrwt>
<rscale>  0 0.13285288E+03</rscale>
<asrwt>0</asrwt>
<pdfrwt beam="1">  1        5 0.37288987E-02 0.13285441E+03</pdfrwt>
<pdfrwt beam="2">  1       -5 0.13168522E+00 0.13285441E+03</pdfrwt>
<totfact> 0.12018116E+02</totfact>
</mgrwt>
</event>
<event>
 8    1  0.3488953E-007  0.1267279E+03  0.7546771E-02  0.1232397E+00
          5   -1    0    0  501    0  0.00000000000E+00  0.00000000000E+00  0.59002272923E+03  0.59004144855E+03  0.47000000000E+01 0. -1.
         -5   -1    0    0    0  501 -0.00000000000E+00 -0.00000000000E+00 -0.53866985766E+02  0.54071639105E+02  0.47000000000E+01 0. -1.
         25    2    1    2    0    0 -0.20743808270E+02 -0.20510449427E+01  0.41287330739E+02  0.13327582755E+03  0.12499316047E+03 0.  0.
         25    2    1    2    0    0  0.20743808270E+02  0.20510449427E+01  0.49486841273E+03  0.51083726010E+03  0.12500179210E+03 0.  0.
          5    1    3    3  502    0  0.41530028646E+01 -0.54723884862E+02  0.49741785980E+02  0.74217829931E+02  0.47000000000E+01 0. -1.
         -5    1    3    3    0  502 -0.24896811134E+02  0.52672839919E+02 -0.84544552409E+01  0.59057997623E+02  0.47000000000E+01 0. -1.
          5    1    4    4  503    0  0.72700223887E+02 -0.86417231278E+01  0.27606128572E+03  0.28564300342E+03  0.47000000000E+01 0.  1.
         -5    1    4    4    0  503 -0.51956415617E+02  0.10692768071E+02  0.21880712701E+03  0.22519425668E+03  0.47000000000E+01 0.  1.
<mgrwt>
<rscale>  0 0.12672577E+03</rscale>
<asrwt>0</asrwt>
<pdfrwt beam="1">  1        5 0.90789909E-01 0.12672790E+03</pdfrwt>
<pdfrwt beam="2">  1       -5 0.83044112E-02 0.12672790E+03</pdfrwt>
<totfact> 0.78158589E+01</totfact>
</mgrwt>
</event>
<event>
 8    1  0.3488953E-007  0.1489390E+03  0.7546771E-02  0.1201783E+00
         -5   -1    0    0    0  501 -0.00000000000E+00  0.00000000000E+00  0.19782911702E+04  0.19782967533E+04  0.47000000000E+01 0.  1.
          5   -1    0    0  501    0  0.00000000000E+00 -0.00000000000E+00 -0.10723631397E+02  0.11708384617E+02  0.47000000000E+01 0.  1.
         25    2    1    2    0    0 -0.72336309052E+02  0.36407973202E+02  0.95634553338E+03  0.96787365281E+03  0.12499818584E+03 0.  0.
         25    2    1    2    0    0  0.72336309052E+02 -0.36407973202E+02  0.10112220054E+04  0.10221314851E+04  0.12499898587E+03 0.  0.
          5    1    4    4  502    0 -0.19777369520E+02 -0.87188575237E+01  0.57416717805E+03  0.57459307442E+03  0.47000000000E+01 0.  1.
         -5    1    4    4    0  502  0.92113678573E+02 -0.27689115679E+02  0.43705482739E+03  0.44753841070E+03  0.47000000000E+01 0.  1.
          5    1    3    3  503    0 -0.65226023347E+02  0.65431823405E+02  0.89186933043E+03  0.89665419767E+03  0.47000000000E+01 0. -1.
         -5    1    3    3    0  503 -0.71102857055E+01 -0.29023850202E+02  0.64476202951E+02  0.71219455140E+02  0.47000000000E+01 0. -1.
<mgrwt>
<rscale>  0 0.14893884E+03</rscale>
<asrwt>0</asrwt>
<pdfrwt beam="2">  1        5 0.17259692E-02 0.14893901E+03</pdfrwt>
<pdfrwt beam="1">  1       -5 0.30442866E+00 0.14893901E+03</pdfrwt>
<totfact> 0.28036174E+01</totfact>
</mgrwt>
</event>
<event>
 8    1  0.3488953E-007  0.1809221E+03  0.7546771E-02  0.1166914E+00
          5   -1    0    0  501    0  0.00000000000E+00  0.00000000000E+00  0.58541094583E+02  0.58729462410E+02  0.47000000000E+01 0.  1.
         -5   -1    0    0    0  501 -0.00000000000E+00 -0.00000000000E+00 -0.55877775198E+03  0.55879751799E+03  0.47000000000E+01 0.  1.
         25    2    1    2    0    0 -0.74868234524E+02 -0.10724869772E+03 -0.26129815060E+03  0.31781978537E+03  0.12500062704E+03 0.  0.
         25    2    1    2    0    0  0.74868234524E+02  0.10724869772E+03 -0.23893850680E+03  0.29970719503E+03  0.12500102807E+03 0.  0.
          5    1    3    3  502    0 -0.14971601600E+02  0.25057436195E+02 -0.18546444726E+02  0.34901068396E+02  0.47000000000E+01 0.  1.
         -5    1    3    3    0  502 -0.59896632924E+02 -0.13230613391E+03 -0.24275170588E+03  0.28291871697E+03  0.47000000000E+01 0.  1.
          5    1    4    4  503    0 -0.53120798027E+01 -0.68438908510E+01 -0.10772096704E+03  0.10817094699E+03  0.47000000000E+01 0.  1.
         -5    1    4    4    0  503  0.80180314327E+02  0.11409258857E+03 -0.13121753976E+03  0.19153624804E+03  0.47000000000E+01 0.  1.
<mgrwt>
<rscale>  0 0.18092199E+03</rscale>
<asrwt>0</asrwt>
<pdfrwt beam="1">  1        5 0.90223329E-02 0.18092206E+03</pdfrwt>
<pdfrwt beam="2">  1       -5 0.85981815E-01 0.18092206E+03</pdfrwt>
<totfact> 0.85903216E+01</totfact>
</mgrwt>
</event>
<event>
 8    1  0.3488953E-007  0.1271524E+03  0.7546771E-02  0.1231748E+00
         -5   -1    0    0    0  501 -0.00000000000E+00  0.00000000000E+00  0.22971832097E+03  0.22976639656E+03  0.47000000000E+01 0.  1.
          5   -1    0    0  501    0  0.00000000000E+00 -0.00000000000E+00 -0.89244094674E+02  0.89367770668E+02  0.47000000000E+01 0.  1.
         25    2    1    2    0    0 -0.19694512669E+02  0.12474672614E+02  0.14379658385E+03  0.19195103741E+03  0.12499700777E+03 0.  0.
         25    2    1    2    0    0  0.19694512669E+02 -0.12474672614E+02 -0.33223575546E+01  0.12718312982E+03  0.12498407564E+03 0.  0.
          5    1    3    3  502    0  0.25535404825E+02  0.51752343057E+02  0.34980088531E+02  0.67646570535E+02  0.47000000000E+01 0.  1.
         -5    1    3    3    0  502 -0.45229917494E+02 -0.39277670443E+02  0.10881649532E+03  0.12430446688E+03  0.47000000000E+01 0.  1.
          5    1    4    4  503    0 -0.52604387320E+02 -0.77233090497E+01  0.70486043400E+01  0.53839055444E+02  0.47000000000E+01 0.  1.
         -5    1    4    4    0  503  0.72298899989E+02 -0.47513635647E+01 -0.10370961895E+02  0.73344074375E+02  0.47000000000E+01 0.  1.
<mgrwt>
<rscale>  0 0.12714926E+03</rscale>
<asrwt>0</asrwt>
<pdfrwt beam="2">  1        5 0.13743072E-01 0.12715244E+03</pdfrwt>
<pdfrwt beam="1">  1       -5 0.35354492E-01 0.12715244E+03</pdfrwt>
<totfact> 0.25071241E+02</totfact>
</mgrwt>
</event>
<event>
 8    1  0.3488953E-007  0.1455389E+03  0.7546771E-02  0.1206081E+00
         -5   -1    0    0    0  501 -0.00000000000E+00  0.00000000000E+00  0.44081482264E+02  0.44331332922E+02  0.47000000000E+01 0. -1.
          5   -1    0    0  501    0  0.00000000000E+00 -0.00000000000E+00 -0.48069718055E+03  0.48072015704E+03  0.47000000000E+01 0. -1.
         25    2    1    2    0    0 -0.72893849362E+02  0.15105830434E+02 -0.23516164811E+03  0.27655481376E+03  0.12505944540E+03 0.  0.
         25    2    1    2    0    0  0.72893849362E+02 -0.15105830434E+02 -0.20145405018E+03  0.24849667621E+03  0.12500065746E+03 0.  0.
          5    1    4    4  502    0 -0.54457319781E+01 -0.48424861725E+02 -0.12397477647E+03  0.13329087903E+03  0.47000000000E+01 0. -1.
         -5    1    4    4    0  502  0.78339581340E+02  0.33319031291E+02 -0.77479273702E+02  0.11520579718E+03  0.47000000000E+01 0. -1.
          5    1    3    3  503    0 -0.80859413969E+02  0.14833112633E+02 -0.61819895169E+02  0.10296628330E+03  0.47000000000E+01 0. -1.
         -5    1    3    3    0  503  0.79655646065E+01  0.27271780097E+00 -0.17334175294E+03  0.17358853046E+03  0.47000000000E+01 0. -1.
<mgrwt>
<rscale>  0 0.14552625E+03</rscale>
<asrwt>0</asrwt>
<pdfrwt beam="2">  1        5 0.73974395E-01 0.14553888E+03</pdfrwt>
<pdfrwt beam="1">  1       -5 0.68027536E-02 0.14553888E+03</pdfrwt>
<totfact> 0.18508857E+02</totfact>
</mgrwt>
</event>
<event>
 8    1  0.3488953E-007  0.2065076E+03  0.7546771E-02  0.1144363E+00
         -5   -1    0    0    0  501 -0.00000000000E+00  0.00000000000E+00  0.11821748058E+03  0.11831087319E+03  0.47000000000E+01 0. -1.
          5   -1    0    0  501    0  0.00000000000E+00 -0.00000000000E+00 -0.42447742990E+03  0.42450344933E+03  0.47000000000E+01 0. -1.
         25    2    1    2    0    0 -0.13302910312E+03 -0.96521086877E+02 -0.47759294845E+02  0.21195835609E+03  0.12502932449E+03 0.  0.
         25    2    1    2    0    0  0.13302910312E+03  0.96521086877E+02 -0.25850065447E+03  0.33085596643E+03  0.12502007706E+03 0.  0.
          5    1    3    3  502    0 -0.74241283614E+02 -0.16626699053E+02 -0.77091629345E+02  0.10841321243E+03  0.47000000000E+01 0. -1.
         -5    1    3    3    0  502 -0.58787819504E+02 -0.79894387824E+02  0.29332334500E+02  0.10354514366E+03  0.47000000000E+01 0. -1.
          5    1    4    4  503    0  0.11699063439E+03  0.11996920823E+03 -0.17413465724E+03  0.24171137398E+03  0.47000000000E+01 0. -1.
         -5    1    4    4    0  503  0.16038468723E+02 -0.23448121348E+02 -0.84365997231E+02  0.89144592447E+02  0.47000000000E+01 0. -1.
<mgrwt>
<rscale>  0 0.20650621E+03</rscale>
<asrwt>0</asrwt>
<pdfrwt beam="2">  1        5 0.65313405E-01 0.20650761E+03</pdfrwt>
<pdfrwt beam="1">  1       -5 0.18196490E-01 0.20650761E+03</pdfrwt>
<totfact> 0.47537979E+01</totfact>
</mgrwt>
</event>
<event>
 8    1  0.3488953E-007  0.1510355E+03  0.7546771E-02  0.1199206E+00
         -5   -1    0    0    0  501 -0.00000000000E+00  0.00000000000E+00  0.89523247149E+03  0.89524480898E+03  0.47000000000E+01 0. -1.
          5   -1    0    0  501    0  0.00000000000E+00 -0.00000000000E+00 -0.26570086362E+02  0.26982577514E+02  0.47000000000E+01 0. -1.
         25    2    1    2    0    0  0.79261067959E+02  0.30083235668E+02  0.53620328517E+03  0.55706883667E+03  0.12499763116E+03 0.  0.
         25    2    1    2    0    0 -0.79261067959E+02 -0.30083235668E+02  0.33245909996E+03  0.36515854983E+03  0.12499758160E+03 0.  0.
          5    1    4    4  502    0 -0.33527978708E+02 -0.76058288372E+02  0.15141301165E+03  0.17279172053E+03  0.47000000000E+01 0. -1.
         -5    1    4    4    0  502 -0.45733089251E+02  0.45975052705E+02  0.18104608830E+03  0.19236682930E+03  0.47000000000E+01 0. -1.
          5    1    3    3  503    0  0.10593689347E+03  0.26161349374E+02  0.49940212399E+03  0.51120603777E+03  0.47000000000E+01 0.  1.
         -5    1    3    3    0  503 -0.26675825515E+02  0.39218862937E+01  0.36801161177E+02  0.45862798901E+02  0.47000000000E+01 0.  1.
<mgrwt>
<rscale>  0 0.15103550E+03</rscale>
<asrwt>0</asrwt>
<pdfrwt beam="2">  1        5 0.41203842E-02 0.15103551E+03</pdfrwt>
<pdfrwt beam="1">  1       -5 0.13776077E+00 0.15103551E+03</pdfrwt>
<totfact> 0.94311013E+01</totfact>
</mgrwt>
</event>
<event>
 8    1  0.3488953E-007  0.1539065E+03  0.7546771E-02  0.1195765E+00
         -5   -1    0    0    0  501 -0.00000000000E+00  0.00000000000E+00  0.47503275874E+02  0.47735219899E+02  0.47000000000E+01 0. -1.
          5   -1    0    0  501    0  0.00000000000E+00 -0.00000000000E+00 -0.50117014819E+03  0.50119218613E+03  0.47000000000E+01 0. -1.
         25    2    1    2    0    0  0.40474320205E+02  0.80010508103E+02 -0.20200039270E+03  0.25395150524E+03  0.12508939348E+03 0.  0.
         25    2    1    2    0    0 -0.40474320205E+02 -0.80010508103E+02 -0.25166647962E+03  0.29497590079E+03  0.12503964603E+03 0.  0.
          5    1    4    4  502    0 -0.13436035524E+02 -0.41563033393E+02 -0.54507359359E+01  0.44269778830E+02  0.47000000000E+01 0.  1.
         -5    1    4    4    0  502 -0.27038284681E+02 -0.38447474711E+02 -0.24621574368E+03  0.25070612196E+03  0.47000000000E+01 0.  1.
          5    1    3    3  503    0  0.21728669731E+02  0.98389403827E+00 -0.16158561966E+03  0.16311071582E+03  0.47000000000E+01 0.  1.
         -5    1    3    3    0  503  0.18745650474E+02  0.79026614065E+02 -0.40414773040E+02  0.90840789419E+02  0.47000000000E+01 0.  1.
<mgrwt>
<rscale>  0 0.15389638E+03</rscale>
<asrwt>0</asrwt>
<pdfrwt beam="2">  1        5 0.77122633E-01 0.15390649E+03</pdfrwt>
<pdfrwt beam="1">  1       -5 0.73277337E-02 0.15390649E+03</pdfrwt>
<totfact> 0.15094942E+02</totfact>
</mgrwt>
</event>
<event>
 8    1  0.3488953E-007  0.1677625E+03  0.7546771E-02  0.1180203E+00
          5   -1    0    0  501    0  0.00000000000E+00  0.00000000000E+00  0.22613997850E+03  0.22618881465E+03  0.47000000000E+01 0.  1.
         -5   -1    0    0    0  501 -0.00000000000E+00 -0.00000000000E+00 -0.13013895146E+03  0.13022379463E+03  0.47000000000E+01 0.  1.
         25    2    1    2    0    0  0.35006867492E+02 -0.10626954075E+03  0.10417997215E+02  0.16808570196E+03  0.12500228987E+03 0.  0.
         25    2    1    2    0    0 -0.35006867492E+02  0.10626954075E+03  0.85583029821E+02  0.18832690732E+03  0.12499549178E+03 0.  0.
          5    1    4    4  502    0  0.66431325988E+01  0.83552943628E+02 -0.69490351037E+01  0.84235412319E+02  0.47000000000E+01 0.  1.
         -5    1    4    4    0  502 -0.41650000091E+02  0.22716597122E+02  0.92532064925E+02  0.10409149500E+03  0.47000000000E+01 0.  1.
          5    1    3    3  503    0  0.28998801872E+02  0.22612597311E+02 -0.72507010629E+01  0.37774630814E+02  0.47000000000E+01 0.  1.
         -5    1    3    3    0  503  0.60080656199E+01 -0.12888213806E+03  0.17668698278E+02  0.13031107114E+03  0.47000000000E+01 0.  1.
<mgrwt>
<rscale>  0 0.16776127E+03</rscale>
<asrwt>0</asrwt>
<pdfrwt beam="1">  1        5 0.34801049E-01 0.16776254E+03</pdfrwt>
<pdfrwt beam="2">  1       -5 0.20031660E-01 0.16776254E+03</pdfrwt>
<totfact> 0.14223381E+02</totfact>
</mgrwt>
</event>
<event>
 8    1  0.3488953E-007  0.1956545E+03  0.7546771E-02  0.1153458E+00
          5   -1    0    0  501    0  0.00000000000E+00  0.00000000000E+00  0.33079322777E+03  0.33082661552E+03  0.47000000000E+01 0.  1.
         -5   -1    0    0    0  501 -0.00000000000E+00 -0.00000000000E+00 -0.13229744623E+03  0.13238090603E+03  0.47000000000E+01 0.  1.
         25    2    1    2    0    0  0.15017128919E+03 -0.10211879509E+02  0.17096232199E+02  0.19639954224E+03  0.12499920183E+03 0.  0.
         25    2    1    2    0    0 -0.15017128919E+03  0.10211879509E+02  0.18139954934E+03  0.26680797930E+03  0.12500001097E+03 0.  0.
          5    1    3    3  502    0  0.16213479467E+03  0.94048599736E+01  0.35834719887E+02  0.16638016763E+03  0.47000000000E+01 0. -1.
         -5    1    3    3    0  502 -0.11963505478E+02 -0.19616739482E+02 -0.18738487688E+02  0.30019374611E+02  0.47000000000E+01 0. -1.
          5    1    4    4  503    0 -0.75551890604E+02  0.64538482744E+02  0.67901603402E+02  0.12044094683E+03  0.47000000000E+01 0. -1.
         -5    1    4    4    0  503 -0.74619398583E+02 -0.54326603236E+02  0.11349794593E+03  0.14636703247E+03  0.47000000000E+01 0. -1.
<mgrwt>
<rscale>  0 0.19565442E+03</rscale>
<asrwt>0</asrwt>
<pdfrwt beam="1">  1        5 0.50900254E-01 0.19565455E+03</pdfrwt>
<pdfrwt beam="2">  1       -5 0.20362442E-01 0.19565455E+03</pdfrwt>
<totfact> 0.65557366E+01</totfact>
</mgrwt>
</event>
<event>
 8    1  0.3488953E-007  0.1929035E+03  0.7546771E-02  0.1155868E+00
          5   -1    0    0  501    0  0.00000000000E+00  0.00000000000E+00  0.11779059562E+03  0.11788432643E+03  0.47000000000E+01 0.  1.
         -5   -1    0    0    0  501 -0.00000000000E+00 -0.00000000000E+00 -0.34018043556E+03  0.34021290208E+03  0.47000000000E+01 0.  1.
         25    2    1    2    0    0  0.13704686388E+03  0.52963271772E+02 -0.17265764706E+03  0.25888690966E+03  0.12499927139E+03 0.  0.
         25    2    1    2    0    0 -0.13704686388E+03 -0.52963271772E+02 -0.49732192882E+02  0.19921031885E+03  0.12499803626E+03 0.  0.
          5    1    3    3  502    0  0.10273125981E+03  0.84017767436E+02 -0.79536720999E+02  0.15479301332E+03  0.47000000000E+01 0. -1.
         -5    1    3    3    0  502  0.34315604075E+02 -0.31054495663E+02 -0.93120926060E+02  0.10409389633E+03  0.47000000000E+01 0. -1.
          5    1    4    4  503    0  0.18046633619E+02  0.14581399303E+02 -0.58486096865E+01  0.24384306959E+02  0.47000000000E+01 0. -1.
         -5    1    4    4    0  503 -0.15509349750E+03 -0.67544671075E+02 -0.43883583195E+02  0.17482601189E+03  0.47000000000E+01 0. -1.
<mgrwt>
<rscale>  0 0.19290332E+03</rscale>
<asrwt>0</asrwt>
<pdfrwt beam="1">  1        5 0.18131338E-01 0.19290352E+03</pdfrwt>
<pdfrwt beam="2">  1       -5 0.52345159E-01 0.19290352E+03</pdfrwt>
<totfact> 0.76405799E+01</totfact>
</mgrwt>
</event>
<event>
 8    1  0.3488953E-007  0.2155596E+03  0.7546771E-02  0.1137239E+00
          5   -1    0    0  501    0  0.00000000000E+00  0.00000000000E+00  0.69882968287E+02  0.70040839920E+02  0.47000000000E+01 0.  1.
         -5   -1    0    0    0  501 -0.00000000000E+00 -0.00000000000E+00 -0.78441739688E+03  0.78443147727E+03  0.47000000000E+01 0.  1.
         25    2    1    2    0    0 -0.16408540411E+03  0.62580812290E+02 -0.52465654536E+03  0.56721016182E+03  0.12498999628E+03 0.  0.
         25    2    1    2    0    0  0.16408540411E+03 -0.62580812290E+02 -0.18987788323E+03  0.28726215537E+03  0.12500222981E+03 0.  0.
          5    1    3    3  502    0 -0.16356171333E+03  0.73660971730E+02 -0.52534167617E+03  0.55514353058E+03  0.47000000000E+01 0. -1.
         -5    1    3    3    0  502 -0.52369078403E+00 -0.11080159439E+02  0.68513080848E+00  0.12066631239E+02  0.47000000000E+01 0. -1.
          5    1    4    4  503    0  0.73124813843E+02 -0.73286789337E+02 -0.39063794583E+02  0.11075315769E+03  0.47000000000E+01 0.  1.
         -5    1    4    4    0  503  0.90960590270E+02  0.10705977047E+02 -0.15081408865E+03  0.17650899768E+03  0.47000000000E+01 0.  1.
<mgrwt>
<rscale>  0 0.21555781E+03</rscale>
<asrwt>0</asrwt>
<pdfrwt beam="1">  1        5 0.10764454E-01 0.21555959E+03</pdfrwt>
<pdfrwt beam="2">  1       -5 0.12069282E+00 0.21555959E+03</pdfrwt>
<totfact> 0.28591473E+01</totfact>
</mgrwt>
</event>
<event>
 8    1  0.3488953E-007  0.1357801E+03  0.7546771E-02  0.1219124E+00
         -5   -1    0    0    0  501 -0.00000000000E+00  0.00000000000E+00  0.24577114969E+02  0.25022481495E+02  0.47000000000E+01 0. -1.
          5   -1    0    0  501    0  0.00000000000E+00 -0.00000000000E+00 -0.75091422574E+03  0.75092893433E+03  0.47000000000E+01 0. -1.
         25    2    1    2    0    0 -0.18101223126E+02  0.49836436300E+02 -0.32317808672E+03  0.35054289956E+03  0.12499969613E+03 0.  0.
         25    2    1    2    0    0  0.18101223126E+02 -0.49836436300E+02 -0.40315902405E+03  0.42540851627E+03  0.12499552944E+03 0.  0.
          5    1    3    3  502    0 -0.68775472375E+02  0.36761928121E+02 -0.23766639750E+03  0.25017775973E+03  0.47000000000E+01 0. -1.
         -5    1    3    3    0  502  0.50674249248E+02  0.13074508179E+02 -0.85511689220E+02  0.10036513984E+03  0.47000000000E+01 0. -1.
          5    1    4    4  503    0  0.65794956783E+02 -0.55010969282E+02 -0.22477454352E+03  0.24062599297E+03  0.47000000000E+01 0.  1.
         -5    1    4    4    0  503 -0.47693733656E+02  0.51745329814E+01 -0.17838448053E+03  0.18478252330E+03  0.47000000000E+01 0.  1.
<mgrwt>
<rscale>  0 0.13577919E+03</rscale>
<asrwt>0</asrwt>
<pdfrwt beam="2">  1        5 0.11556064E+00 0.13578015E+03</pdfrwt>
<pdfrwt beam="1">  1       -5 0.38164856E-02 0.13578015E+03</pdfrwt>
<totfact> 0.16288233E+02</totfact>
</mgrwt>
</event>
<event>
 8    1  0.3488953E-007  0.1447013E+03  0.7546771E-02  0.1207154E+00
          5   -1    0    0  501    0  0.00000000000E+00  0.00000000000E+00  0.32813005857E+03  0.32816371728E+03  0.47000000000E+01 0. -1.
         -5   -1    0    0    0  501 -0.00000000000E+00 -0.00000000000E+00 -0.66860700182E+02  0.67025690812E+02  0.47000000000E+01 0. -1.
         25    2    1    2    0    0  0.64661741823E+02  0.33728195908E+02  0.87539568997E+02  0.16912024322E+03  0.12497899212E+03 0.  0.
         25    2    1    2    0    0 -0.64661741823E+02 -0.33728195908E+02  0.17372978939E+03  0.22606916487E+03  0.12492596019E+03 0.  0.
          5    1    4    4  502    0 -0.43641078642E+02  0.44567512427E+01 -0.27699770698E+01  0.44205985451E+02  0.47000000000E+01 0. -1.
         -5    1    4    4    0  502 -0.21020663181E+02 -0.38184947151E+02  0.17649976646E+03  0.18186317942E+03  0.47000000000E+01 0. -1.
          5    1    3    3  503    0 -0.48269641168E+01  0.35569302783E+02 -0.19715832368E+02  0.41222311059E+02  0.47000000000E+01 0.  1.
         -5    1    3    3    0  503  0.69488705940E+02 -0.18411068753E+01  0.10725540137E+03  0.12789793216E+03  0.47000000000E+01 0.  1.
<mgrwt>
<rscale>  0 0.14468990E+03</rscale>
<asrwt>0</asrwt>
<pdfrwt beam="1">  1        5 0.50496829E-01 0.14470135E+03</pdfrwt>
<pdfrwt beam="2">  1       -5 0.10301542E-01 0.14470135E+03</pdfrwt>
<totfact> 0.20931556E+02</totfact>
</mgrwt>
</event>
<event>
 8    1  0.3488953E-007  0.1374927E+03  0.7546771E-02  0.1216744E+00
         -5   -1    0    0    0  501 -0.00000000000E+00  0.00000000000E+00  0.52017911875E+02  0.52229810988E+02  0.47000000000E+01 0.  1.
          5   -1    0    0  501    0  0.00000000000E+00 -0.00000000000E+00 -0.36767258382E+03  0.36770262290E+03  0.47000000000E+01 0.  1.
         25    2    1    2    0    0  0.30438838446E+02  0.48491605882E+02 -0.18285376855E+03  0.22877883366E+03  0.12500518122E+03 0.  0.
         25    2    1    2    0    0 -0.30438838446E+02 -0.48491605882E+02 -0.13280090339E+03  0.19115360023E+03  0.12500264082E+03 0.  0.
          5    1    3    3  502    0  0.76403316717E+02  0.10484044296E+02 -0.11165975030E+03  0.13578428417E+03  0.47000000000E+01 0.  1.
         -5    1    3    3    0  502 -0.45964478271E+02  0.38007561586E+02 -0.71194018254E+02  0.92994549494E+02  0.47000000000E+01 0.  1.
          5    1    4    4  503    0 -0.13218416867E+01 -0.50468028579E+02  0.43155888892E+01  0.50886967699E+02  0.47000000000E+01 0. -1.
         -5    1    4    4    0  503 -0.29116996759E+02  0.19764226975E+01 -0.13711649228E+03  0.14026663253E+03  0.47000000000E+01 0. -1.
<mgrwt>
<rscale>  0 0.13749216E+03</rscale>
<asrwt>0</asrwt>
<pdfrwt beam="2">  1        5 0.56583622E-01 0.13749274E+03</pdfrwt>
<pdfrwt beam="1">  1       -5 0.80213665E-02 0.13749274E+03</pdfrwt>
<totfact> 0.24866588E+02</totfact>
</mgrwt>
</event>
<event>
 8    1  0.3488953E-007  0.1380570E+03  0.7546771E-02  0.1215968E+00
         -5   -1    0    0    0  501 -0.00000000000E+00  0.00000000000E+00  0.28263890084E+03  0.28267797627E+03  0.47000000000E+01 0. -1.
          5   -1    0    0  501    0  0.00000000000E+00 -0.00000000000E+00 -0.84214836571E+02  0.84345887266E+02  0.47000000000E+01 0. -1.
         25    2    1    2    0    0 -0.60421042208E+01  0.58293828518E+02  0.18134471604E+03  0.22791436683E+03  0.12499750039E+03 0.  0.
         25    2    1    2    0    0  0.60421042208E+01 -0.58293828518E+02  0.17079348226E+02  0.13910949671E+03  0.12500028189E+03 0.  0.
          5    1    3    3  502    0 -0.97140036695E+01 -0.38934087937E+02  0.47153711914E+02  0.62094988670E+02  0.47000000000E+01 0. -1.
         -5    1    3    3    0  502  0.36718994487E+01  0.97227916454E+02  0.13419100413E+03  0.16581937816E+03  0.47000000000E+01 0. -1.
          5    1    4    4  503    0  0.91039526171E+01 -0.75718353246E+02 -0.34899735276E+02  0.84001383881E+02  0.47000000000E+01 0. -1.
         -5    1    4    4    0  503 -0.30618483963E+01  0.17424524728E+02  0.51979083502E+02  0.55108112826E+02  0.47000000000E+01 0. -1.
<mgrwt>
<rscale>  0 0.13805642E+03</rscale>
<asrwt>0</asrwt>
<pdfrwt beam="2">  1        5 0.12969215E-01 0.13805705E+03</pdfrwt>
<pdfrwt beam="1">  1       -5 0.43495994E-01 0.13805705E+03</pdfrwt>
<totfact> 0.18760025E+02</totfact>
</mgrwt>
</event>
<event>
 8    1  0.3488953E-007  0.1279515E+03  0.7546771E-02  0.1230529E+00
          5   -1    0    0  501    0  0.00000000000E+00  0.00000000000E+00  0.48569302503E+03  0.48571576520E+03  0.47000000000E+01 0.  1.
         -5   -1    0    0    0  501 -0.00000000000E+00 -0.00000000000E+00 -0.34038325282E+02  0.34361280361E+02  0.47000000000E+01 0.  1.
         25    2    1    2    0    0  0.11789440076E+02 -0.24649385002E+02  0.19387539892E+03  0.23228934519E+03  0.12499634596E+03 0.  0.
         25    2    1    2    0    0 -0.11789440076E+02  0.24649385002E+02  0.25777930083E+03  0.28778770037E+03  0.12500003789E+03 0.  0.
          5    1    3    3  502    0 -0.20865345120E+02  0.30376304071E+02  0.15007729560E+03  0.15460713804E+03  0.47000000000E+01 0.  1.
         -5    1    3    3    0  502  0.32654785196E+02 -0.55025689072E+02  0.43798103319E+02  0.77682207155E+02  0.47000000000E+01 0.  1.
          5    1    4    4  503    0 -0.23614400574E+02 -0.13236075395E+01 -0.39758480640E+01  0.24439501206E+02  0.47000000000E+01 0. -1.
         -5    1    4    4    0  503  0.11824960498E+02  0.25972992541E+02  0.26175514889E+03  0.26334819917E+03  0.47000000000E+01 0. -1.
<mgrwt>
<rscale>  0 0.12795062E+03</rscale>
<asrwt>0</asrwt>
<pdfrwt beam="1">  1        5 0.74748595E-01 0.12795152E+03</pdfrwt>
<pdfrwt beam="2">  1       -5 0.52632574E-02 0.12795152E+03</pdfrwt>
<totfact> 0.26624643E+02</totfact>
</mgrwt>
</event>
<event>
 8    1  0.3488953E-007  0.1465714E+03  0.7546771E-02  0.1204751E+00
         -5   -1    0    0    0  501 -0.00000000000E+00  0.00000000000E+00  0.39262168659E+03  0.39264981699E+03  0.47000000000E+01 0. -1.
          5   -1    0    0  501    0  0.00000000000E+00 -0.00000000000E+00 -0.63185423807E+02  0.63359985650E+02  0.47000000000E+01 0. -1.
         25    2    1    2    0    0 -0.77025474424E+01 -0.76146453047E+02  0.24869574455E+03  0.28867414646E+03  0.12500231168E+03 0.  0.
         25    2    1    2    0    0  0.77025474424E+01  0.76146453047E+02  0.80740518233E+02  0.16733565618E+03  0.12499831597E+03 0.  0.
          5    1    3    3  502    0 -0.25616953130E+02 -0.10298411695E+03  0.14349237446E+03  0.17853321305E+03  0.47000000000E+01 0. -1.
         -5    1    3    3    0  502  0.17914405688E+02  0.26837663903E+02  0.10520337008E+03  0.11014093341E+03  0.47000000000E+01 0. -1.
          5    1    4    4  503    0  0.13437487645E+02 -0.33587625839E+02  0.17414838444E+02  0.40423523866E+02  0.47000000000E+01 0. -1.
         -5    1    4    4    0  503 -0.57349402026E+01  0.10973407889E+03  0.63325679789E+02  0.12691213232E+03  0.47000000000E+01 0. -1.
<mgrwt>
<rscale>  0 0.14657060E+03</rscale>
<asrwt>0</asrwt>
<pdfrwt beam="2">  1        5 0.97364262E-02 0.14657145E+03</pdfrwt>
<pdfrwt beam="1">  1       -5 0.60418928E-01 0.14657145E+03</pdfrwt>
<totfact> 0.15749142E+02</totfact>
</mgrwt>
</event>
<event>
 8    1  0.3488953E-007  0.1299527E+03  0.7546771E-02  0.1227528E+00
         -5   -1    0    0    0  501 -0.00000000000E+00  0.00000000000E+00  0.11101294025E+04  0.11101393518E+04  0.47000000000E+01 0. -1.
          5   -1    0    0  501    0  0.00000000000E+00 -0.00000000000E+00 -0.16075600817E+02  0.16748580287E+02  0.47000000000E+01 0. -1.
         25    2    1    2    0    0 -0.92982748806E+01  0.34292334136E+02  0.69998487320E+03  0.71194453174E+03  0.12499508574E+03 0.  0.
         25    2    1    2    0    0  0.92982748806E+01 -0.34292334136E+02  0.39406892849E+03  0.41494340031E+03  0.12500113184E+03 0.  0.
          5    1    4    4  502    0  0.40015588616E+02 -0.67356110356E+02  0.18418331060E+03  0.20020907781E+03  0.47000000000E+01 0.  1.
         -5    1    4    4    0  502 -0.30717313736E+02  0.33063776219E+02  0.20988561789E+03  0.21473432250E+03  0.47000000000E+01 0.  1.
          5    1    3    3  503    0  0.51240330394E+02  0.44027890853E+02  0.40429186793E+03  0.40992442121E+03  0.47000000000E+01 0.  1.
         -5    1    3    3    0  503 -0.60538605275E+02 -0.97355567164E+01  0.29569300527E+03  0.30202011052E+03  0.47000000000E+01 0.  1.
<mgrwt>
<rscale>  0 0.12995125E+03</rscale>
<asrwt>0</asrwt>
<pdfrwt beam="2">  1        5 0.25257013E-02 0.12995270E+03</pdfrwt>
<pdfrwt beam="1">  1       -5 0.17084174E+00 0.12995270E+03</pdfrwt>
<totfact> 0.10999023E+02</totfact>
</mgrwt>
</event>
<event>
 8    1  0.3488953E-007  0.1254803E+03  0.7546771E-02  0.1234326E+00
          5   -1    0    0  501    0  0.00000000000E+00  0.00000000000E+00  0.71168511875E+03  0.71170063809E+03  0.47000000000E+01 0. -1.
         -5   -1    0    0    0  501 -0.00000000000E+00 -0.00000000000E+00 -0.23042731645E+02  0.23517174186E+02  0.47000000000E+01 0. -1.
         25    2    1    2    0    0  0.50095580860E+01  0.95139037384E+01  0.26176383504E+03  0.29027892775E+03  0.12500376205E+03 0.  0.
         25    2    1    2    0    0 -0.50095580860E+01 -0.95139037384E+01  0.42687855206E+03  0.44493888452E+03  0.12501880941E+03 0.  0.
          5    1    3    3  502    0  0.56724181835E+02 -0.31819628216E+01  0.20293404522E+03  0.21078917050E+03  0.47000000000E+01 0.  1.
         -5    1    3    3    0  502 -0.51714623749E+02  0.12695866560E+02  0.58829789825E+02  0.79489757253E+02  0.47000000000E+01 0.  1.
          5    1    4    4  503    0  0.15296117385E+01 -0.20746746182E+02  0.43019658157E+03  0.43072491916E+03  0.47000000000E+01 0. -1.
         -5    1    4    4    0  503 -0.65391698245E+01  0.11232842443E+02 -0.33180295089E+01  0.14213965357E+02  0.47000000000E+01 0. -1.
<mgrwt>
<rscale>  0 0.12547658E+03</rscale>
<asrwt>0</asrwt>
<pdfrwt beam="1">  1        5 0.10952770E+00 0.12548033E+03</pdfrwt>
<pdfrwt beam="2">  1       -5 0.35827254E-02 0.12548033E+03</pdfrwt>
<totfact> 0.20092604E+02</totfact>
</mgrwt>
</event>
<event>
 8    1  0.3488953E-007  0.1436712E+03  0.7546771E-02  0.1208474E+00
          5   -1    0    0  501    0  0.00000000000E+00  0.00000000000E+00  0.41001760776E+02  0.41270260319E+02  0.47000000000E+01 0.  1.
         -5   -1    0    0    0  501 -0.00000000000E+00 -0.00000000000E+00 -0.50170704273E+03  0.50172905708E+03  0.47000000000E+01 0.  1.
         25    2    1    2    0    0 -0.46499420888E+02  0.53424685829E+02 -0.23593444628E+03  0.27623472481E+03  0.12499666816E+03 0.  0.
         25    2    1    2    0    0  0.46499420888E+02 -0.53424685829E+02 -0.22477083567E+03  0.26676459259E+03  0.12500010438E+03 0.  0.
          5    1    4    4  502    0  0.11648709067E+02 -0.56817085281E+02 -0.22399170205E+03  0.23142654599E+03  0.47000000000E+01 0. -1.
         -5    1    4    4    0  502  0.34850711821E+02  0.33923994526E+01 -0.77913362314E+00  0.35338046602E+02  0.47000000000E+01 0. -1.
          5    1    3    3  503    0 -0.17738001395E+02 -0.37193725341E+02 -0.36500047635E+02  0.55248107438E+02  0.47000000000E+01 0.  1.
         -5    1    3    3    0  503 -0.28761419493E+02  0.90618411169E+02 -0.19943439865E+03  0.22098661737E+03  0.47000000000E+01 0.  1.
<mgrwt>
<rscale>  0 0.14367047E+03</rscale>
<asrwt>0</asrwt>
<pdfrwt beam="1">  1        5 0.63303108E-02 0.14367122E+03</pdfrwt>
<pdfrwt beam="2">  1       -5 0.77208042E-01 0.14367122E+03</pdfrwt>
<totfact> 0.18875664E+02</totfact>
</mgrwt>
</event>
<event>
 8    1  0.3488953E-007  0.1460123E+03  0.7546771E-02  0.1205462E+00
         -5   -1    0    0    0  501 -0.00000000000E+00  0.00000000000E+00  0.12134092175E+04  0.12134183199E+04  0.47000000000E+01 0. -1.
          5   -1    0    0  501    0  0.00000000000E+00 -0.00000000000E+00 -0.23366617395E+02  0.23834613663E+02  0.47000000000E+01 0. -1.
         25    2    1    2    0    0  0.47971110869E+02  0.58224412730E+02  0.90793653787E+03  0.91960227835E+03  0.12501313466E+03 0.  0.
         25    2    1    2    0    0 -0.47971110869E+02 -0.58224412730E+02  0.28210606223E+03  0.31765065523E+03  0.12500719460E+03 0.  0.
          5    1    4    4  502    0 -0.31594138650E+02 -0.27930568032E+02  0.27960293147E+03  0.28280416460E+03  0.47000000000E+01 0. -1.
         -5    1    4    4    0  502 -0.16376972219E+02 -0.30293844698E+02  0.25031307654E+01  0.34846490631E+02  0.47000000000E+01 0. -1.
          5    1    3    3  503    0  0.62720496982E+02  0.92644374467E+01  0.76651745625E+03  0.76914939465E+03  0.47000000000E+01 0. -1.
         -5    1    3    3    0  503 -0.14749386113E+02  0.48959975283E+02  0.14141908162E+03  0.15045288371E+03  0.47000000000E+01 0. -1.
<mgrwt>
<rscale>  0 0.14601103E+03</rscale>
<asrwt>0</asrwt>
<pdfrwt beam="2">  1        5 0.36315646E-02 0.14601231E+03</pdfrwt>
<pdfrwt beam="1">  1       -5 0.18671502E+00 0.14601231E+03</pdfrwt>
<totfact> 0.48786366E+01</totfact>
</mgrwt>
</event>
<event>
 8    1  0.3488953E-007  0.1424108E+03  0.7546771E-02  0.1210126E+00
         -5   -1    0    0    0  501 -0.00000000000E+00  0.00000000000E+00  0.13665555542E+03  0.13673635518E+03  0.47000000000E+01 0. -1.
          5   -1    0    0  501    0  0.00000000000E+00 -0.00000000000E+00 -0.15178355036E+03  0.15185630102E+03  0.47000000000E+01 0. -1.
         25    2    1    2    0    0  0.33801225358E+02 -0.59236892518E+02  0.14501596792E+02  0.14313215986E+03  0.12499994642E+03 0.  0.
         25    2    1    2    0    0 -0.33801225358E+02  0.59236892518E+02 -0.29629591725E+02  0.14546049634E+03  0.12501724289E+03 0.  0.
          5    1    4    4  502    0  0.20480309702E+02 -0.11457330962E+02  0.29807650024E+02  0.38226947539E+02  0.47000000000E+01 0.  1.
         -5    1    4    4    0  502 -0.54281535060E+02  0.70694223480E+02 -0.59437241749E+02  0.10723354880E+03  0.47000000000E+01 0.  1.
          5    1    3    3  503    0  0.27605485735E+02  0.26324366459E+02 -0.27736666139E+02  0.47396706222E+02  0.47000000000E+01 0.  1.
         -5    1    3    3    0  503  0.61957396232E+01 -0.85561258978E+02  0.42238262932E+02  0.95735453636E+02  0.47000000000E+01 0.  1.
<mgrwt>
<rscale>  0 0.14240703E+03</rscale>
<asrwt>0</asrwt>
<pdfrwt beam="2">  1        5 0.23363127E-01 0.14241083E+03</pdfrwt>
<pdfrwt beam="1">  1       -5 0.21035743E-01 0.14241083E+03</pdfrwt>
<totfact> 0.26813498E+02</totfact>
</mgrwt>
</event>
<event>
 8    1  0.3488953E-007  0.1994315E+03  0.7546771E-02  0.1150220E+00
          5   -1    0    0  501    0  0.00000000000E+00  0.00000000000E+00  0.87954037633E+02  0.88079525067E+02  0.47000000000E+01 0. -1.
         -5   -1    0    0    0  501 -0.00000000000E+00 -0.00000000000E+00 -0.46976832319E+03  0.46979183419E+03  0.47000000000E+01 0. -1.
         25    2    1    2    0    0 -0.36056110244E+01  0.15535256877E+03 -0.24555061423E+03  0.31633533346E+03  0.12500207196E+03 0.  0.
         25    2    1    2    0    0  0.36056110244E+01 -0.15535256877E+03 -0.13626367133E+03  0.24153602580E+03  0.12499777030E+03 0.  0.
          5    1    3    3  502    0 -0.18188280447E+01  0.98886598749E+01 -0.13005643176E+03  0.13052915066E+03  0.47000000000E+01 0. -1.
         -5    1    3    3    0  502 -0.17867829797E+01  0.14546390889E+03 -0.11549418247E+03  0.18580618280E+03  0.47000000000E+01 0. -1.
          5    1    4    4  503    0 -0.23247981704E+02 -0.15812535623E+03 -0.79639647015E+02  0.17862995357E+03  0.47000000000E+01 0.  1.
         -5    1    4    4    0  503  0.26853592729E+02  0.27727874649E+01 -0.56624024315E+02  0.62906072222E+02  0.47000000000E+01 0.  1.
<mgrwt>
<rscale>  0 0.19943087E+03</rscale>
<asrwt>0</asrwt>
<pdfrwt beam="1">  1        5 0.13542852E-01 0.19943154E+03</pdfrwt>
<pdfrwt beam="2">  1       -5 0.72283510E-01 0.19943154E+03</pdfrwt>
<totfact> 0.64331505E+01</totfact>
</mgrwt>
</event>
<event>
 8    1  0.3488953E-007  0.1334612E+03  0.7546771E-02  0.1222409E+00
         -5   -1    0    0    0  501 -0.00000000000E+00  0.00000000000E+00  0.23860704652E+03  0.23865333153E+03  0.47000000000E+01 0. -1.
          5   -1    0    0  501    0  0.00000000000E+00 -0.00000000000E+00 -0.99008066748E+02  0.99119560537E+02  0.47000000000E+01 0. -1.
         25    2    1    2    0    0  0.28615247459E+02 -0.36980484483E+02  0.15371398745E+03  0.20356735996E+03  0.12500116593E+03 0.  0.
         25    2    1    2    0    0 -0.28615247459E+02  0.36980484483E+02 -0.14115007673E+02  0.13420553211E+03  0.12500201113E+03 0.  0.
          5    1    4    4  502    0  0.47658805932E+02  0.27350506269E+02 -0.15087310974E+02  0.57176296911E+02  0.47000000000E+01 0. -1.
         -5    1    4    4    0  502 -0.76274053391E+02  0.96299782139E+01  0.97230330040E+00  0.77029235196E+02  0.47000000000E+01 0. -1.
          5    1    3    3  503    0  0.33096927426E+02 -0.46240225205E+02  0.17247102926E+03  0.18166428093E+03  0.47000000000E+01 0.  1.
         -5    1    3    3    0  503 -0.44816799670E+01  0.92597407221E+01 -0.18757041810E+02  0.21903079031E+02  0.47000000000E+01 0.  1.
<mgrwt>
<rscale>  0 0.13346100E+03</rscale>
<asrwt>0</asrwt>
<pdfrwt beam="2">  1        5 0.15244147E-01 0.13346120E+03</pdfrwt>
<pdfrwt beam="1">  1       -5 0.36720913E-01 0.13346120E+03</pdfrwt>
<totfact> 0.19606659E+02</totfact>
</mgrwt>
</event>
<event>
 8    1  0.3488953E-007  0.1387715E+03  0.7546771E-02  0.1214994E+00
         -5   -1    0    0    0  501 -0.00000000000E+00  0.00000000000E+00  0.76235960049E+03  0.76237408827E+03  0.47000000000E+01 0.  1.
          5   -1    0    0  501    0  0.00000000000E+00 -0.00000000000E+00 -0.26865932917E+02  0.27273950053E+02  0.47000000000E+01 0.  1.
         25    2    1    2    0    0  0.59729624759E+02  0.80027280961E+01  0.47024191201E+03  0.49028868218E+03  0.12499545726E+03 0.  0.
         25    2    1    2    0    0 -0.59729624759E+02 -0.80027280961E+01  0.26525175557E+03  0.29935935614E+03  0.12500343414E+03 0.  0.
          5    1    4    4  502    0 -0.24318018161E+02  0.58363516882E+02  0.12077537267E+03  0.13640544987E+03  0.47000000000E+01 0. -1.
         -5    1    4    4    0  502 -0.35411606598E+02 -0.66366244979E+02  0.14447638289E+03  0.16295390627E+03  0.47000000000E+01 0. -1.
          5    1    3    3  503    0 -0.11372675621E+02  0.39288795591E+02  0.60232192931E+02  0.72958579174E+02  0.47000000000E+01 0.  1.
         -5    1    3    3    0  503  0.71102300380E+02 -0.31286067494E+02  0.41000971908E+03  0.41733010301E+03  0.47000000000E+01 0.  1.
<mgrwt>
<rscale>  0 0.13876971E+03</rscale>
<asrwt>0</asrwt>
<pdfrwt beam="2">  1        5 0.41657206E-02 0.13877150E+03</pdfrwt>
<pdfrwt beam="1">  1       -5 0.11731860E+00 0.13877150E+03</pdfrwt>
<totfact> 0.13680784E+02</totfact>
</mgrwt>
</event>
<event>
 8    1  0.3488953E-007  0.1663355E+03  0.7546771E-02  0.1181726E+00
         -5   -1    0    0    0  501 -0.00000000000E+00  0.00000000000E+00  0.13680086536E+02  0.14464949625E+02  0.47000000000E+01 0. -1.
          5   -1    0    0  501    0  0.00000000000E+00 -0.00000000000E+00 -0.20179326987E+04  0.20179381721E+04  0.47000000000E+01 0. -1.
         25    2    1    2    0    0 -0.44480099795E+01 -0.10963108726E+03 -0.83782722682E+03  0.85417746946E+03  0.12500370888E+03 0.  0.
         25    2    1    2    0    0  0.44480099795E+01  0.10963108726E+03 -0.11664253853E+04  0.11782256523E+04  0.12501499129E+03 0.  0.
          5    1    4    4  502    0  0.36441336378E+02  0.61290737834E+02 -0.98756836239E+03  0.99015043601E+03  0.47000000000E+01 0.  1.
         -5    1    4    4    0  502 -0.31993326398E+02  0.48340349428E+02 -0.17885702293E+03  0.18807521625E+03  0.47000000000E+01 0.  1.
          5    1    3    3  503    0 -0.58348877384E+02 -0.39712578065E+02 -0.49977022611E+03  0.50475147276E+03  0.47000000000E+01 0. -1.
         -5    1    3    3    0  503  0.53900867405E+02 -0.69918509197E+02 -0.33805700072E+03  0.34942599670E+03  0.47000000000E+01 0. -1.
<mgrwt>
<rscale>  0 0.16633341E+03</rscale>
<asrwt>0</asrwt>
<pdfrwt beam="2">  1        5 0.31051175E+00 0.16633553E+03</pdfrwt>
<pdfrwt beam="1">  1       -5 0.21654254E-02 0.16633553E+03</pdfrwt>
<totfact> 0.18335115E+01</totfact>
</mgrwt>
</event>
<event>
 8    1  0.3488953E-007  0.1310442E+03  0.7546771E-02  0.1225916E+00
         -5   -1    0    0    0  501 -0.00000000000E+00  0.00000000000E+00  0.18355760666E+03  0.18361776865E+03  0.47000000000E+01 0.  1.
          5   -1    0    0  501    0  0.00000000000E+00 -0.00000000000E+00 -0.93867573297E+02  0.93985165407E+02  0.47000000000E+01 0.  1.
         25    2    1    2    0    0  0.36888078342E+02  0.13684735745E+02  0.35230271601E+02  0.13569728771E+03  0.12499831815E+03 0.  0.
         25    2    1    2    0    0 -0.36888078342E+02 -0.13684735745E+02  0.54459761760E+02  0.14190564634E+03  0.12499337781E+03 0.  0.
          5    1    4    4  502    0 -0.63210464190E+02 -0.37714378260E+02  0.70960873584E+02  0.10234975667E+03  0.47000000000E+01 0.  1.
         -5    1    4    4    0  502  0.26322385848E+02  0.24029642514E+02 -0.16501111824E+02  0.39555889670E+02  0.47000000000E+01 0.  1.
          5    1    3    3  503    0 -0.22548673759E+02  0.48503934966E+02 -0.79225083290E+01  0.54276427053E+02  0.47000000000E+01 0. -1.
         -5    1    3    3    0  503  0.59436752101E+02 -0.34819199220E+02  0.43152779930E+02  0.81420860659E+02  0.47000000000E+01 0. -1.
<mgrwt>
<rscale>  0 0.13104302E+03</rscale>
<asrwt>0</asrwt>
<pdfrwt beam="2">  1        5 0.14454839E-01 0.13104420E+03</pdfrwt>
<pdfrwt beam="1">  1       -5 0.28253305E-01 0.13104420E+03</pdfrwt>
<totfact> 0.36039091E+02</totfact>
</mgrwt>
</event>
<event>
 8    1  0.3488953E-007  0.1331718E+03  0.7546771E-02  0.1222824E+00
         -5   -1    0    0    0  501 -0.00000000000E+00  0.00000000000E+00  0.48099238556E+02  0.48328322438E+02  0.47000000000E+01 0.  1.
          5   -1    0    0  501    0  0.00000000000E+00 -0.00000000000E+00 -0.36894012025E+03  0.36897005614E+03  0.47000000000E+01 0.  1.
         25    2    1    2    0    0  0.40481748975E+02  0.21729401723E+02 -0.14779784816E+03  0.19894457219E+03  0.12499519983E+03 0.  0.
         25    2    1    2    0    0 -0.40481748975E+02 -0.21729401723E+02 -0.17304303353E+03  0.21835380639E+03  0.12499421752E+03 0.  0.
          5    1    4    4  502    0  0.91155966738E+01  0.34561340063E+02 -0.12269006650E+03  0.12787698287E+03  0.47000000000E+01 0.  1.
         -5    1    4    4    0  502 -0.49597345649E+02 -0.56290741787E+02 -0.50352967031E+02  0.90476823525E+02  0.47000000000E+01 0.  1.
          5    1    3    3  503    0  0.16236731608E+02 -0.52038358003E+02 -0.51378649703E+02  0.75056497403E+02  0.47000000000E+01 0.  1.
         -5    1    3    3    0  503  0.24245017367E+02  0.73767759727E+02 -0.96419198457E+02  0.12388807478E+03  0.47000000000E+01 0.  1.
<mgrwt>
<rscale>  0 0.13317161E+03</rscale>
<asrwt>0</asrwt>
<pdfrwt beam="2">  1        5 0.56779941E-01 0.13317184E+03</pdfrwt>
<pdfrwt beam="1">  1       -5 0.74198077E-02 0.13317184E+03</pdfrwt>
<totfact> 0.27894882E+02</totfact>
</mgrwt>
</event>
<event>
 8    1  0.3488953E-007  0.1470552E+03  0.7546771E-02  0.1204143E+00
          5   -1    0    0  501    0  0.00000000000E+00  0.00000000000E+00  0.16679824663E+03  0.16686445122E+03  0.47000000000E+01 0. -1.
         -5   -1    0    0    0  501 -0.00000000000E+00 -0.00000000000E+00 -0.14658494970E+03  0.14666027915E+03  0.47000000000E+01 0. -1.
         25    2    1    2    0    0 -0.50152666139E+02  0.59027563182E+02 -0.43380069802E+02  0.15330817946E+03  0.12498809662E+03 0.  0.
         25    2    1    2    0    0  0.50152666139E+02 -0.59027563182E+02  0.63593366730E+02  0.16021655091E+03  0.12500273499E+03 0.  0.
          5    1    4    4  502    0  0.81132921983E+01  0.18639384816E+02 -0.26660668312E+02  0.33854592176E+02  0.47000000000E+01 0.  1.
         -5    1    4    4    0  502  0.42039373941E+02 -0.77666947998E+02  0.90254035042E+02  0.12636195873E+03  0.47000000000E+01 0.  1.
          5    1    3    3  503    0 -0.60749620101E+02 -0.15167795336E+02 -0.46521829905E+02  0.78146970610E+02  0.47000000000E+01 0. -1.
         -5    1    3    3    0  503  0.10596953961E+02  0.74195358518E+02  0.31417601028E+01  0.75161208847E+02  0.47000000000E+01 0. -1.
<mgrwt>
<rscale>  0 0.14705207E+03</rscale>
<asrwt>0</asrwt>
<pdfrwt beam="1">  1        5 0.25672156E-01 0.14705518E+03</pdfrwt>
<pdfrwt beam="2">  1       -5 0.22562418E-01 0.14705518E+03</pdfrwt>
<totfact> 0.19829642E+02</totfact>
</mgrwt>
</event>
<event>
 8    1  0.3488953E-007  0.1366425E+03  0.7546771E-02  0.1217922E+00
          5   -1    0    0  501    0  0.00000000000E+00  0.00000000000E+00  0.39886826168E+03  0.39889595157E+03  0.47000000000E+01 0.  1.
         -5   -1    0    0    0  501 -0.00000000000E+00 -0.00000000000E+00 -0.58616254054E+02  0.58804381124E+02  0.47000000000E+01 0.  1.
         25    2    1    2    0    0  0.53409694327E+02 -0.13890609044E+02  0.66980464477E+02  0.15217043905E+03  0.12499566165E+03 0.  0.
         25    2    1    2    0    0 -0.53409694327E+02  0.13890609044E+02  0.27327154315E+03  0.30552989364E+03  0.12500254056E+03 0.  0.
          5    1    3    3  502    0 -0.26225487342E+02  0.34303296151E+02  0.21314648581E+02  0.48382812623E+02  0.47000000000E+01 0. -1.
         -5    1    3    3    0  502  0.79635181670E+02 -0.48193905196E+02  0.45665815897E+02  0.10378762643E+03  0.47000000000E+01 0. -1.
          5    1    4    4  503    0  0.18378307791E+02 -0.18300397371E+02  0.62083651468E+01  0.27079522503E+02  0.47000000000E+01 0. -1.
         -5    1    4    4    0  503 -0.71788002119E+02  0.32191006415E+02  0.26706317800E+03  0.27845037114E+03  0.47000000000E+01 0. -1.
<mgrwt>
<rscale>  0 0.13664095E+03</rscale>
<asrwt>0</asrwt>
<pdfrwt beam="1">  1        5 0.61380950E-01 0.13664252E+03</pdfrwt>
<pdfrwt beam="2">  1       -5 0.90344865E-02 0.13664252E+03</pdfrwt>
<totfact> 0.16929687E+02</totfact>
</mgrwt>
</event>
<event>
 8    1  0.3488953E-007  0.1265423E+03  0.7546771E-02  0.1232679E+00
         -5   -1    0    0    0  501 -0.00000000000E+00  0.00000000000E+00  0.23152161042E+03  0.23156931164E+03  0.47000000000E+01 0.  1.
          5   -1    0    0  501    0  0.00000000000E+00 -0.00000000000E+00 -0.71852549166E+02  0.72006102669E+02  0.47000000000E+01 0.  1.
         25    2    1    2    0    0  0.19236502648E+02 -0.42609583275E+01  0.10988316827E+03  0.16759162343E+03  0.12499777109E+03 0.  0.
         25    2    1    2    0    0 -0.19236502648E+02  0.42609583275E+01  0.49785892992E+02  0.13598379088E+03  0.12499902976E+03 0.  0.
          5    1    4    4  502    0 -0.25413525246E+02 -0.30372064726E+01 -0.38822595903E+02  0.46737092777E+02  0.47000000000E+01 0. -1.
         -5    1    4    4    0  502  0.61770225984E+01  0.72981648002E+01  0.88608488895E+02  0.89246698101E+02  0.47000000000E+01 0. -1.
          5    1    3    3  503    0  0.17654793277E+02  0.21118456063E+02 -0.20517472732E+02  0.34651660847E+02  0.47000000000E+01 0.  1.
         -5    1    3    3    0  503  0.15817093712E+01 -0.25379414391E+02  0.13040064100E+03  0.13293996258E+03  0.47000000000E+01 0.  1.
<mgrwt>
<rscale>  0 0.12654200E+03</rscale>
<asrwt>0</asrwt>
<pdfrwt beam="2">  1        5 0.11069719E-01 0.12654231E+03</pdfrwt>
<pdfrwt beam="1">  1       -5 0.35634191E-01 0.12654231E+03</pdfrwt>
<totfact> 0.36161782E+02</totfact>
</mgrwt>
</event>
<event>
 8    1  0.3488953E-007  0.1320010E+03  0.7546771E-02  0.1224522E+00
          5   -1    0    0  501    0  0.00000000000E+00  0.00000000000E+00  0.18434439946E+03  0.18440430476E+03  0.47000000000E+01 0. -1.
         -5   -1    0    0    0  501 -0.00000000000E+00 -0.00000000000E+00 -0.13768541022E+03  0.13776560596E+03  0.47000000000E+01 0. -1.
         25    2    1    2    0    0 -0.43714829436E+01  0.42147299754E+02 -0.66962601784E+02  0.14801435721E+03  0.12501501975E+03 0.  0.
         25    2    1    2    0    0  0.43714829436E+01 -0.42147299754E+02  0.11362159103E+03  0.17415555351E+03  0.12499914452E+03 0.  0.
          5    1    3    3  502    0 -0.46807630807E+02 -0.21352413835E+02 -0.44718280936E+02  0.68327845921E+02  0.47000000000E+01 0. -1.
         -5    1    3    3    0  502  0.42436147863E+02  0.63499713588E+02 -0.22244320848E+02  0.79686511288E+02  0.47000000000E+01 0. -1.
          5    1    4    4  503    0  0.14191787643E+02  0.17323683464E+02  0.11132529826E+03  0.11365266771E+03  0.47000000000E+01 0.  1.
         -5    1    4    4    0  503 -0.98203046991E+01 -0.59470983218E+02  0.22962927648E+01  0.60502885797E+02  0.47000000000E+01 0.  1.
<mgrwt>
<rscale>  0 0.13199723E+03</rscale>
<asrwt>0</asrwt>
<pdfrwt beam="1">  1        5 0.28371454E-01 0.13200098E+03</pdfrwt>
<pdfrwt beam="2">  1       -5 0.21193148E-01 0.13200098E+03</pdfrwt>
<totfact> 0.17738130E+02</totfact>
</mgrwt>
</event>
<event>
 8    1  0.3488953E-007  0.1345309E+03  0.7546771E-02  0.1220884E+00
         -5   -1    0    0    0  501 -0.00000000000E+00  0.00000000000E+00  0.98001221075E+03  0.98002348095E+03  0.47000000000E+01 0. -1.
          5   -1    0    0  501    0  0.00000000000E+00 -0.00000000000E+00 -0.18683415575E+02  0.19265513685E+02  0.47000000000E+01 0. -1.
         25    2    1    2    0    0  0.49683506199E+02 -0.22236418423E+01  0.56321801451E+03  0.57906224680E+03  0.12500063375E+03 0.  0.
         25    2    1    2    0    0 -0.49683506199E+02  0.22236418423E+01  0.39811078067E+03  0.42022674783E+03  0.12499972216E+03 0.  0.
          5    1    3    3  502    0 -0.41967045908E+02 -0.58466958196E+01  0.18642737286E+03  0.19123982887E+03  0.47000000000E+01 0.  1.
         -5    1    3    3    0  502  0.91650552107E+02  0.36230539773E+01  0.37679064165E+03  0.38782241794E+03  0.47000000000E+01 0.  1.
          5    1    4    4  503    0  0.22716822907E+02  0.26236362084E+02  0.36327272421E+02  0.50459503167E+02  0.47000000000E+01 0. -1.
         -5    1    4    4    0  503 -0.72400329106E+02 -0.24012720242E+02  0.36178350825E+03  0.36976724466E+03  0.47000000000E+01 0. -1.
<mgrwt>
<rscale>  0 0.13453065E+03</rscale>
<asrwt>0</asrwt>
<pdfrwt beam="2">  1        5 0.29200146E-02 0.13453087E+03</pdfrwt>
<pdfrwt beam="1">  1       -5 0.15081679E+00 0.13453087E+03</pdfrwt>
<totfact> 0.12488859E+02</totfact>
</mgrwt>
</event>
<event>
 8    1  0.3488953E-007  0.1273917E+03  0.7546771E-02  0.1231378E+00
         -5   -1    0    0    0  501 -0.00000000000E+00  0.00000000000E+00  0.18553678765E+04  0.18553738295E+04  0.47000000000E+01 0. -1.
          5   -1    0    0  501    0  0.00000000000E+00 -0.00000000000E+00 -0.81490105662E+01  0.94072510973E+01  0.47000000000E+01 0. -1.
         25    2    1    2    0    0 -0.20219354202E+02  0.13973500343E+02  0.98435621617E+03  0.99256516483E+03  0.12499746043E+03 0.  0.
         25    2    1    2    0    0  0.20219354202E+02 -0.13973500343E+02  0.86286264976E+03  0.87221591575E+03  0.12499828140E+03 0.  0.
          5    1    4    4  502    0 -0.16114140451E+02  0.29550258007E+01  0.77860380235E+03  0.77879032398E+03  0.47000000000E+01 0. -1.
         -5    1    4    4    0  502  0.36333494652E+02 -0.16928526143E+02  0.84258847411E+02  0.93425591773E+02  0.47000000000E+01 0. -1.
          5    1    3    3  503    0  0.43413153311E+02 -0.14631767689E+01  0.67024077674E+03  0.67166333202E+03  0.47000000000E+01 0.  1.
         -5    1    3    3    0  503 -0.63632507513E+02  0.15436677112E+02  0.31411543943E+03  0.32090183281E+03  0.47000000000E+01 0.  1.
<mgrwt>
<rscale>  0 0.12739152E+03</rscale>
<asrwt>0</asrwt>
<pdfrwt beam="2">  1        5 0.13509388E-02 0.12739172E+03</pdfrwt>
<pdfrwt beam="1">  1       -5 0.28553863E+00 0.12739172E+03</pdfrwt>
<totfact> 0.52084919E+01</totfact>
</mgrwt>
</event>
<event>
 8    1  0.3488953E-007  0.1258498E+03  0.7546771E-02  0.1233748E+00
          5   -1    0    0  501    0  0.00000000000E+00  0.00000000000E+00  0.28722239863E+03  0.28726085058E+03  0.47000000000E+01 0. -1.
         -5   -1    0    0    0  501 -0.00000000000E+00 -0.00000000000E+00 -0.63307946722E+02  0.63482171656E+02  0.47000000000E+01 0. -1.
         25    2    1    2    0    0  0.14349894740E+02 -0.29542784885E+01  0.48534539280E+02  0.13488130340E+03  0.12499086872E+03 0.  0.
         25    2    1    2    0    0 -0.14349894740E+02  0.29542784885E+01  0.17537991263E+03  0.21586171884E+03  0.12499408252E+03 0.  0.
          5    1    4    4  502    0 -0.58013596345E+02  0.23055181038E+02  0.45784904455E+02  0.77559436625E+02  0.47000000000E+01 0.  1.
         -5    1    4    4    0  502  0.43663701605E+02 -0.20100902549E+02  0.12959500818E+03  0.13830228221E+03  0.47000000000E+01 0.  1.
          5    1    3    3  503    0  0.33932238419E+02  0.54607824671E+02  0.19564185767E+02  0.67366599173E+02  0.47000000000E+01 0.  1.
         -5    1    3    3    0  503 -0.19582343679E+02 -0.57562103160E+02  0.28970353513E+02  0.67514704227E+02  0.47000000000E+01 0.  1.
<mgrwt>
<rscale>  0 0.12584899E+03</rscale>
<asrwt>0</asrwt>
<pdfrwt beam="1">  1        5 0.44204420E-01 0.12584978E+03</pdfrwt>
<pdfrwt beam="2">  1       -5 0.97560441E-02 0.12584978E+03</pdfrwt>
<totfact> 0.28998490E+02</totfact>
</mgrwt>
</event>
<event>
 8    1  0.3488953E-007  0.1273643E+03  0.7546771E-02  0.1231421E+00
          5   -1    0    0  501    0  0.00000000000E+00  0.00000000000E+00  0.70342085948E+02  0.70498929464E+02  0.47000000000E+01 0. -1.
         -5   -1    0    0    0  501 -0.00000000000E+00 -0.00000000000E+00 -0.27177290029E+03  0.27181353780E+03  0.47000000000E+01 0. -1.
         25    2    1    2    0    0  0.24101403786E+02 -0.37242153440E+01 -0.16765752908E+03  0.21054634255E+03  0.12500387138E+03 0.  0.
         25    2    1    2    0    0 -0.24101403786E+02  0.37242153440E+01 -0.33773285257E+02  0.13176612471E+03  0.12500771728E+03 0.  0.
          5    1    4    4  502    0 -0.22129656629E+02 -0.59143815117E+02 -0.25022666010E+02  0.68087710957E+02  0.47000000000E+01 0.  1.
         -5    1    4    4    0  502 -0.19717471570E+01  0.62868030461E+02 -0.87506192470E+01  0.63678413753E+02  0.47000000000E+01 0.  1.
          5    1    3    3  503    0  0.10240272994E+02  0.58621062800E+02 -0.10597695620E+03  0.12163263312E+03  0.47000000000E+01 0. -1.
         -5    1    3    3    0  503  0.13861130792E+02 -0.62345278144E+02 -0.61680572879E+02  0.88913709429E+02  0.47000000000E+01 0. -1.
<mgrwt>
<rscale>  0 0.12736340E+03</rscale>
<asrwt>0</asrwt>
<pdfrwt beam="1">  1        5 0.10837050E-01 0.12736435E+03</pdfrwt>
<pdfrwt beam="2">  1       -5 0.41826406E-01 0.12736435E+03</pdfrwt>
<totfact> 0.27173921E+02</totfact>
</mgrwt>
</event>
<event>
 8    1  0.3488953E-007  0.1372716E+03  0.7546771E-02  0.1217050E+00
          5   -1    0    0  501    0  0.00000000000E+00  0.00000000000E+00  0.40246120464E+03  0.40248864734E+03  0.47000000000E+01 0. -1.
         -5   -1    0    0    0  501 -0.00000000000E+00 -0.00000000000E+00 -0.47677951104E+02  0.47909049473E+02  0.47000000000E+01 0. -1.
         25    2    1    2    0    0  0.23174657149E+02 -0.51775485562E+02  0.14476393063E+03  0.19949960125E+03  0.12500291856E+03 0.  0.
         25    2    1    2    0    0 -0.23174657149E+02  0.51775485562E+02  0.21001932291E+03  0.25089809557E+03  0.12499589084E+03 0.  0.
          5    1    3    3  502    0 -0.53613933296E+01 -0.16387299017E+02 -0.20985983907E+02  0.27564281744E+02  0.47000000000E+01 0. -1.
         -5    1    3    3    0  502  0.28536050478E+02 -0.35388186545E+02  0.16574991454E+03  0.17193531950E+03  0.47000000000E+01 0. -1.
          5    1    4    4  503    0  0.35910390563E+02  0.26873027413E+01  0.14702639602E+03  0.15144513486E+03  0.47000000000E+01 0.  1.
         -5    1    4    4    0  503 -0.59085047712E+02  0.49088182821E+02  0.62992926885E+02  0.99452960706E+02  0.47000000000E+01 0.  1.
<mgrwt>
<rscale>  0 0.13727001E+03</rscale>
<asrwt>0</asrwt>
<pdfrwt beam="1">  1        5 0.61937000E-01 0.13727161E+03</pdfrwt>
<pdfrwt beam="2">  1       -5 0.73549567E-02 0.13727161E+03</pdfrwt>
<totfact> 0.23662851E+02</totfact>
</mgrwt>
</event>
<event>
 8    1  0.3488953E-007  0.1515435E+03  0.7546771E-02  0.1198591E+00
         -5   -1    0    0    0  501 -0.00000000000E+00  0.00000000000E+00  0.10492517653E+04  0.10492622918E+04  0.47000000000E+01 0. -1.
          5   -1    0    0  501    0  0.00000000000E+00 -0.00000000000E+00 -0.45770702579E+02  0.46011381359E+02  0.47000000000E+01 0. -1.
         25    2    1    2    0    0  0.20043978510E+02  0.83297084753E+02  0.89786352529E+03  0.91056265129E+03  0.12500106590E+03 0.  0.
         25    2    1    2    0    0 -0.20043978510E+02 -0.83297084753E+02  0.10561753745E+03  0.18471102188E+03  0.12499172767E+03 0.  0.
          5    1    3    3  502    0  0.17901615095E+02 -0.25100473127E+02  0.38942995499E+03  0.39067669680E+03  0.47000000000E+01 0.  1.
         -5    1    3    3    0  502  0.21423634151E+01  0.10839755788E+03  0.50843357030E+03  0.51988595450E+03  0.47000000000E+01 0.  1.
          5    1    4    4  503    0  0.10432635314E+02  0.30123920697E+02  0.11781601953E+02  0.34310153342E+02  0.47000000000E+01 0. -1.
         -5    1    4    4    0  503 -0.30476613824E+02 -0.11342100545E+03  0.93835935497E+02  0.15040086854E+03  0.47000000000E+01 0. -1.
<mgrwt>
<rscale>  0 0.15154157E+03</rscale>
<asrwt>0</asrwt>
<pdfrwt beam="2">  1        5 0.70609701E-02 0.15154350E+03</pdfrwt>
<pdfrwt beam="1">  1       -5 0.16144267E+00 0.15154350E+03</pdfrwt>
<totfact> 0.24852411E+01</totfact>
</mgrwt>
</event>
<event>
 8    1  0.3488953E-007  0.1433902E+03  0.7546771E-02  0.1208839E+00
          5   -1    0    0  501    0  0.00000000000E+00  0.00000000000E+00  0.22644412968E+03  0.22649290026E+03  0.47000000000E+01 0. -1.
         -5   -1    0    0    0  501 -0.00000000000E+00 -0.00000000000E+00 -0.91342812670E+02  0.91463650848E+02  0.47000000000E+01 0. -1.
         25    2    1    2    0    0  0.53110629867E+02  0.45987396494E+02  0.54009226280E+02  0.15322437729E+03  0.12500053453E+03 0.  0.
         25    2    1    2    0    0 -0.53110629867E+02 -0.45987396494E+02  0.81092090730E+02  0.16473217381E+03  0.12500072908E+03 0.  0.
          5    1    4    4  502    0 -0.38183072866E+02 -0.10801001311E+02  0.10970528696E+03  0.11675593634E+03  0.47000000000E+01 0. -1.
         -5    1    4    4    0  502 -0.14927557001E+02 -0.35186395183E+02 -0.28613196230E+02  0.47976237477E+02  0.47000000000E+01 0. -1.
          5    1    3    3  503    0  0.24658293083E+02 -0.92954964501E+01 -0.35300694026E+02  0.44301993982E+02  0.47000000000E+01 0. -1.
         -5    1    3    3    0  503  0.28452336783E+02  0.55282892944E+02  0.89309920306E+02  0.10892238331E+03  0.47000000000E+01 0. -1.
<mgrwt>
<rscale>  0 0.14339020E+03</rscale>
<asrwt>0</asrwt>
<pdfrwt beam="1">  1        5 0.34850605E-01 0.14339024E+03</pdfrwt>
<pdfrwt beam="2">  1       -5 0.14065787E-01 0.14339024E+03</pdfrwt>
<totfact> 0.25802696E+02</totfact>
</mgrwt>
</event>
<event>
 8    1  0.3488953E-007  0.1263795E+03  0.7546771E-02  0.1232931E+00
          5   -1    0    0  501    0  0.00000000000E+00  0.00000000000E+00  0.20220262449E+03  0.20225724054E+03  0.47000000000E+01 0.  1.
         -5   -1    0    0    0  501 -0.00000000000E+00 -0.00000000000E+00 -0.10993217875E+03  0.11003260392E+03  0.47000000000E+01 0.  1.
         25    2    1    2    0    0  0.16014390349E+02  0.94593438532E+01 -0.36824472618E+02  0.13163517763E+03  0.12500335324E+03 0.  0.
         25    2    1    2    0    0 -0.16014390349E+02 -0.94593438532E+01  0.12909491835E+03  0.18065466684E+03  0.12499868327E+03 0.  0.
          5    1    4    4  502    0  0.40917927059E+01  0.52930033076E+02  0.28340251121E+02  0.60362165324E+02  0.47000000000E+01 0. -1.
         -5    1    4    4    0  502 -0.20106183055E+02 -0.62389376930E+02  0.10075466723E+03  0.12029250151E+03  0.47000000000E+01 0. -1.
          5    1    3    3  503    0 -0.33431824964E+02  0.54578862197E+01  0.31886108290E+02  0.46757773090E+02  0.47000000000E+01 0.  1.
         -5    1    3    3    0  503  0.49446215313E+02  0.40014576335E+01 -0.68710580908E+02  0.84877404536E+02  0.47000000000E+01 0.  1.
<mgrwt>
<rscale>  0 0.12637835E+03</rscale>
<asrwt>0</asrwt>
<pdfrwt beam="1">  1        5 0.31120022E-01 0.12637950E+03</pdfrwt>
<pdfrwt beam="2">  1       -5 0.16924569E-01 0.12637950E+03</pdfrwt>
<totfact> 0.22107287E+02</totfact>
</mgrwt>
</event>
<event>
 8    1  0.3488953E-007  0.1272846E+03  0.7546771E-02  0.1231548E+00
          5   -1    0    0  501    0  0.00000000000E+00  0.00000000000E+00  0.45599311347E+02  0.45840889993E+02  0.47000000000E+01 0. -1.
         -5   -1    0    0    0  501 -0.00000000000E+00 -0.00000000000E+00 -0.36810446058E+03  0.36813446443E+03  0.47000000000E+01 0. -1.
         25    2    1    2    0    0  0.61972577887E+00 -0.23974003476E+02 -0.20168642415E+03  0.23849271441E+03  0.12500489685E+03 0.  0.
         25    2    1    2    0    0 -0.61972577887E+00  0.23974003476E+02 -0.12081872509E+03  0.17548264001E+03  0.12498742221E+03 0.  0.
          5    1    3    3  502    0 -0.46730750622E+02 -0.32066810816E+02 -0.39409559942E+02  0.69189932970E+02  0.47000000000E+01 0. -1.
         -5    1    3    3    0  502  0.47350476401E+02  0.80928073398E+01 -0.16227686421E+03  0.16930278144E+03  0.47000000000E+01 0. -1.
          5    1    4    4  503    0 -0.42591855311E+02 -0.29000220020E+02 -0.23314629486E+02  0.56751571327E+02  0.47000000000E+01 0. -1.
         -5    1    4    4    0  503  0.41972129532E+02  0.52974223496E+02 -0.97504095601E+02  0.11873106869E+03  0.47000000000E+01 0. -1.
<mgrwt>
<rscale>  0 0.12728028E+03</rscale>
<asrwt>0</asrwt>
<pdfrwt beam="1">  1        5 0.70361699E-02 0.12728457E+03</pdfrwt>
<pdfrwt beam="2">  1       -5 0.56652344E-01 0.12728457E+03</pdfrwt>
<totfact> 0.30183644E+02</totfact>
</mgrwt>
</event>
<event>
 8    1  0.3488953E-007  0.1283542E+03  0.7546771E-02  0.1229921E+00
          5   -1    0    0  501    0  0.00000000000E+00  0.00000000000E+00  0.10645863234E+03  0.10656233105E+03  0.47000000000E+01 0. -1.
         -5   -1    0    0    0  501 -0.00000000000E+00 -0.00000000000E+00 -0.15579496277E+03  0.15586584111E+03  0.47000000000E+01 0. -1.
         25    2    1    2    0    0  0.28502603394E+01  0.29018588206E+02 -0.36489634398E+02  0.13344022029E+03  0.12499838609E+03 0.  0.
         25    2    1    2    0    0 -0.28502603394E+01 -0.29018588206E+02 -0.12846696036E+02  0.12898795188E+03  0.12499060639E+03 0.  0.
          5    1    3    3  502    0  0.21535438415E+02 -0.30599024654E+02  0.25324860861E+02  0.45425917659E+02  0.47000000000E+01 0. -1.
         -5    1    3    3    0  502 -0.18685178076E+02  0.59617612860E+02 -0.61814495260E+02  0.88014302628E+02  0.47000000000E+01 0. -1.
          5    1    4    4  503    0  0.41549932433E+02 -0.32830497920E+02 -0.48315967017E+02  0.71838437815E+02  0.47000000000E+01 0.  1.
         -5    1    4    4    0  503 -0.44400192773E+02  0.38119097135E+01  0.35469270981E+02  0.57149514065E+02  0.47000000000E+01 0.  1.
<mgrwt>
<rscale>  0 0.12835230E+03</rscale>
<asrwt>0</asrwt>
<pdfrwt beam="1">  1        5 0.16391680E-01 0.12835419E+03</pdfrwt>
<pdfrwt beam="2">  1       -5 0.23981885E-01 0.12835419E+03</pdfrwt>
<totfact> 0.39029893E+02</totfact>
</mgrwt>
</event>
<event>
 8    1  0.3488953E-007  0.1341243E+03  0.7546771E-02  0.1221462E+00
         -5   -1    0    0    0  501 -0.00000000000E+00  0.00000000000E+00  0.19076157320E+02  0.19646622562E+02  0.47000000000E+01 0. -1.
          5   -1    0    0  501    0  0.00000000000E+00 -0.00000000000E+00 -0.93447730593E+03  0.93448912529E+03  0.47000000000E+01 0. -1.
         25    2    1    2    0    0 -0.30428970044E+02  0.37913240859E+02 -0.41967715468E+03  0.44058850880E+03  0.12500393546E+03 0.  0.
         25    2    1    2    0    0  0.30428970044E+02 -0.37913240859E+02 -0.49572399393E+03  0.51354723905E+03  0.12500061012E+03 0.  0.
          5    1    4    4  502    0 -0.55053514941E+01 -0.63265774107E+02 -0.12589824502E+03  0.14108623309E+03  0.47000000000E+01 0.  1.
         -5    1    4    4    0  502  0.35934321538E+02  0.25352533248E+02 -0.36982574891E+03  0.37246100596E+03  0.47000000000E+01 0.  1.
          5    1    3    3  503    0 -0.63254639436E+02  0.34801903957E+02 -0.12813084396E+03  0.14714593132E+03  0.47000000000E+01 0.  1.
         -5    1    3    3    0  503  0.32825669392E+02  0.31113369020E+01 -0.29154631072E+03  0.29344257748E+03  0.47000000000E+01 0.  1.
<mgrwt>
<rscale>  0 0.13412350E+03</rscale>
<asrwt>0</asrwt>
<pdfrwt beam="2">  1        5 0.14381050E+00 0.13412427E+03</pdfrwt>
<pdfrwt beam="1">  1       -5 0.29795853E-02 0.13412427E+03</pdfrwt>
<totfact> 0.13738361E+02</totfact>
</mgrwt>
</event>
<event>
 8    1  0.3488953E-007  0.1334784E+03  0.7546771E-02  0.1222388E+00
         -5   -1    0    0    0  501 -0.00000000000E+00  0.00000000000E+00  0.30069211009E+03  0.30072883977E+03  0.47000000000E+01 0. -1.
          5   -1    0    0  501    0  0.00000000000E+00 -0.00000000000E+00 -0.59461307976E+02  0.59646769788E+02  0.47000000000E+01 0. -1.
         25    2    1    2    0    0  0.21350451865E+02 -0.41641342242E+02  0.13438380704E+03  0.18940825359E+03  0.12500654285E+03 0.  0.
         25    2    1    2    0    0 -0.21350451865E+02  0.41641342242E+02  0.10684699508E+03  0.17096735597E+03  0.12499485298E+03 0.  0.
          5    1    3    3  502    0 -0.29057778147E+02 -0.10796028239E+02  0.12562869881E+03  0.12948192407E+03  0.47000000000E+01 0.  1.
         -5    1    3    3    0  502  0.50408230012E+02 -0.30845314003E+02  0.87551082224E+01  0.59926329513E+02  0.47000000000E+01 0.  1.
          5    1    4    4  503    0 -0.23059907156E+02 -0.42814221509E+02  0.38217112017E+02  0.62027852876E+02  0.47000000000E+01 0. -1.
         -5    1    4    4    0  503  0.17094552905E+01  0.84455563751E+02  0.68629883059E+02  0.10893950310E+03  0.47000000000E+01 0. -1.
<mgrwt>
<rscale>  0 0.13347565E+03</rscale>
<asrwt>0</asrwt>
<pdfrwt beam="2">  1        5 0.91649853E-02 0.13347838E+03</pdfrwt>
<pdfrwt beam="1">  1       -5 0.46277415E-01 0.13347838E+03</pdfrwt>
<totfact> 0.30009675E+02</totfact>
</mgrwt>
</event>
<event>
 8    1  0.3488953E-007  0.1470722E+03  0.7546771E-02  0.1204131E+00
         -5   -1    0    0    0  501 -0.00000000000E+00  0.00000000000E+00  0.19150722556E+03  0.19156489094E+03  0.47000000000E+01 0.  1.
          5   -1    0    0  501    0  0.00000000000E+00 -0.00000000000E+00 -0.11312343584E+03  0.11322103045E+03  0.47000000000E+01 0.  1.
         25    2    1    2    0    0  0.64789200877E+02  0.42353534598E+02  0.47446159302E+02  0.15449500228E+03  0.12500442093E+03 0.  0.
         25    2    1    2    0    0 -0.64789200877E+02 -0.42353534598E+02  0.30937630421E+02  0.15029091912E+03  0.12505503169E+03 0.  0.
          5    1    4    4  502    0 -0.22312535690E+02 -0.70280744833E+02 -0.21654938466E+02  0.76995186234E+02  0.47000000000E+01 0.  1.
         -5    1    4    4    0  502 -0.42476665187E+02  0.27927210235E+02  0.52592568887E+02  0.73295732884E+02  0.47000000000E+01 0.  1.
          5    1    3    3  503    0  0.49427511289E+02 -0.39193296163E+02  0.27773667026E+02  0.69084440479E+02  0.47000000000E+01 0. -1.
         -5    1    3    3    0  503  0.15361689588E+02  0.81546830761E+02  0.19672492276E+02  0.85410561797E+02  0.47000000000E+01 0. -1.
<mgrwt>
<rscale>  0 0.14706141E+03</rscale>
<asrwt>0</asrwt>
<pdfrwt beam="2">  1        5 0.17415549E-01 0.14707217E+03</pdfrwt>
<pdfrwt beam="1">  1       -5 0.29474593E-01 0.14707217E+03</pdfrwt>
<totfact> 0.24590042E+02</totfact>
</mgrwt>
</event>
<event>
 8    1  0.3488953E-007  0.1316043E+03  0.7546771E-02  0.1225097E+00
         -5   -1    0    0    0  501 -0.00000000000E+00  0.00000000000E+00  0.50367499498E+03  0.50369692332E+03  0.47000000000E+01 0. -1.
          5   -1    0    0  501    0  0.00000000000E+00 -0.00000000000E+00 -0.35190513329E+02  0.35502989006E+02  0.47000000000E+01 0. -1.
         25    2    1    2    0    0 -0.16434960249E+02 -0.37720096150E+02  0.18925408944E+03  0.23051026807E+03  0.12499983898E+03 0.  0.
         25    2    1    2    0    0  0.16434960249E+02  0.37720096150E+02  0.27923039221E+03  0.30868964426E+03  0.12500708367E+03 0.  0.
          5    1    3    3  502    0  0.31352677932E+02  0.16338188492E+02  0.97246830084E+01  0.36967367722E+02  0.47000000000E+01 0. -1.
         -5    1    3    3    0  502 -0.47787638181E+02 -0.54058284642E+02  0.17952940643E+03  0.19354290035E+03  0.47000000000E+01 0. -1.
          5    1    4    4  503    0 -0.47964868257E+02  0.16288684320E+02  0.18874285608E+03  0.19547865751E+03  0.47000000000E+01 0. -1.
         -5    1    4    4    0  503  0.64399828505E+02  0.21431411830E+02  0.90487536130E+02  0.11321098674E+03  0.47000000000E+01 0. -1.
<mgrwt>
<rscale>  0 0.13160255E+03</rscale>
<asrwt>0</asrwt>
<pdfrwt beam="2">  1        5 0.54396486E-02 0.13160427E+03</pdfrwt>
<pdfrwt beam="1">  1       -5 0.77514183E-01 0.13160427E+03</pdfrwt>
<totfact> 0.23426611E+02</totfact>
</mgrwt>
</event>
<event>
 8    1  0.3488953E-007  0.1314988E+03  0.7546771E-02  0.1225249E+00
         -5   -1    0    0    0  501 -0.00000000000E+00  0.00000000000E+00  0.20752519351E+02  0.21278088717E+02  0.47000000000E+01 0.  1.
          5   -1    0    0  501    0  0.00000000000E+00 -0.00000000000E+00 -0.94102001124E+03  0.94103174843E+03  0.47000000000E+01 0.  1.
         25    2    1    2    0    0 -0.18468183155E+02  0.36403469283E+02 -0.28927377476E+03  0.31775975284E+03  0.12500262954E+03 0.  0.
         25    2    1    2    0    0  0.18468183155E+02 -0.36403469283E+02 -0.63099371712E+03  0.64455008431E+03  0.12500181506E+03 0.  0.
          5    1    3    3  502    0 -0.28412980894E+02  0.79573638005E+02 -0.21626419241E+03  0.23223167800E+03  0.47000000000E+01 0.  1.
         -5    1    3    3    0  502  0.99447977391E+01 -0.43170168722E+02 -0.73009582353E+02  0.85528074834E+02  0.47000000000E+01 0.  1.
          5    1    4    4  503    0  0.25954796165E+02 -0.35019187090E+02 -0.63369038810E+03  0.63520515810E+03  0.47000000000E+01 0.  1.
         -5    1    4    4    0  503 -0.74866130098E+01 -0.13842821934E+01  0.26966709729E+01  0.93449262108E+01  0.47000000000E+01 0.  1.
<mgrwt>
<rscale>  0 0.13149864E+03</rscale>
<asrwt>0</asrwt>
<pdfrwt beam="2">  1        5 0.14481361E+00 0.13149884E+03</pdfrwt>
<pdfrwt beam="1">  1       -5 0.32340273E-02 0.13149884E+03</pdfrwt>
<totfact> 0.11735535E+02</totfact>
</mgrwt>
</event>
<event>
 8    1  0.3488953E-007  0.1530021E+03  0.7546771E-02  0.1196850E+00
          5   -1    0    0  501    0  0.00000000000E+00  0.00000000000E+00  0.16119831475E+03  0.16126681828E+03  0.47000000000E+01 0.  1.
         -5   -1    0    0    0  501 -0.00000000000E+00 -0.00000000000E+00 -0.16699346786E+03  0.16705959508E+03  0.47000000000E+01 0.  1.
         25    2    1    2    0    0  0.71589335772E+02  0.51355824832E+02 -0.62410172405E+02  0.16518565902E+03  0.12501527341E+03 0.  0.
         25    2    1    2    0    0 -0.71589335772E+02 -0.51355824832E+02  0.56615019293E+02  0.16314075434E+03  0.12508873481E+03 0.  0.
          5    1    3    3  502    0  0.10061597699E+03  0.22700593409E+02 -0.18187512469E+02  0.10484162998E+03  0.47000000000E+01 0. -1.
         -5    1    3    3    0  502 -0.29026641221E+02  0.28655231423E+02 -0.44222659936E+02  0.60344029036E+02  0.47000000000E+01 0. -1.
          5    1    4    4  503    0 -0.16449821800E+02 -0.47550559487E+02 -0.31114885299E+02  0.59345416267E+02  0.47000000000E+01 0. -1.
         -5    1    4    4    0  503 -0.55139513972E+02 -0.38052653457E+01  0.87729904593E+02  0.10379533807E+03  0.47000000000E+01 0. -1.
<mgrwt>
<rscale>  0 0.15298709E+03</rscale>
<asrwt>0</asrwt>
<pdfrwt beam="1">  1        5 0.24810097E-01 0.15300211E+03</pdfrwt>
<pdfrwt beam="2">  1       -5 0.25701659E-01 0.15300211E+03</pdfrwt>
<totfact> 0.16725728E+02</totfact>
</mgrwt>
</event>
<event>
 8    1  0.3488953E-007  0.1251943E+03  0.7546771E-02  0.1234772E+00
         -5   -1    0    0    0  501 -0.00000000000E+00  0.00000000000E+00  0.32613096651E+02  0.32950023872E+02  0.47000000000E+01 0.  1.
          5   -1    0    0  501    0  0.00000000000E+00 -0.00000000000E+00 -0.54099803658E+03  0.54101845217E+03  0.47000000000E+01 0.  1.
         25    2    1    2    0    0  0.25956285395E+01 -0.64432125767E+01 -0.15606057580E+03  0.20006198537E+03  0.12498656887E+03 0.  0.
         25    2    1    2    0    0 -0.25956285395E+01  0.64432125767E+01 -0.35232436413E+03  0.37390649067E+03  0.12500141569E+03 0.  0.
          5    1    4    4  502    0 -0.60284567467E+02  0.17633827758E+02 -0.22402949448E+03  0.23271546007E+03  0.47000000000E+01 0. -1.
         -5    1    4    4    0  502  0.57688938928E+02 -0.11190615181E+02 -0.12829486965E+03  0.14119103060E+03  0.47000000000E+01 0. -1.
          5    1    3    3  503    0  0.42336983632E+02 -0.15017136474E+02 -0.72732189561E+01  0.45748489428E+02  0.47000000000E+01 0.  1.
         -5    1    3    3    0  503 -0.39741355092E+02  0.85739238975E+01 -0.14878735684E+03  0.15431349595E+03  0.47000000000E+01 0.  1.
<mgrwt>
<rscale>  0 0.12519057E+03</rscale>
<asrwt>0</asrwt>
<pdfrwt beam="2">  1        5 0.83257949E-01 0.12519427E+03</pdfrwt>
<pdfrwt beam="1">  1       -5 0.50448878E-02 0.12519427E+03</pdfrwt>
<totfact> 0.22112885E+02</totfact>
</mgrwt>
</event>
<event>
 8    1  0.3488953E-007  0.1429443E+03  0.7546771E-02  0.1209425E+00
         -5   -1    0    0    0  501 -0.00000000000E+00  0.00000000000E+00  0.47160517359E+03  0.47162859303E+03  0.47000000000E+01 0.  1.
          5   -1    0    0  501    0  0.00000000000E+00 -0.00000000000E+00 -0.50267794391E+02  0.50487039455E+02  0.47000000000E+01 0.  1.
         25    2    1    2    0    0 -0.64456752039E+02 -0.25568298383E+02  0.30849659724E+03  0.33999997591E+03  0.12498568858E+03 0.  0.
         25    2    1    2    0    0  0.64456752039E+02  0.25568298383E+02  0.11284078197E+03  0.18211565657E+03  0.12499863810E+03 0.  0.
          5    1    3    3  502    0 -0.69716876675E+02  0.35092388545E+02  0.21025917939E+03  0.22432773155E+03  0.47000000000E+01 0.  1.
         -5    1    3    3    0  502  0.52601246363E+01 -0.60660686928E+02  0.98237417848E+02  0.11567224436E+03  0.47000000000E+01 0.  1.
          5    1    4    4  503    0  0.76442948562E+02  0.65627439205E+02  0.80491515955E+02  0.12904053356E+03  0.47000000000E+01 0.  1.
         -5    1    4    4    0  503 -0.11986196524E+02 -0.40059140822E+02  0.32349266010E+02  0.53075123004E+02  0.47000000000E+01 0.  1.
<mgrwt>
<rscale>  0 0.14294146E+03</rscale>
<asrwt>0</asrwt>
<pdfrwt beam="2">  1        5 0.77521734E-02 0.14294429E+03</pdfrwt>
<pdfrwt beam="1">  1       -5 0.72573308E-01 0.14294429E+03</pdfrwt>
<totfact> 0.15382763E+02</totfact>
</mgrwt>
</event>
<event>
 8    1  0.3488953E-007  0.1411641E+03  0.7546771E-02  0.1211772E+00
         -5   -1    0    0    0  501 -0.00000000000E+00  0.00000000000E+00  0.20748739069E+03  0.20754061601E+03  0.47000000000E+01 0.  1.
          5   -1    0    0  501    0  0.00000000000E+00 -0.00000000000E+00 -0.10597274937E+03  0.10607692308E+03  0.47000000000E+01 0.  1.
         25    2    1    2    0    0 -0.32161218255E+01  0.65511677685E+02  0.99028055329E+02  0.17243509293E+03  0.12500072871E+03 0.  0.
         25    2    1    2    0    0  0.32161218255E+01 -0.65511677685E+02  0.24865859857E+01  0.14118244616E+03  0.12499670652E+03 0.  0.
          5    1    4    4  502    0 -0.54367351507E+02 -0.38327519262E+02  0.28129082149E+02  0.72375015753E+02  0.47000000000E+01 0.  1.
         -5    1    4    4    0  502  0.57583473333E+02 -0.27184158423E+02 -0.25642496163E+02  0.68807430410E+02  0.47000000000E+01 0.  1.
          5    1    3    3  503    0 -0.51756775303E+02 -0.80779221697E+01  0.31693205795E+02  0.61404933922E+02  0.47000000000E+01 0.  1.
         -5    1    3    3    0  503  0.48540653477E+02  0.73589599854E+02  0.67334849534E+02  0.11103015900E+03  0.47000000000E+01 0.  1.
<mgrwt>
<rscale>  0 0.14116322E+03</rscale>
<asrwt>0</asrwt>
<pdfrwt beam="2">  1        5 0.16315608E-01 0.14116411E+03</pdfrwt>
<pdfrwt beam="1">  1       -5 0.31933244E-01 0.14116411E+03</pdfrwt>
<totfact> 0.23344345E+02</totfact>
</mgrwt>
</event>
<event>
 8    1  0.3488953E-007  0.1276654E+03  0.7546771E-02  0.1230980E+00
          5   -1    0    0  501    0  0.00000000000E+00  0.00000000000E+00  0.89597471464E+02  0.89720660345E+02  0.47000000000E+01 0. -1.
         -5   -1    0    0    0  501 -0.00000000000E+00 -0.00000000000E+00 -0.18779503981E+03  0.18785384473E+03  0.47000000000E+01 0. -1.
         25    2    1    2    0    0 -0.13662491744E+02 -0.22102005613E+02 -0.23829189375E+02  0.12987027085E+03  0.12499317842E+03 0.  0.
         25    2    1    2    0    0  0.13662491744E+02  0.22102005613E+02 -0.74368378973E+02  0.14770423422E+03  0.12494287768E+03 0.  0.
          5    1    4    4  502    0 -0.48619385040E+02 -0.18607159658E+02 -0.38818660123E+02  0.65107982352E+02  0.47000000000E+01 0. -1.
         -5    1    4    4    0  502  0.62281876784E+02  0.40709165270E+02 -0.35549718850E+02  0.82596251871E+02  0.47000000000E+01 0. -1.
          5    1    3    3  503    0 -0.15549578585E+02  0.40354399559E+02 -0.46085445435E+02  0.63373695165E+02  0.47000000000E+01 0.  1.
         -5    1    3    3    0  503  0.18870868415E+01 -0.62456405171E+02  0.22256256059E+02  0.66496575682E+02  0.47000000000E+01 0.  1.
<mgrwt>
<rscale>  0 0.12765310E+03</rscale>
<asrwt>0</asrwt>
<pdfrwt beam="1">  1        5 0.13798226E-01 0.12766541E+03</pdfrwt>
<pdfrwt beam="2">  1       -5 0.28905544E-01 0.12766541E+03</pdfrwt>
<totfact> 0.37118498E+02</totfact>
</mgrwt>
</event>
<event>
 8    1  0.3488953E-007  0.1519979E+03  0.7546771E-02  0.1198043E+00
         -5   -1    0    0    0  501 -0.00000000000E+00  0.00000000000E+00  0.11156214064E+03  0.11166109987E+03  0.47000000000E+01 0. -1.
          5   -1    0    0  501    0  0.00000000000E+00 -0.00000000000E+00 -0.22296360197E+03  0.22301313370E+03  0.47000000000E+01 0. -1.
         25    2    1    2    0    0 -0.67810251572E+02 -0.53665879511E+02 -0.10734509685E+02  0.15236355437E+03  0.12498466369E+03 0.  0.
         25    2    1    2    0    0  0.67810251572E+02  0.53665879511E+02 -0.10066695165E+03  0.18231067920E+03  0.12500036702E+03 0.  0.
          5    1    3    3  502    0  0.23054874541E+02 -0.55544308915E+02  0.26396489812E+01  0.60380089762E+02  0.47000000000E+01 0. -1.
         -5    1    3    3    0  502 -0.90865126113E+02  0.18784294044E+01 -0.13374158666E+02  0.91983464604E+02  0.47000000000E+01 0. -1.
          5    1    4    4  503    0 -0.34907734393E+02  0.25900474480E+01 -0.36475980696E+02  0.50772486979E+02  0.47000000000E+01 0. -1.
         -5    1    4    4    0  503  0.10271798597E+03  0.51075832062E+02 -0.64190970957E+02  0.13153819223E+03  0.47000000000E+01 0. -1.
<mgrwt>
<rscale>  0 0.15199463E+03</rscale>
<asrwt>0</asrwt>
<pdfrwt beam="2">  1        5 0.34313515E-01 0.15199786E+03</pdfrwt>
<pdfrwt beam="1">  1       -5 0.17174829E-01 0.15199786E+03</pdfrwt>
<totfact> 0.18872275E+02</totfact>
</mgrwt>
</event>
<event>
 8    1  0.3488953E-007  0.1745918E+03  0.7546771E-02  0.1173143E+00
         -5   -1    0    0    0  501 -0.00000000000E+00  0.00000000000E+00  0.11027794636E+03  0.11037805694E+03  0.47000000000E+01 0.  1.
          5   -1    0    0  501    0  0.00000000000E+00 -0.00000000000E+00 -0.29055358821E+03  0.29059159937E+03  0.47000000000E+01 0.  1.
         25    2    1    2    0    0  0.29287259624E+02 -0.11831550659E+03 -0.45527076965E+02  0.18042609511E+03  0.12499823352E+03 0.  0.
         25    2    1    2    0    0 -0.29287259624E+02  0.11831550659E+03 -0.13474856489E+03  0.22054356119E+03  0.12500393582E+03 0.  0.
          5    1    3    3  502    0  0.86068471738E+01  0.25495570503E+02 -0.17330655874E+02  0.32350325602E+02  0.47000000000E+01 0.  1.
         -5    1    3    3    0  502  0.20680412450E+02 -0.14381107709E+03 -0.28196421091E+02  0.14807576951E+03  0.47000000000E+01 0.  1.
          5    1    4    4  503    0 -0.34191526738E+02  0.14007509737E+03 -0.13524098323E+03  0.19774303262E+03  0.47000000000E+01 0.  1.
         -5    1    4    4    0  503  0.49042671146E+01 -0.21759590789E+02  0.49241834725E+00  0.22800528570E+02  0.47000000000E+01 0.  1.
<mgrwt>
<rscale>  0 0.17459075E+03</rscale>
<asrwt>0</asrwt>
<pdfrwt beam="2">  1        5 0.44711176E-01 0.17459177E+03</pdfrwt>
<pdfrwt beam="1">  1       -5 0.16976463E-01 0.17459177E+03</pdfrwt>
<totfact> 0.11710541E+02</totfact>
</mgrwt>
</event>
<event>
 8    1  0.3488953E-007  0.2116242E+03  0.7546771E-02  0.1140286E+00
         -5   -1    0    0    0  501 -0.00000000000E+00  0.00000000000E+00  0.44106086892E+02  0.44355798955E+02  0.47000000000E+01 0.  1.
          5   -1    0    0  501    0  0.00000000000E+00 -0.00000000000E+00 -0.10189240993E+04  0.10189349391E+04  0.47000000000E+01 0.  1.
         25    2    1    2    0    0 -0.38047351574E+02 -0.16647010540E+03 -0.44441883681E+03  0.49223201288E+03  0.12499742010E+03 0.  0.
         25    2    1    2    0    0  0.38047351574E+02  0.16647010540E+03 -0.53039917559E+03  0.57105872518E+03  0.12499954076E+03 0.  0.
          5    1    3    3  502    0  0.16874910424E+02  0.14274673703E+02 -0.43875788631E+02  0.49352849351E+02  0.47000000000E+01 0. -1.
         -5    1    3    3    0  502 -0.54922261998E+02 -0.18074477910E+03 -0.40054304818E+03  0.44287916352E+03  0.47000000000E+01 0. -1.
          5    1    4    4  503    0  0.69280025336E+01  0.11844386208E+03 -0.48060432150E+03  0.49505509747E+03  0.47000000000E+01 0.  1.
         -5    1    4    4    0  503  0.31119349040E+02  0.48026243319E+02 -0.49794854083E+02  0.76003627710E+02  0.47000000000E+01 0.  1.
<mgrwt>
<rscale>  0 0.21162384E+03</rscale>
<asrwt>0</asrwt>
<pdfrwt beam="2">  1        5 0.15677758E+00 0.21162415E+03</pdfrwt>
<pdfrwt beam="1">  1       -5 0.68055950E-02 0.21162415E+03</pdfrwt>
<totfact> 0.31263867E+01</totfact>
</mgrwt>
</event>
<event>
 8    1  0.3488953E-007  0.1324692E+03  0.7546771E-02  0.1223838E+00
          5   -1    0    0  501    0  0.00000000000E+00  0.00000000000E+00  0.19220094298E+03  0.19225840029E+03  0.47000000000E+01 0. -1.
         -5   -1    0    0    0  501 -0.00000000000E+00 -0.00000000000E+00 -0.91177941488E+02  0.91298997880E+02  0.47000000000E+01 0. -1.
         25    2    1    2    0    0 -0.35701197962E+02 -0.25478595480E+02  0.48976184808E+02  0.14123047218E+03  0.12499458081E+03 0.  0.
         25    2    1    2    0    0  0.35701197962E+02  0.25478595480E+02  0.52046816681E+02  0.14232692599E+03  0.12499739345E+03 0.  0.
          5    1    4    4  502    0 -0.22322468262E+02  0.45841945483E+02 -0.12858159222E+02  0.52793927810E+02  0.47000000000E+01 0.  1.
         -5    1    4    4    0  502  0.58023666225E+02 -0.20363350003E+02  0.64904975903E+02  0.89532998177E+02  0.47000000000E+01 0.  1.
          5    1    3    3  503    0 -0.62001106749E+02  0.27248394558E+02  0.46082080749E+02  0.82050352895E+02  0.47000000000E+01 0. -1.
         -5    1    3    3    0  503  0.26299908786E+02 -0.52726990037E+02  0.28941040593E+01  0.59180119287E+02  0.47000000000E+01 0. -1.
<mgrwt>
<rscale>  0 0.13246851E+03</rscale>
<asrwt>0</asrwt>
<pdfrwt beam="1">  1        5 0.29583107E-01 0.13246918E+03</pdfrwt>
<pdfrwt beam="2">  1       -5 0.14041108E-01 0.13246918E+03</pdfrwt>
<totfact> 0.34851473E+02</totfact>
</mgrwt>
</event>
<event>
 8    1  0.3488953E-007  0.1475039E+03  0.7546771E-02  0.1203576E+00
         -5   -1    0    0    0  501 -0.00000000000E+00  0.00000000000E+00  0.87155928631E+02  0.87282563525E+02  0.47000000000E+01 0. -1.
          5   -1    0    0  501    0  0.00000000000E+00 -0.00000000000E+00 -0.37902312009E+03  0.37905225967E+03  0.47000000000E+01 0. -1.
         25    2    1    2    0    0 -0.76714107765E+02 -0.15661299675E+02 -0.95489990906E+01  0.14780542797E+03  0.12499972207E+03 0.  0.
         25    2    1    2    0    0  0.76714107765E+02  0.15661299675E+02 -0.28231819237E+03  0.31852939523E+03  0.12500833270E+03 0.  0.
          5    1    4    4  502    0  0.48776344528E+02  0.62583353252E+02 -0.97714380173E+02  0.12596030320E+03  0.47000000000E+01 0. -1.
         -5    1    4    4    0  502  0.27937763237E+02 -0.46922053577E+02 -0.18460381220E+03  0.19256909203E+03  0.47000000000E+01 0. -1.
          5    1    3    3  503    0 -0.82151770690E+02 -0.20970282963E+02  0.42525869186E+02  0.94969499025E+02  0.47000000000E+01 0.  1.
         -5    1    3    3    0  503  0.54376629245E+01  0.53089832883E+01 -0.52074868277E+02  0.52835928947E+02  0.47000000000E+01 0.  1.
<mgrwt>
<rscale>  0 0.14750212E+03</rscale>
<asrwt>0</asrwt>
<pdfrwt beam="2">  1        5 0.58323231E-01 0.14750395E+03</pdfrwt>
<pdfrwt beam="1">  1       -5 0.13420587E-01 0.14750395E+03</pdfrwt>
<totfact> 0.96682579E+01</totfact>
</mgrwt>
</event>
<event>
 8    1  0.3488953E-007  0.1299522E+03  0.7546771E-02  0.1227528E+00
          5   -1    0    0  501    0  0.00000000000E+00  0.00000000000E+00  0.10089168573E+04  0.10089278046E+04  0.47000000000E+01 0. -1.
         -5   -1    0    0    0  501 -0.00000000000E+00 -0.00000000000E+00 -0.26496174639E+02  0.26909798783E+02  0.47000000000E+01 0. -1.
         25    2    1    2    0    0 -0.29562115153E+02  0.19682543928E+02  0.17471458232E+03  0.21774468630E+03  0.12500496770E+03 0.  0.
         25    2    1    2    0    0  0.29562115153E+02 -0.19682543928E+02  0.80770610036E+03  0.81809291712E+03  0.12500222120E+03 0.  0.
          5    1    3    3  502    0 -0.10472311874E+02 -0.42416027912E+02  0.17012191948E+02  0.47119989545E+02  0.47000000000E+01 0.  1.
         -5    1    3    3    0  502 -0.19089803279E+02  0.62098571840E+02  0.15770239038E+03  0.17062469676E+03  0.47000000000E+01 0.  1.
          5    1    4    4  503    0  0.50709309679E+02  0.12418213506E+02  0.14376319734E+03  0.15302154432E+03  0.47000000000E+01 0. -1.
         -5    1    4    4    0  503 -0.21147194526E+02 -0.32100757434E+02  0.66394290301E+03  0.66507137281E+03  0.47000000000E+01 0. -1.
<mgrwt>
<rscale>  0 0.12995150E+03</rscale>
<asrwt>0</asrwt>
<pdfrwt beam="1">  1        5 0.15525064E+00 0.12995216E+03</pdfrwt>
<pdfrwt beam="2">  1       -5 0.41089940E-02 0.12995216E+03</pdfrwt>
<totfact> 0.65472990E+01</totfact>
</mgrwt>
</event>
<event>
 8    1  0.3488953E-007  0.1372577E+03  0.7546771E-02  0.1217067E+00
         -5   -1    0    0    0  501 -0.00000000000E+00  0.00000000000E+00  0.86134400722E+02  0.86262535249E+02  0.47000000000E+01 0. -1.
          5   -1    0    0  501    0  0.00000000000E+00 -0.00000000000E+00 -0.23412176991E+03  0.23416894146E+03  0.47000000000E+01 0. -1.
         25    2    1    2    0    0  0.43932223931E+02 -0.35841035253E+02 -0.32501658099E+02  0.14105303431E+03  0.12499992240E+03 0.  0.
         25    2    1    2    0    0 -0.43932223931E+02  0.35841035253E+02 -0.11548571109E+03  0.17937844240E+03  0.12500022410E+03 0.  0.
          5    1    4    4  502    0 -0.41220532788E+01  0.57574021780E+02 -0.12031218110E+03  0.13352479256E+03  0.47000000000E+01 0. -1.
         -5    1    4    4    0  502 -0.39810170652E+02 -0.21732986527E+02  0.48264700158E+01  0.45853649839E+02  0.47000000000E+01 0. -1.
          5    1    3    3  503    0 -0.40577613689E+02  0.40650802620E+01  0.25443513267E+01  0.41129446069E+02  0.47000000000E+01 0. -1.
         -5    1    3    3    0  503  0.84509837620E+02 -0.39906115515E+02 -0.35046009426E+02  0.99923588240E+02  0.47000000000E+01 0. -1.
<mgrwt>
<rscale>  0 0.13725763E+03</rscale>
<asrwt>0</asrwt>
<pdfrwt beam="2">  1        5 0.36032219E-01 0.13725770E+03</pdfrwt>
<pdfrwt beam="1">  1       -5 0.13264931E-01 0.13725770E+03</pdfrwt>
<totfact> 0.26414349E+02</totfact>
</mgrwt>
</event>
<event>
 8    1  0.3488953E-007  0.1690297E+03  0.7546771E-02  0.1178865E+00
         -5   -1    0    0    0  501 -0.00000000000E+00  0.00000000000E+00  0.98150530719E+02  0.98262997514E+02  0.47000000000E+01 0. -1.
          5   -1    0    0  501    0  0.00000000000E+00 -0.00000000000E+00 -0.30767030060E+03  0.30770619732E+03  0.47000000000E+01 0. -1.
         25    2    1    2    0    0 -0.86488595668E+02 -0.73916893056E+02 -0.57215065085E+02  0.17844385990E+03  0.12499865281E+03 0.  0.
         25    2    1    2    0    0  0.86488595668E+02  0.73916893056E+02 -0.15230470479E+03  0.22752533493E+03  0.12500828243E+03 0.  0.
          5    1    3    3  502    0 -0.69795184616E+02 -0.37876278162E+02  0.27980864545E+02  0.84326739671E+02  0.47000000000E+01 0.  1.
         -5    1    3    3    0  502 -0.16693411052E+02 -0.36040614895E+02 -0.85195929629E+02  0.94117120228E+02  0.47000000000E+01 0.  1.
          5    1    4    4  503    0  0.56309288824E+02 -0.25447083252E+02 -0.78616647115E+02  0.10010473144E+03  0.47000000000E+01 0. -1.
         -5    1    4    4    0  503  0.30179306844E+02  0.99363976309E+02 -0.73688057678E+02  0.12742060349E+03  0.47000000000E+01 0. -1.
<mgrwt>
<rscale>  0 0.16902797E+03</rscale>
<asrwt>0</asrwt>
<pdfrwt beam="2">  1        5 0.47345305E-01 0.16902975E+03</pdfrwt>
<pdfrwt beam="1">  1       -5 0.15111494E-01 0.16902975E+03</pdfrwt>
<totfact> 0.12725408E+02</totfact>
</mgrwt>
</event>
<event>
 8    1  0.3488953E-007  0.2108297E+03  0.7546771E-02  0.1140911E+00
         -5   -1    0    0    0  501 -0.00000000000E+00  0.00000000000E+00  0.11464253743E+03  0.11473883993E+03  0.47000000000E+01 0.  1.
          5   -1    0    0  501    0  0.00000000000E+00 -0.00000000000E+00 -0.38789986968E+03  0.38792834248E+03  0.47000000000E+01 0.  1.
         25    2    1    2    0    0 -0.16891443098E+03 -0.17061446741E+02 -0.14524865579E+03  0.25602021473E+03  0.12500400147E+03 0.  0.
         25    2    1    2    0    0  0.16891443098E+03  0.17061446741E+02 -0.12800867647E+03  0.24664696768E+03  0.12500130983E+03 0.  0.
          5    1    3    3  502    0 -0.91206269930E+02  0.21368879866E+02 -0.14068095169E+03  0.16908114286E+03  0.47000000000E+01 0. -1.
         -5    1    3    3    0  502 -0.77708161046E+02 -0.38430326608E+02 -0.45677040958E+01  0.86939071866E+02  0.47000000000E+01 0. -1.
          5    1    4    4  503    0  0.39472977654E+02 -0.50795050951E+02 -0.42753183022E+02  0.77383317482E+02  0.47000000000E+01 0. -1.
         -5    1    4    4    0  503  0.12944145332E+03  0.67856497692E+02 -0.85255493445E+02  0.16926365020E+03  0.47000000000E+01 0. -1.
<mgrwt>
<rscale>  0 0.21082934E+03</rscale>
<asrwt>0</asrwt>
<pdfrwt beam="2">  1        5 0.59686501E-01 0.21082974E+03</pdfrwt>
<pdfrwt beam="1">  1       -5 0.17646912E-01 0.21082974E+03</pdfrwt>
<totfact> 0.61807734E+01</totfact>
</mgrwt>
</event>
<event>
 8    1  0.3488953E-007  0.1391362E+03  0.7546771E-02  0.1214508E+00
         -5   -1    0    0    0  501 -0.00000000000E+00  0.00000000000E+00  0.45542465102E+03  0.45544890246E+03  0.47000000000E+01 0.  1.
          5   -1    0    0  501    0  0.00000000000E+00 -0.00000000000E+00 -0.44926025143E+02  0.45171204712E+02  0.47000000000E+01 0.  1.
         25    2    1    2    0    0 -0.17398861351E+02  0.58563146678E+02  0.26508534724E+03  0.29936430298E+03  0.12496552346E+03 0.  0.
         25    2    1    2    0    0  0.17398861351E+02 -0.58563146678E+02  0.14541327864E+03  0.20125580420E+03  0.12500605823E+03 0.  0.
          5    1    3    3  502    0 -0.27732144664E+02  0.40579771545E+02  0.19861310577E+02  0.53219839948E+02  0.47000000000E+01 0.  1.
         -5    1    3    3    0  502  0.10333283313E+02  0.17983375134E+02  0.24522403666E+03  0.24614446303E+03  0.47000000000E+01 0.  1.
          5    1    4    4  503    0 -0.45159702732E+02 -0.59274737352E+02  0.63094049230E+02  0.97753988600E+02  0.47000000000E+01 0. -1.
         -5    1    4    4    0  503  0.62558564083E+02  0.71159067349E+00  0.82319229407E+02  0.10350181560E+03  0.47000000000E+01 0. -1.
<mgrwt>
<rscale>  0 0.13912708E+03</rscale>
<asrwt>0</asrwt>
<pdfrwt beam="2">  1        5 0.69324211E-02 0.13913618E+03</pdfrwt>
<pdfrwt beam="1">  1       -5 0.70086062E-01 0.13913618E+03</pdfrwt>
<totfact> 0.19960731E+02</totfact>
</mgrwt>
</event>
<event>
 8    1  0.3488953E-007  0.2927306E+03  0.7546771E-02  0.1088932E+00
          5   -1    0    0  501    0  0.00000000000E+00  0.00000000000E+00  0.30513966657E+04  0.30514002853E+04  0.47000000000E+01 0.  1.
         -5   -1    0    0    0  501 -0.00000000000E+00 -0.00000000000E+00 -0.31020721676E+02  0.31374753757E+02  0.47000000000E+01 0.  1.
         25    2    1    2    0    0  0.16956783164E+03  0.20325482614E+03  0.10228363730E+04  0.10639002211E+04  0.12499464199E+03 0.  0.
         25    2    1    2    0    0 -0.16956783164E+03 -0.20325482614E+03  0.19975395709E+04  0.20188748180E+04  0.12500167735E+03 0.  0.
          5    1    4    4  502    0 -0.40587851487E+02 -0.14933174984E+02  0.12265584966E+03  0.13014192583E+03  0.47000000000E+01 0.  1.
         -5    1    4    4    0  502 -0.12897998015E+03 -0.18832165115E+03  0.18748837213E+04  0.18887328922E+04  0.47000000000E+01 0.  1.
          5    1    3    3  503    0  0.10725170155E+03  0.87218903215E+02  0.31696998759E+03  0.34583540535E+03  0.47000000000E+01 0.  1.
         -5    1    3    3    0  503  0.62316130095E+02  0.11603592292E+03  0.70586638544E+03  0.71806481572E+03  0.47000000000E+01 0.  1.
<mgrwt>
<rscale>  0 0.29272983E+03</rscale>
<asrwt>0</asrwt>
<pdfrwt beam="1">  1        5 0.46947310E+00 0.29273058E+03</pdfrwt>
<pdfrwt beam="2">  1       -5 0.47999309E-02 0.29273058E+03</pdfrwt>
<totfact> 0.40963799E-01</totfact>
</mgrwt>
</event>
<event>
 8    1  0.3488953E-007  0.1615316E+03  0.7546771E-02  0.1186978E+00
         -5   -1    0    0    0  501 -0.00000000000E+00  0.00000000000E+00  0.25054438239E+03  0.25058846251E+03  0.47000000000E+01 0. -1.
          5   -1    0    0  501    0  0.00000000000E+00 -0.00000000000E+00 -0.10427235892E+03  0.10437822969E+03  0.47000000000E+01 0. -1.
         25    2    1    2    0    0 -0.52670984145E+02 -0.87711068807E+02  0.81569613757E+02  0.18095851617E+03  0.12499967409E+03 0.  0.
         25    2    1    2    0    0  0.52670984145E+02  0.87711068807E+02  0.64702409713E+02  0.17400817604E+03  0.12499991738E+03 0.  0.
          5    1    3    3  502    0 -0.44213813392E+02  0.70756004270E+01 -0.12849537285E+02  0.46820145499E+02  0.47000000000E+01 0. -1.
         -5    1    3    3    0  502 -0.84571707524E+01 -0.94786669234E+02  0.94419151042E+02  0.13413837067E+03  0.47000000000E+01 0. -1.
          5    1    4    4  503    0 -0.77132910059E+01  0.11912726771E+02  0.74966249778E+02  0.76442373871E+02  0.47000000000E+01 0. -1.
         -5    1    4    4    0  503  0.60384275150E+02  0.75798342036E+02 -0.10263840065E+02  0.97565802173E+02  0.47000000000E+01 0. -1.
<mgrwt>
<rscale>  0 0.16153151E+03</rscale>
<asrwt>0</asrwt>
<pdfrwt beam="2">  1        5 0.16053436E-01 0.16153156E+03</pdfrwt>
<pdfrwt beam="1">  1       -5 0.38556824E-01 0.16153156E+03</pdfrwt>
<totfact> 0.17209517E+02</totfact>
</mgrwt>
</event>
<event>
 8    1  0.3488953E-007  0.1351242E+03  0.7546771E-02  0.1220047E+00
          5   -1    0    0  501    0  0.00000000000E+00  0.00000000000E+00  0.32316650746E+02  0.32656636621E+02  0.47000000000E+01 0. -1.
         -5   -1    0    0    0  501 -0.00000000000E+00 -0.00000000000E+00 -0.56797673501E+03  0.56799618089E+03  0.47000000000E+01 0. -1.
         25    2    1    2    0    0 -0.43945136848E+02 -0.26487543519E+02 -0.29949031787E+03  0.32855960545E+03  0.12499679522E+03 0.  0.
         25    2    1    2    0    0  0.43945136848E+02  0.26487543519E+02 -0.23616976639E+03  0.27209321207E+03  0.12500316990E+03 0.  0.
          5    1    4    4  502    0  0.53571742533E+02 -0.25891233860E+02 -0.48348869685E+02  0.76811397517E+02  0.47000000000E+01 0. -1.
         -5    1    4    4    0  502 -0.96266056844E+01  0.52378777379E+02 -0.18782089670E+03  0.19528181455E+03  0.47000000000E+01 0. -1.
          5    1    3    3  503    0  0.30746748338E+02 -0.40285912146E+02 -0.68379708306E+02  0.85241960083E+02  0.47000000000E+01 0.  1.
         -5    1    3    3    0  503 -0.74691885186E+02  0.13798368627E+02 -0.23111060957E+03  0.24331764536E+03  0.47000000000E+01 0.  1.
<mgrwt>
<rscale>  0 0.13512276E+03</rscale>
<asrwt>0</asrwt>
<pdfrwt beam="1">  1        5 0.49994414E-02 0.13512423E+03</pdfrwt>
<pdfrwt beam="2">  1       -5 0.87408678E-01 0.13512423E+03</pdfrwt>
<totfact> 0.20571764E+02</totfact>
</mgrwt>
</event>
<event>
 8    1  0.3488953E-007  0.1559828E+03  0.7546771E-02  0.1193317E+00
         -5   -1    0    0    0  501 -0.00000000000E+00  0.00000000000E+00  0.42485132335E+02  0.42744315055E+02  0.47000000000E+01 0.  1.
          5   -1    0    0  501    0  0.00000000000E+00 -0.00000000000E+00 -0.57514550467E+03  0.57516470819E+03  0.47000000000E+01 0.  1.
         25    2    1    2    0    0 -0.14212770889E+02  0.92215882496E+02 -0.23877618981E+03  0.28520995405E+03  0.12499950891E+03 0.  0.
         25    2    1    2    0    0  0.14212770889E+02 -0.92215882496E+02 -0.29388418252E+03  0.33269906919E+03  0.12495993782E+03 0.  0.
          5    1    3    3  502    0 -0.44558553084E+02  0.13722228725E+02 -0.20354350479E+02  0.51089664293E+02  0.47000000000E+01 0. -1.
         -5    1    3    3    0  502  0.30345782195E+02  0.78493653771E+02 -0.21842183934E+03  0.23412028976E+03  0.47000000000E+01 0. -1.
          5    1    4    4  503    0  0.17721021119E+02 -0.11984026433E+03 -0.26900930339E+03  0.29506578734E+03  0.47000000000E+01 0. -1.
         -5    1    4    4    0  503 -0.35082502300E+01  0.27624381832E+02 -0.24874879129E+02  0.37633281853E+02  0.47000000000E+01 0. -1.
<mgrwt>
<rscale>  0 0.15597492E+03</rscale>
<asrwt>0</asrwt>
<pdfrwt beam="2">  1        5 0.88505333E-01 0.15598285E+03</pdfrwt>
<pdfrwt beam="1">  1       -5 0.65575889E-02 0.15598285E+03</pdfrwt>
<totfact> 0.13276665E+02</totfact>
</mgrwt>
</event>
<event>
 8    1  0.3488953E-007  0.1263738E+03  0.7546771E-02  0.1232944E+00
         -5   -1    0    0    0  501 -0.00000000000E+00  0.00000000000E+00  0.13813308481E+03  0.13821302081E+03  0.47000000000E+01 0. -1.
          5   -1    0    0  501    0  0.00000000000E+00 -0.00000000000E+00 -0.11790960175E+03  0.11800323803E+03  0.47000000000E+01 0. -1.
         25    2    1    2    0    0  0.17800345524E+02 -0.47908729815E+01  0.28644576826E+02  0.12957954929E+03  0.12502217022E+03 0.  0.
         25    2    1    2    0    0 -0.17800345524E+02  0.47908729815E+01 -0.84210937619E+01  0.12663670955E+03  0.12500454640E+03 0.  0.
          5    1    4    4  502    0 -0.48784335832E+02 -0.27109636183E+02 -0.42586804662E+02  0.70360285160E+02  0.47000000000E+01 0. -1.
         -5    1    4    4    0  502  0.30983990307E+02  0.31900509165E+02  0.34165710900E+02  0.56276424386E+02  0.47000000000E+01 0. -1.
          5    1    3    3  503    0  0.51778109872E+02 -0.20804560259E+02  0.58786796798E+02  0.81189776864E+02  0.47000000000E+01 0. -1.
         -5    1    3    3    0  503 -0.33977764348E+02  0.16013687278E+02 -0.30142219972E+02  0.48389772423E+02  0.47000000000E+01 0. -1.
<mgrwt>
<rscale>  0 0.12636948E+03</rscale>
<asrwt>0</asrwt>
<pdfrwt beam="2">  1        5 0.18153291E-01 0.12637384E+03</pdfrwt>
<pdfrwt beam="1">  1       -5 0.21264595E-01 0.12637384E+03</pdfrwt>
<totfact> 0.40394103E+02</totfact>
</mgrwt>
</event>
<event>
 8    1  0.3488953E-007  0.1548116E+03  0.7546771E-02  0.1194684E+00
         -5   -1    0    0    0  501 -0.00000000000E+00  0.00000000000E+00  0.42506463987E+03  0.42509062336E+03  0.47000000000E+01 0.  1.
          5   -1    0    0  501    0  0.00000000000E+00 -0.00000000000E+00 -0.61983831153E+02  0.62161767385E+02  0.47000000000E+01 0.  1.
         25    2    1    2    0    0  0.79336805348E+02  0.45246228733E+02  0.25547088811E+03  0.29871453460E+03  0.12499379428E+03 0.  0.
         25    2    1    2    0    0 -0.79336805348E+02 -0.45246228733E+02  0.10760992060E+03  0.18853785615E+03  0.12500031316E+03 0.  0.
          5    1    4    4  502    0 -0.81957046182E+02 -0.77775119056E+02  0.10681799129E+03  0.15555738435E+03  0.47000000000E+01 0.  1.
         -5    1    4    4    0  502  0.26202408340E+01  0.32528890323E+02  0.79192931100E+00  0.32980471793E+02  0.47000000000E+01 0.  1.
          5    1    3    3  503    0  0.65046672134E+02  0.40634225589E+02  0.26787563660E+03  0.27867841059E+03  0.47000000000E+01 0. -1.
         -5    1    3    3    0  503  0.14290133214E+02  0.46120031433E+01 -0.12404748486E+02  0.20036124008E+02  0.47000000000E+01 0. -1.
<mgrwt>
<rscale>  0 0.15481027E+03</rscale>
<asrwt>0</asrwt>
<pdfrwt beam="2">  1        5 0.95516599E-02 0.15481159E+03</pdfrwt>
<pdfrwt beam="1">  1       -5 0.65410248E-01 0.15481159E+03</pdfrwt>
<totfact> 0.13905447E+02</totfact>
</mgrwt>
</event>
<event>
 8    1  0.3488953E-007  0.1662586E+03  0.7546771E-02  0.1181807E+00
          5   -1    0    0  501    0  0.00000000000E+00  0.00000000000E+00  0.17083022569E+03  0.17089486829E+03  0.47000000000E+01 0. -1.
         -5   -1    0    0    0  501 -0.00000000000E+00 -0.00000000000E+00 -0.24153474050E+03  0.24158046458E+03  0.47000000000E+01 0. -1.
         25    2    1    2    0    0 -0.92724999148E+02 -0.58473914074E+02 -0.15390861176E+03  0.22655909607E+03  0.12499615651E+03 0.  0.
         25    2    1    2    0    0  0.92724999148E+02  0.58473914074E+02  0.83204096954E+02  0.18591623680E+03  0.12499920505E+03 0.  0.
          5    1    4    4  502    0 -0.30639371624E+02  0.58148511502E+01  0.10296061280E+02  0.33176534859E+02  0.47000000000E+01 0.  1.
         -5    1    4    4    0  502  0.12336437077E+03  0.52659062924E+02  0.72908035674E+02  0.15273970194E+03  0.47000000000E+01 0.  1.
          5    1    3    3  503    0 -0.57315522623E+02  0.30626289830E+02 -0.90499131180E+02  0.11151332435E+03  0.47000000000E+01 0. -1.
         -5    1    3    3    0  503 -0.35409476525E+02 -0.89100203903E+02 -0.63409480584E+02  0.11504577172E+03  0.47000000000E+01 0. -1.
<mgrwt>
<rscale>  0 0.16625804E+03</rscale>
<asrwt>0</asrwt>
<pdfrwt beam="1">  1        5 0.26290063E-01 0.16625861E+03</pdfrwt>
<pdfrwt beam="2">  1       -5 0.37167681E-01 0.16625861E+03</pdfrwt>
<totfact> 0.74029982E+01</totfact>
</mgrwt>
</event>
<event>
 8    1  0.3488953E-007  0.2108216E+03  0.7546771E-02  0.1140918E+00
          5   -1    0    0  501    0  0.00000000000E+00  0.00000000000E+00  0.73329889219E+02  0.73480355558E+02  0.47000000000E+01 0. -1.
         -5   -1    0    0    0  501 -0.00000000000E+00 -0.00000000000E+00 -0.65334679338E+03  0.65336369842E+03  0.47000000000E+01 0. -1.
         25    2    1    2    0    0  0.51324302699E+02 -0.16181780216E+03 -0.38853429532E+03  0.44204351374E+03  0.12499753702E+03 0.  0.
         25    2    1    2    0    0 -0.51324302699E+02  0.16181780216E+03 -0.19148260884E+03  0.28480054024E+03  0.12500629220E+03 0.  0.
          5    1    4    4  502    0  0.39268852947E+02  0.69824197244E+02 -0.57850503170E+02  0.98925386274E+02  0.47000000000E+01 0.  1.
         -5    1    4    4    0  502 -0.90593155646E+02  0.91993604912E+02 -0.13363210567E+03  0.18587515396E+03  0.47000000000E+01 0.  1.
          5    1    3    3  503    0  0.60379644437E+02 -0.17295623609E+03 -0.29490742614E+03  0.34720604986E+03  0.47000000000E+01 0.  1.
         -5    1    3    3    0  503 -0.90553417380E+01  0.11138433933E+02 -0.93626869173E+02  0.94837463883E+02  0.47000000000E+01 0.  1.
<mgrwt>
<rscale>  0 0.21082033E+03</rscale>
<asrwt>0</asrwt>
<pdfrwt beam="1">  1        5 0.11294397E-01 0.21082163E+03</pdfrwt>
<pdfrwt beam="2">  1       -5 0.10052776E+00 0.21082163E+03</pdfrwt>
<totfact> 0.41372017E+01</totfact>
</mgrwt>
</event>
<event>
 8    1  0.3488953E-007  0.1302342E+03  0.7546771E-02  0.1227120E+00
         -5   -1    0    0    0  501 -0.00000000000E+00  0.00000000000E+00  0.84037521351E+02  0.84168848126E+02  0.47000000000E+01 0.  1.
          5   -1    0    0  501    0  0.00000000000E+00 -0.00000000000E+00 -0.40258320550E+03  0.40261063989E+03  0.47000000000E+01 0.  1.
         25    2    1    2    0    0  0.32926628046E+02  0.15648256902E+02  0.12710882743E+02  0.13085307092E+03  0.12502771233E+03 0.  0.
         25    2    1    2    0    0 -0.32926628046E+02 -0.15648256902E+02 -0.33125656689E+03  0.35592641710E+03  0.12499468189E+03 0.  0.
          5    1    4    4  502    0 -0.43415190862E+02 -0.60126452326E+01 -0.27833198990E+02  0.52132596965E+02  0.47000000000E+01 0.  1.
         -5    1    4    4    0  502  0.10488562817E+02 -0.96356116693E+01 -0.30342336790E+03  0.30379382013E+03  0.47000000000E+01 0.  1.
          5    1    3    3  503    0  0.50442266527E+02 -0.16085435687E+02  0.53958535098E+02  0.75741514400E+02  0.47000000000E+01 0. -1.
         -5    1    3    3    0  503 -0.17515638482E+02  0.31733692589E+02 -0.41247652355E+02  0.55111556515E+02  0.47000000000E+01 0. -1.
<mgrwt>
<rscale>  0 0.13022632E+03</rscale>
<asrwt>0</asrwt>
<pdfrwt beam="2">  1        5 0.61948089E-01 0.13023425E+03</pdfrwt>
<pdfrwt beam="1">  1       -5 0.12941062E-01 0.13023425E+03</pdfrwt>
<totfact> 0.86873103E+01</totfact>
</mgrwt>
</event>
<event>
 8    1  0.3488953E-007  0.1307225E+03  0.7546771E-02  0.1226388E+00
         -5   -1    0    0    0  501 -0.00000000000E+00  0.00000000000E+00  0.42581090253E+02  0.42839692426E+02  0.47000000000E+01 0. -1.
          5   -1    0    0  501    0  0.00000000000E+00 -0.00000000000E+00 -0.44556050488E+03  0.44558529320E+03  0.47000000000E+01 0. -1.
         25    2    1    2    0    0 -0.33896895522E+02  0.17733823691E+02 -0.12327174730E+03  0.17967792564E+03  0.12499898100E+03 0.  0.
         25    2    1    2    0    0  0.33896895522E+02 -0.17733823691E+02 -0.27970766733E+03  0.30874705998E+03  0.12499951942E+03 0.  0.
          5    1    3    3  502    0  0.33277361653E+01  0.45202899991E+02 -0.12510051608E+03  0.13314129757E+03  0.47000000000E+01 0. -1.
         -5    1    3    3    0  502 -0.37224631687E+02 -0.27469076300E+02  0.18287687769E+01  0.46536628071E+02  0.47000000000E+01 0. -1.
          5    1    4    4  503    0  0.50847730110E+02  0.29110188777E+02 -0.62286359046E+02  0.85642134906E+02  0.47000000000E+01 0. -1.
         -5    1    4    4    0  503 -0.16950834588E+02 -0.46844012468E+02 -0.21742130828E+03  0.22310492508E+03  0.47000000000E+01 0. -1.
<mgrwt>
<rscale>  0 0.13072236E+03</rscale>
<asrwt>0</asrwt>
<pdfrwt beam="2">  1        5 0.68569566E-01 0.13072248E+03</pdfrwt>
<pdfrwt beam="1">  1       -5 0.65727365E-02 0.13072248E+03</pdfrwt>
<totfact> 0.22466029E+02</totfact>
</mgrwt>
</event>
<event>
 8    1  0.3488953E-007  0.1503020E+03  0.7546771E-02  0.1200116E+00
          5   -1    0    0  501    0  0.00000000000E+00  0.00000000000E+00  0.55216825709E+03  0.55218825969E+03  0.47000000000E+01 0. -1.
         -5   -1    0    0    0  501 -0.00000000000E+00 -0.00000000000E+00 -0.41225248935E+02  0.41492302296E+02  0.47000000000E+01 0. -1.
         25    2    1    2    0    0 -0.62592445967E+02 -0.55116760307E+02  0.22348683658E+03  0.26930155766E+03  0.12498516423E+03 0.  0.
         25    2    1    2    0    0  0.62592445967E+02  0.55116760307E+02  0.28745617158E+03  0.32437900432E+03  0.12504005881E+03 0.  0.
          5    1    4    4  502    0  0.71366982683E+02  0.29080962416E+02  0.28624964148E+03  0.29647916595E+03  0.47000000000E+01 0.  1.
         -5    1    4    4    0  502 -0.87745367166E+01  0.26035797891E+02  0.12065300981E+01  0.27899838374E+02  0.47000000000E+01 0.  1.
          5    1    3    3  503    0 -0.19265208853E+02 -0.88743907165E+02  0.10669565635E+03  0.14018802522E+03  0.47000000000E+01 0. -1.
         -5    1    3    3    0  503 -0.43327237113E+02  0.33627146858E+02  0.11679118022E+03  0.12911353244E+03  0.47000000000E+01 0. -1.
<mgrwt>
<rscale>  0 0.15029057E+03</rscale>
<asrwt>0</asrwt>
<pdfrwt beam="1">  1        5 0.84971042E-01 0.15030199E+03</pdfrwt>
<pdfrwt beam="2">  1       -5 0.63644273E-02 0.15030199E+03</pdfrwt>
<totfact> 0.15193986E+02</totfact>
</mgrwt>
</event>
<event>
 8    1  0.3488953E-007  0.1269823E+03  0.7546771E-02  0.1232005E+00
         -5   -1    0    0    0  501 -0.00000000000E+00  0.00000000000E+00  0.53881923335E+02  0.54086520154E+02  0.47000000000E+01 0.  1.
          5   -1    0    0  501    0  0.00000000000E+00 -0.00000000000E+00 -0.33980026567E+03  0.33983276850E+03  0.47000000000E+01 0.  1.
         25    2    1    2    0    0 -0.64121720663E+01 -0.21314962045E+02 -0.74277705918E+02  0.14710709985E+03  0.12501151016E+03 0.  0.
         25    2    1    2    0    0  0.64121720663E+01  0.21314962045E+02 -0.21164063642E+03  0.24681218881E+03  0.12501621496E+03 0.  0.
          5    1    4    4  502    0 -0.56731515476E+02  0.26115180514E+02 -0.11937065814E+03  0.13480323263E+03  0.47000000000E+01 0. -1.
         -5    1    4    4    0  502  0.63143687542E+02 -0.48002184683E+01 -0.92269978272E+02  0.11200895618E+03  0.47000000000E+01 0. -1.
          5    1    3    3  503    0  0.41257639869E+02 -0.30159060207E+02  0.75549980590E+01  0.51874172339E+02  0.47000000000E+01 0.  1.
         -5    1    3    3    0  503 -0.47669811935E+02  0.88440981621E+01 -0.81832703977E+02  0.95232927512E+02  0.47000000000E+01 0.  1.
<mgrwt>
<rscale>  0 0.12698111E+03</rscale>
<asrwt>0</asrwt>
<pdfrwt beam="2">  1        5 0.52295201E-01 0.12698227E+03</pdfrwt>
<pdfrwt beam="1">  1       -5 0.83077653E-02 0.12698227E+03</pdfrwt>
<totfact> 0.26970834E+02</totfact>
</mgrwt>
</event>
<event>
 8    1  0.3488953E-007  0.1337522E+03  0.7546771E-02  0.1221993E+00
          5   -1    0    0  501    0  0.00000000000E+00  0.00000000000E+00  0.11499915571E+03  0.11509515982E+03  0.47000000000E+01 0.  1.
         -5   -1    0    0    0  501 -0.00000000000E+00 -0.00000000000E+00 -0.16560838231E+03  0.16567506237E+03  0.47000000000E+01 0.  1.
         25    2    1    2    0    0  0.69698369978E+01 -0.47064687553E+02 -0.60205140560E+02  0.14667419428E+03  0.12499998750E+03 0.  0.
         25    2    1    2    0    0 -0.69698369978E+01  0.47064687553E+02  0.95959139560E+01  0.13409602791E+03  0.12500399871E+03 0.  0.
          5    1    4    4  502    0  0.96580213470E+01 -0.41484278313E+02 -0.32113006736E+01  0.42972376889E+02  0.47000000000E+01 0. -1.
         -5    1    4    4    0  502 -0.16627858345E+02  0.88548965866E+02  0.12807214630E+02  0.91123651022E+02  0.47000000000E+01 0. -1.
          5    1    3    3  503    0  0.11219993657E+02  0.39399265042E+02 -0.19453520751E+00  0.41234914666E+02  0.47000000000E+01 0.  1.
         -5    1    3    3    0  503 -0.42501566596E+01 -0.86463952595E+02 -0.60010605353E+02  0.10543927961E+03  0.47000000000E+01 0.  1.
<mgrwt>
<rscale>  0 0.13375131E+03</rscale>
<asrwt>0</asrwt>
<pdfrwt beam="1">  1        5 0.17704692E-01 0.13375225E+03</pdfrwt>
<pdfrwt beam="2">  1       -5 0.25490727E-01 0.13375225E+03</pdfrwt>
<totfact> 0.30613903E+02</totfact>
</mgrwt>
</event>
<event>
 8    1  0.3488953E-007  0.1859954E+03  0.7546771E-02  0.1162128E+00
          5   -1    0    0  501    0  0.00000000000E+00  0.00000000000E+00  0.83504305033E+02  0.83636469073E+02  0.47000000000E+01 0. -1.
         -5   -1    0    0    0  501 -0.00000000000E+00 -0.00000000000E+00 -0.42001710953E+03  0.42004340525E+03  0.47000000000E+01 0. -1.
         25    2    1    2    0    0  0.11946971596E+03 -0.68486759001E+02 -0.13755179078E+03  0.23133258641E+03  0.12502328264E+03 0.  0.
         25    2    1    2    0    0 -0.11946971596E+03  0.68486759001E+02 -0.19896101372E+03  0.27234728791E+03  0.12499644420E+03 0.  0.
          5    1    3    3  502    0  0.34103674672E+02  0.30760519063E+02 -0.75512923090E+01  0.46780147228E+02  0.47000000000E+01 0.  1.
         -5    1    3    3    0  502  0.85366041286E+02 -0.99247278064E+02 -0.13000049847E+03  0.18455243919E+03  0.47000000000E+01 0.  1.
          5    1    4    4  503    0 -0.11961865391E+03  0.25222553293E+01 -0.12369694913E+03  0.17215693236E+03  0.47000000000E+01 0. -1.
         -5    1    4    4    0  503  0.14893795085E+00  0.65964503672E+02 -0.75264064585E+02  0.10019035555E+03  0.47000000000E+01 0. -1.
<mgrwt>
<rscale>  0 0.18599084E+03</rscale>
<asrwt>0</asrwt>
<pdfrwt beam="1">  1        5 0.12859006E-01 0.18599535E+03</pdfrwt>
<pdfrwt beam="2">  1       -5 0.64630205E-01 0.18599535E+03</pdfrwt>
<totfact> 0.89191904E+01</totfact>
</mgrwt>
</event>
<event>
 8    1  0.3488953E-007  0.1874379E+03  0.7546771E-02  0.1160793E+00
         -5   -1    0    0    0  501 -0.00000000000E+00  0.00000000000E+00  0.22186420493E+03  0.22191398205E+03  0.47000000000E+01 0. -1.
          5   -1    0    0  501    0  0.00000000000E+00 -0.00000000000E+00 -0.20312361698E+03  0.20317798546E+03  0.47000000000E+01 0. -1.
         25    2    1    2    0    0  0.13840417288E+03 -0.18739803310E+02  0.10924355311E+03  0.21694838965E+03  0.12500221829E+03 0.  0.
         25    2    1    2    0    0 -0.13840417288E+03  0.18739803310E+02 -0.90502965158E+02  0.20814357787E+03  0.12500426795E+03 0.  0.
          5    1    3    3  502    0  0.91100895032E+02  0.29188213057E+02  0.11445610433E+03  0.14924347448E+03  0.47000000000E+01 0.  1.
         -5    1    3    3    0  502  0.47303277843E+02 -0.47928016367E+02 -0.52125512179E+01  0.67704915167E+02  0.47000000000E+01 0.  1.
          5    1    4    4  503    0 -0.15976495977E+03  0.85662463982E+01 -0.64211509695E+02  0.17246283926E+03  0.47000000000E+01 0.  1.
         -5    1    4    4    0  503  0.21360786896E+02  0.10173556912E+02 -0.26291455463E+02  0.35680738605E+02  0.47000000000E+01 0.  1.
<mgrwt>
<rscale>  0 0.18743755E+03</rscale>
<asrwt>0</asrwt>
<pdfrwt beam="2">  1        5 0.31257798E-01 0.18743789E+03</pdfrwt>
<pdfrwt beam="1">  1       -5 0.34140966E-01 0.18743789E+03</pdfrwt>
<totfact> 0.64784286E+01</totfact>
</mgrwt>
</event>
<event>
 8    1  0.3488953E-007  0.1466648E+03  0.7546771E-02  0.1204660E+00
          5   -1    0    0  501    0  0.00000000000E+00  0.00000000000E+00  0.10032619757E+03  0.10043622812E+03  0.47000000000E+01 0.  1.
         -5   -1    0    0    0  501 -0.00000000000E+00 -0.00000000000E+00 -0.24742538096E+03  0.24747001665E+03  0.47000000000E+01 0.  1.
         25    2    1    2    0    0 -0.23729730785E+02  0.72825882205E+02 -0.13746306554E+03  0.20101404527E+03  0.12507534835E+03 0.  0.
         25    2    1    2    0    0  0.23729730785E+02 -0.72825882205E+02 -0.96361178433E+01  0.14689219950E+03  0.12497101370E+03 0.  0.
          5    1    3    3  502    0 -0.16912500295E+01 -0.15885120072E+02 -0.10120489243E+03  0.10256567465E+03  0.47000000000E+01 0.  1.
         -5    1    3    3    0  502 -0.22038480756E+02  0.88711002277E+02 -0.36258173113E+02  0.98448370614E+02  0.47000000000E+01 0.  1.
          5    1    4    4  503    0  0.17390324179E+02 -0.67529340848E+02 -0.62148737552E+02  0.93526417817E+02  0.47000000000E+01 0.  1.
         -5    1    4    4    0  503  0.63394066064E+01 -0.52965413571E+01  0.52512619708E+02  0.53365781687E+02  0.47000000000E+01 0.  1.
<mgrwt>
<rscale>  0 0.14664251E+03</rscale>
<asrwt>0</asrwt>
<pdfrwt beam="1">  1        5 0.15446697E-01 0.14666476E+03</pdfrwt>
<pdfrwt beam="2">  1       -5 0.38077341E-01 0.14666476E+03</pdfrwt>
<totfact> 0.18354310E+02</totfact>
</mgrwt>
</event>
<event>
 8    1  0.3488953E-007  0.1507579E+03  0.7546771E-02  0.1199548E+00
         -5   -1    0    0    0  501 -0.00000000000E+00  0.00000000000E+00  0.39788492710E+03  0.39791268541E+03  0.47000000000E+01 0.  1.
          5   -1    0    0  501    0  0.00000000000E+00 -0.00000000000E+00 -0.80632979814E+02  0.80769842352E+02  0.47000000000E+01 0.  1.
         25    2    1    2    0    0 -0.79733970724E+02 -0.27224038957E+02  0.28807363585E+03  0.32513745502E+03  0.12501716122E+03 0.  0.
         25    2    1    2    0    0  0.79733970724E+02  0.27224038957E+02  0.29178311432E+02  0.15354507274E+03  0.12500424441E+03 0.  0.
          5    1    4    4  502    0  0.47825376771E+02  0.75233877444E+02  0.33952892631E+02  0.95510689959E+02  0.47000000000E+01 0. -1.
         -5    1    4    4    0  502  0.31908593954E+02 -0.48009838486E+02 -0.47745811994E+01  0.58034382785E+02  0.47000000000E+01 0. -1.
          5    1    3    3  503    0 -0.55687050661E+02  0.44048654995E+02  0.10188819382E+03  0.12427640829E+03  0.47000000000E+01 0.  1.
         -5    1    3    3    0  503 -0.24046920063E+02 -0.71272693952E+02  0.18618544204E+03  0.20086104673E+03  0.47000000000E+01 0.  1.
<mgrwt>
<rscale>  0 0.15075522E+03</rscale>
<asrwt>0</asrwt>
<pdfrwt beam="2">  1        5 0.12417737E-01 0.15075790E+03</pdfrwt>
<pdfrwt beam="1">  1       -5 0.61225729E-01 0.15075790E+03</pdfrwt>
<totfact> 0.10055777E+02</totfact>
</mgrwt>
</event>
<event>
 8    1  0.3488953E-007  0.1498942E+03  0.7546771E-02  0.1200606E+00
          5   -1    0    0  501    0  0.00000000000E+00  0.00000000000E+00  0.41274490827E+02  0.41541227631E+02  0.47000000000E+01 0.  1.
         -5   -1    0    0    0  501 -0.00000000000E+00 -0.00000000000E+00 -0.55295103964E+03  0.55297101392E+03  0.47000000000E+01 0.  1.
         25    2    1    2    0    0 -0.54810309391E+02  0.61948616892E+02 -0.29707773552E+03  0.33274723239E+03  0.12499495418E+03 0.  0.
         25    2    1    2    0    0  0.54810309391E+02 -0.61948616892E+02 -0.21459881329E+03  0.26176500916E+03  0.12500587269E+03 0.  0.
          5    1    4    4  502    0  0.95165886895E+02 -0.46817210617E+02 -0.16056998668E+03  0.19249209818E+03  0.47000000000E+01 0.  1.
         -5    1    4    4    0  502 -0.40355577504E+02 -0.15131406275E+02 -0.54028826612E+02  0.69272910987E+02  0.47000000000E+01 0.  1.
          5    1    3    3  503    0 -0.48385735889E+02  0.85018584637E+02 -0.12426066722E+03  0.15821549415E+03  0.47000000000E+01 0. -1.
         -5    1    3    3    0  503 -0.64245735019E+01 -0.23069967746E+02 -0.17281706831E+03  0.17453173824E+03  0.47000000000E+01 0. -1.
<mgrwt>
<rscale>  0 0.14989192E+03</rscale>
<asrwt>0</asrwt>
<pdfrwt beam="1">  1        5 0.63719768E-02 0.14989419E+03</pdfrwt>
<pdfrwt beam="2">  1       -5 0.85091440E-01 0.14989419E+03</pdfrwt>
<totfact> 0.15100103E+02</totfact>
</mgrwt>
</event>
<event>
 8    1  0.3488953E-007  0.1264463E+03  0.7546771E-02  0.1232828E+00
          5   -1    0    0  501    0  0.00000000000E+00  0.00000000000E+00  0.62083749062E+02  0.62261399740E+02  0.47000000000E+01 0. -1.
         -5   -1    0    0    0  501 -0.00000000000E+00 -0.00000000000E+00 -0.25733282487E+03  0.25737574236E+03  0.47000000000E+01 0. -1.
         25    2    1    2    0    0  0.33395936484E+01 -0.18758022580E+02 -0.91514786546E+02  0.15608447541E+03  0.12499756402E+03 0.  0.
         25    2    1    2    0    0 -0.33395936484E+01  0.18758022580E+02 -0.10373428926E+03  0.16355266668E+03  0.12500262283E+03 0.  0.
          5    1    4    4  502    0  0.28397857060E+02 -0.41095949071E+02 -0.74027956992E+02  0.89428987090E+02  0.47000000000E+01 0. -1.
         -5    1    4    4    0  502 -0.31737450708E+02  0.59853971651E+02 -0.29706332267E+02  0.74123679594E+02  0.47000000000E+01 0. -1.
          5    1    3    3  503    0  0.52274329706E+02 -0.37029090074E+02 -0.19753939342E+02  0.67201690287E+02  0.47000000000E+01 0.  1.
         -5    1    3    3    0  503 -0.48934736058E+02  0.18271067494E+02 -0.71760847203E+02  0.88882785126E+02  0.47000000000E+01 0.  1.
<mgrwt>
<rscale>  0 0.12644507E+03</rscale>
<asrwt>0</asrwt>
<pdfrwt beam="1">  1        5 0.95683129E-02 0.12644632E+03</pdfrwt>
<pdfrwt beam="2">  1       -5 0.39606632E-01 0.12644632E+03</pdfrwt>
<totfact> 0.37658846E+02</totfact>
</mgrwt>
</event>
<event>
 8    1  0.3488953E-007  0.2860755E+03  0.7546771E-02  0.1092417E+00
          5   -1    0    0  501    0  0.00000000000E+00  0.00000000000E+00  0.19701199237E+03  0.19706804697E+03  0.47000000000E+01 0. -1.
         -5   -1    0    0    0  501 -0.00000000000E+00 -0.00000000000E+00 -0.45914918243E+03  0.45917323716E+03  0.47000000000E+01 0. -1.
         25    2    1    2    0    0  0.19562936710E+03  0.16715351414E+03 -0.23249845438E+03  0.36863902222E+03  0.12501220281E+03 0.  0.
         25    2    1    2    0    0 -0.19562936710E+03 -0.16715351414E+03 -0.29638735683E+02  0.28760226191E+03  0.12500183936E+03 0.  0.
          5    1    3    3  502    0  0.86873967040E+01  0.17105541608E+02 -0.84730629841E+02  0.87002528978E+02  0.47000000000E+01 0. -1.
         -5    1    3    3    0  502  0.18694197039E+03  0.15004797253E+03 -0.14776782454E+03  0.28163649324E+03  0.47000000000E+01 0. -1.
          5    1    4    4  503    0 -0.83425642526E+02 -0.13595223887E+03  0.20175269894E+02  0.16084769379E+03  0.47000000000E+01 0. -1.
         -5    1    4    4    0  503 -0.11220372457E+03 -0.31201275273E+02 -0.49814005578E+02  0.12675456812E+03  0.47000000000E+01 0. -1.
<mgrwt>
<rscale>  0 0.28607438E+03</rscale>
<asrwt>0</asrwt>
<pdfrwt beam="1">  1        5 0.30315700E-01 0.28607551E+03</pdfrwt>
<pdfrwt beam="2">  1       -5 0.70644497E-01 0.28607551E+03</pdfrwt>
<totfact> 0.16085093E+01</totfact>
</mgrwt>
</event>
<event>
 8    1  0.3488953E-007  0.1643053E+03  0.7546771E-02  0.1183922E+00
          5   -1    0    0  501    0  0.00000000000E+00  0.00000000000E+00  0.72070423464E+03  0.72071955976E+03  0.47000000000E+01 0. -1.
         -5   -1    0    0    0  501 -0.00000000000E+00 -0.00000000000E+00 -0.44607971517E+02  0.44854889621E+02  0.47000000000E+01 0. -1.
         25    2    1    2    0    0  0.45647887366E+02 -0.96373006113E+02  0.18353133566E+03  0.24632843264E+03  0.12498983811E+03 0.  0.
         25    2    1    2    0    0 -0.45647887366E+02  0.96373006113E+02  0.49256492746E+03  0.51924601674E+03  0.12499892884E+03 0.  0.
          5    1    3    3  502    0  0.11287778470E+02  0.27720161029E+02  0.13960548555E+02  0.33358779747E+02  0.47000000000E+01 0.  1.
         -5    1    3    3    0  502  0.34360108896E+02 -0.12409316714E+03  0.16957078711E+03  0.21296965290E+03  0.47000000000E+01 0.  1.
          5    1    4    4  503    0 -0.39466361920E+02  0.12015331493E+03  0.30790585844E+03  0.33290016593E+03  0.47000000000E+01 0.  1.
         -5    1    4    4    0  503 -0.61815254462E+01 -0.23780308820E+02  0.18465906902E+03  0.18634585081E+03  0.47000000000E+01 0.  1.
<mgrwt>
<rscale>  0 0.16430353E+03</rscale>
<asrwt>0</asrwt>
<pdfrwt beam="1">  1        5 0.11089774E+00 0.16430526E+03</pdfrwt>
<pdfrwt beam="2">  1       -5 0.68829380E-02 0.16430526E+03</pdfrwt>
<totfact> 0.71681218E+01</totfact>
</mgrwt>
</event>
<event>
 8    1  0.3488953E-007  0.1268355E+03  0.7546771E-02  0.1232230E+00
         -5   -1    0    0    0  501 -0.00000000000E+00  0.00000000000E+00  0.11812154023E+03  0.11821500864E+03  0.47000000000E+01 0. -1.
          5   -1    0    0  501    0  0.00000000000E+00 -0.00000000000E+00 -0.15907223229E+03  0.15914165101E+03  0.47000000000E+01 0. -1.
         25    2    1    2    0    0  0.18725420857E+02  0.10524548778E+02  0.32312825615E+02  0.13088216550E+03  0.12499846012E+03 0.  0.
         25    2    1    2    0    0 -0.18725420857E+02 -0.10524548778E+02 -0.73263517670E+02  0.14647449414E+03  0.12500330756E+03 0.  0.
          5    1    3    3  502    0 -0.49271308912E+02 -0.89040306115E+01  0.32738364608E+02  0.60006950933E+02  0.47000000000E+01 0.  1.
         -5    1    3    3    0  502  0.67996729769E+02  0.19428579390E+02 -0.42553899264E+00  0.70875214567E+02  0.47000000000E+01 0.  1.
          5    1    4    4  503    0 -0.21544309748E+01 -0.41304591936E+02  0.20423891242E+02  0.46367404728E+02  0.47000000000E+01 0.  1.
         -5    1    4    4    0  503 -0.16570989882E+02  0.30780043157E+02 -0.93687408912E+02  0.10010708941E+03  0.47000000000E+01 0.  1.
<mgrwt>
<rscale>  0 0.12683427E+03</rscale>
<asrwt>0</asrwt>
<pdfrwt beam="2">  1        5 0.24485181E-01 0.12683546E+03</pdfrwt>
<pdfrwt beam="1">  1       -5 0.18185074E-01 0.12683546E+03</pdfrwt>
<totfact> 0.30875714E+02</totfact>
</mgrwt>
</event>
<event>
 8    1  0.3488953E-007  0.1702266E+03  0.7546771E-02  0.1177612E+00
         -5   -1    0    0    0  501 -0.00000000000E+00  0.00000000000E+00  0.38621701457E+03  0.38624561142E+03  0.47000000000E+01 0. -1.
          5   -1    0    0  501    0  0.00000000000E+00 -0.00000000000E+00 -0.76736115570E+02  0.76879915666E+02  0.47000000000E+01 0. -1.
         25    2    1    2    0    0  0.10474608256E+03  0.48787074648E+02  0.19029985208E+03  0.25532458756E+03  0.12499876338E+03 0.  0.
         25    2    1    2    0    0 -0.10474608256E+03 -0.48787074648E+02  0.11918104691E+03  0.20780093952E+03  0.12500075223E+03 0.  0.
          5    1    4    4  502    0 -0.63327329024E+02 -0.76880492934E+02  0.27818319559E+02  0.10352250817E+03  0.47000000000E+01 0. -1.
         -5    1    4    4    0  502 -0.41418753540E+02  0.28093418285E+02  0.91362727355E+02  0.10427843135E+03  0.47000000000E+01 0. -1.
          5    1    3    3  503    0 -0.18113382622E+02 -0.21577288934E+02  0.31352386129E+02  0.42411509567E+02  0.47000000000E+01 0.  1.
         -5    1    3    3    0  503  0.12285946519E+03  0.70364363583E+02  0.15894746595E+03  0.21291307799E+03  0.47000000000E+01 0.  1.
<mgrwt>
<rscale>  0 0.17022627E+03</rscale>
<asrwt>0</asrwt>
<pdfrwt beam="2">  1        5 0.11818818E-01 0.17022664E+03</pdfrwt>
<pdfrwt beam="1">  1       -5 0.59431263E-01 0.17022664E+03</pdfrwt>
<totfact> 0.12164656E+02</totfact>
</mgrwt>
</event>
<event>
 8    1  0.3488953E-007  0.1404073E+03  0.7546771E-02  0.1212788E+00
         -5   -1    0    0    0  501 -0.00000000000E+00  0.00000000000E+00  0.14291916383E+03  0.14299642439E+03  0.47000000000E+01 0. -1.
          5   -1    0    0  501    0  0.00000000000E+00 -0.00000000000E+00 -0.18028542925E+03  0.18034668280E+03  0.47000000000E+01 0. -1.
         25    2    1    2    0    0  0.62550340682E+02  0.13108480281E+02  0.59797303093E+02  0.15261039028E+03  0.12501934407E+03 0.  0.
         25    2    1    2    0    0 -0.62550340682E+02 -0.13108480281E+02 -0.97163568510E+02  0.17073271691E+03  0.12499809680E+03 0.  0.
          5    1    4    4  502    0  0.31842779769E+02 -0.21859116158E+02 -0.53766084937E+02  0.66367653809E+02  0.47000000000E+01 0. -1.
         -5    1    4    4    0  502 -0.94393120450E+02  0.87506358770E+01 -0.43397483574E+02  0.10436506311E+03  0.47000000000E+01 0. -1.
          5    1    3    3  503    0  0.34537918227E+02 -0.43058681699E+02  0.69551788594E+02  0.88918272373E+02  0.47000000000E+01 0.  1.
         -5    1    3    3    0  503  0.28012422455E+02  0.56167161980E+02 -0.97544855010E+01  0.63692117912E+02  0.47000000000E+01 0.  1.
<mgrwt>
<rscale>  0 0.14040258E+03</rscale>
<asrwt>0</asrwt>
<pdfrwt beam="2">  1        5 0.27746875E-01 0.14040731E+03</pdfrwt>
<pdfrwt beam="1">  1       -5 0.21998219E-01 0.14040731E+03</pdfrwt>
<totfact> 0.17627934E+02</totfact>
</mgrwt>
</event>
<event>
 8    1  0.3488953E-007  0.1410581E+03  0.7546771E-02  0.1211918E+00
          5   -1    0    0  501    0  0.00000000000E+00  0.00000000000E+00  0.28631014663E+03  0.28634872108E+03  0.47000000000E+01 0.  1.
         -5   -1    0    0    0  501 -0.00000000000E+00 -0.00000000000E+00 -0.77001781547E+02  0.77145086437E+02  0.47000000000E+01 0.  1.
         25    2    1    2    0    0  0.62999286133E+02  0.17421019453E+02  0.47478576312E+02  0.14881665728E+03  0.12497911947E+03 0.  0.
         25    2    1    2    0    0 -0.62999286133E+02 -0.17421019453E+02  0.16182978877E+03  0.21467715024E+03  0.12499998532E+03 0.  0.
          5    1    3    3  502    0  0.86175520734E+02  0.39870497216E+00 -0.74633391169E+01  0.86626616985E+02  0.47000000000E+01 0. -1.
         -5    1    3    3    0  502 -0.23176234601E+02  0.17022314481E+02  0.54941915429E+02  0.62190040293E+02  0.47000000000E+01 0. -1.
          5    1    4    4  503    0  0.15881124954E+02  0.36756125539E+02  0.24323882694E+02  0.47084648918E+02  0.47000000000E+01 0.  1.
         -5    1    4    4    0  503 -0.78880411087E+02 -0.54177144992E+02  0.13750590608E+03  0.16759250132E+03  0.47000000000E+01 0.  1.
<mgrwt>
<rscale>  0 0.14105352E+03</rscale>
<asrwt>0</asrwt>
<pdfrwt beam="1">  1        5 0.44061705E-01 0.14105814E+03</pdfrwt>
<pdfrwt beam="2">  1       -5 0.11860419E-01 0.14105814E+03</pdfrwt>
<totfact> 0.21563546E+02</totfact>
</mgrwt>
</event>
<event>
 8    1  0.3488953E-007  0.1805993E+03  0.7546771E-02  0.1167225E+00
         -5   -1    0    0    0  501 -0.00000000000E+00  0.00000000000E+00  0.36953542892E+02  0.37251232628E+02  0.47000000000E+01 0.  1.
          5   -1    0    0  501    0  0.00000000000E+00 -0.00000000000E+00 -0.93292490640E+03  0.93293674544E+03  0.47000000000E+01 0.  1.
         25    2    1    2    0    0  0.62886881177E+02  0.11418037686E+03 -0.33111560517E+03  0.37716342657E+03  0.12499115197E+03 0.  0.
         25    2    1    2    0    0 -0.62886881177E+02 -0.11418037686E+03 -0.56485575834E+03  0.59302455150E+03  0.12499669061E+03 0.  0.
          5    1    4    4  502    0 -0.93783283975E+02 -0.53605960467E+02 -0.28061315400E+03  0.30072368638E+03  0.47000000000E+01 0.  1.
         -5    1    4    4    0  502  0.30896402798E+02 -0.60574416390E+02 -0.28424260434E+03  0.29230086512E+03  0.47000000000E+01 0.  1.
          5    1    3    3  503    0  0.46919485355E+02  0.11595474305E+03 -0.33693947578E+03  0.35944017705E+03  0.47000000000E+01 0. -1.
         -5    1    3    3    0  503  0.15967395822E+02 -0.17743661940E+01  0.58238706042E+01  0.17723249520E+02  0.47000000000E+01 0. -1.
<mgrwt>
<rscale>  0 0.18059830E+03</rscale>
<asrwt>0</asrwt>
<pdfrwt beam="2">  1        5 0.14355070E+00 0.18059926E+03</pdfrwt>
<pdfrwt beam="1">  1       -5 0.57089711E-02 0.18059926E+03</pdfrwt>
<totfact> 0.51617011E+01</totfact>
</mgrwt>
</event>
<event>
 8    1  0.3488953E-007  0.1452088E+03  0.7546771E-02  0.1206491E+00
          5   -1    0    0  501    0  0.00000000000E+00  0.00000000000E+00  0.15825595227E+03  0.15832572889E+03  0.47000000000E+01 0.  1.
         -5   -1    0    0    0  501 -0.00000000000E+00 -0.00000000000E+00 -0.13903510615E+03  0.13911452383E+03  0.47000000000E+01 0.  1.
         25    2    1    2    0    0 -0.69406064240E+02 -0.25298626200E+02 -0.21141044314E+02  0.14672640565E+03  0.12499788846E+03 0.  0.
         25    2    1    2    0    0  0.69406064240E+02  0.25298626200E+02  0.40361890439E+02  0.15071384708E+03  0.12501343632E+03 0.  0.
          5    1    4    4  502    0  0.37005567378E+02 -0.24450651187E+02  0.70917439901E+02  0.83777202404E+02  0.47000000000E+01 0.  1.
         -5    1    4    4    0  502  0.32400496862E+02  0.49749277387E+02 -0.30555549462E+02  0.66936644675E+02  0.47000000000E+01 0.  1.
          5    1    3    3  503    0 -0.88127063476E+02 -0.57325027531E+02 -0.32818767503E+01  0.10528722056E+03  0.47000000000E+01 0. -1.
         -5    1    3    3    0  503  0.18720999236E+02  0.32026401330E+02 -0.17859167564E+02  0.41439185087E+02  0.47000000000E+01 0. -1.
<mgrwt>
<rscale>  0 0.14520541E+03</rscale>
<asrwt>0</asrwt>
<pdfrwt beam="1">  1        5 0.24358546E-01 0.14520875E+03</pdfrwt>
<pdfrwt beam="2">  1       -5 0.21401493E-01 0.14520875E+03</pdfrwt>
<totfact> 0.24130845E+02</totfact>
</mgrwt>
</event>
<event>
 8    1  0.3488953E-007  0.1617131E+03  0.7546771E-02  0.1186777E+00
          5   -1    0    0  501    0  0.00000000000E+00  0.00000000000E+00  0.48793401690E+03  0.48795665263E+03  0.47000000000E+01 0. -1.
         -5   -1    0    0    0  501 -0.00000000000E+00 -0.00000000000E+00 -0.54528237136E+02  0.54730417915E+02  0.47000000000E+01 0. -1.
         25    2    1    2    0    0 -0.45636259113E+01  0.10249715985E+03  0.17894573290E+03  0.24118909691E+03  0.12499644270E+03 0.  0.
         25    2    1    2    0    0  0.45636259113E+01 -0.10249715985E+03  0.25446004687E+03  0.30149797363E+03  0.12499847277E+03 0.  0.
          5    1    4    4  502    0  0.96427070599E+01 -0.64753327963E+01 -0.12506587649E+02  0.17703572207E+02  0.47000000000E+01 0. -1.
         -5    1    4    4    0  502 -0.50790811486E+01 -0.96021827056E+02  0.26696663452E+03  0.28379440143E+03  0.47000000000E+01 0. -1.
          5    1    3    3  503    0  0.24933922012E+02 -0.14318805614E+02  0.80239921743E+02  0.85365471372E+02  0.47000000000E+01 0. -1.
         -5    1    3    3    0  503 -0.29497547923E+02  0.11681596547E+03  0.98705811153E+02  0.15582362554E+03  0.47000000000E+01 0. -1.
<mgrwt>
<rscale>  0 0.16171266E+03</rscale>
<asrwt>0</asrwt>
<pdfrwt beam="1">  1        5 0.75084066E-01 0.16171306E+03</pdfrwt>
<pdfrwt beam="2">  1       -5 0.84062531E-02 0.16171306E+03</pdfrwt>
<totfact> 0.12880820E+02</totfact>
</mgrwt>
</event>
<event>
 8    1  0.3488953E-007  0.1556206E+03  0.7546771E-02  0.1193748E+00
         -5   -1    0    0    0  501 -0.00000000000E+00  0.00000000000E+00  0.47820461631E+03  0.47822771256E+03  0.47000000000E+01 0.  1.
          5   -1    0    0  501    0  0.00000000000E+00 -0.00000000000E+00 -0.70895190134E+02  0.71050812692E+02  0.47000000000E+01 0.  1.
         25    2    1    2    0    0 -0.78026159416E+02  0.49877685833E+02  0.35080004894E+03  0.38376875128E+03  0.12506764178E+03 0.  0.
         25    2    1    2    0    0  0.78026159416E+02 -0.49877685833E+02  0.56509377228E+02  0.16550977397E+03  0.12499724184E+03 0.  0.
          5    1    4    4  502    0  0.59622939301E+01 -0.48368390004E+02  0.76261257857E+02  0.90625159589E+02  0.47000000000E+01 0.  1.
         -5    1    4    4    0  502  0.72063865486E+02 -0.15092958288E+01 -0.19751880629E+02  0.74884614381E+02  0.47000000000E+01 0.  1.
          5    1    3    3  503    0 -0.75832509243E+02 -0.25438580144E+02  0.17954198521E+03  0.19660901625E+03  0.47000000000E+01 0. -1.
         -5    1    3    3    0  503 -0.21936501731E+01  0.75316265977E+02  0.17125806374E+03  0.18715973503E+03  0.47000000000E+01 0. -1.
<mgrwt>
<rscale>  0 0.15560648E+03</rscale>
<asrwt>0</asrwt>
<pdfrwt beam="2">  1        5 0.10920700E-01 0.15562063E+03</pdfrwt>
<pdfrwt beam="1">  1       -5 0.73583691E-01 0.15562063E+03</pdfrwt>
<totfact> 0.84469696E+01</totfact>
</mgrwt>
</event>
<event>
 8    1  0.3488953E-007  0.1251250E+03  0.7546771E-02  0.1234875E+00
         -5   -1    0    0    0  501 -0.00000000000E+00  0.00000000000E+00  0.17736748224E+02  0.18348902898E+02  0.47000000000E+01 0.  1.
          5   -1    0    0  501    0  0.00000000000E+00 -0.00000000000E+00 -0.10130782668E+04  0.10130891692E+04  0.47000000000E+01 0.  1.
         25    2    1    2    0    0 -0.53818388380E+01  0.15324284221E+01 -0.30196371799E+03  0.32686086925E+03  0.12499851336E+03 0.  0.
         25    2    1    2    0    0  0.53818388380E+01 -0.15324284221E+01 -0.69337780062E+03  0.70457720284E+03  0.12499979134E+03 0.  0.
          5    1    3    3  502    0 -0.57777843644E+02 -0.21728530848E+02 -0.20475779648E+03  0.21391178904E+03  0.47000000000E+01 0.  1.
         -5    1    3    3    0  502  0.52396004806E+02  0.23260959270E+02 -0.97205921504E+02  0.11294908021E+03  0.47000000000E+01 0.  1.
          5    1    4    4  503    0  0.47480367506E+02  0.30586617784E+02 -0.52392496367E+03  0.52698138871E+03  0.47000000000E+01 0.  1.
         -5    1    4    4    0  503 -0.42098528668E+02 -0.32119046206E+02 -0.16945283695E+03  0.17759581413E+03  0.47000000000E+01 0.  1.
<mgrwt>
<rscale>  0 0.12512466E+03</rscale>
<asrwt>0</asrwt>
<pdfrwt beam="2">  1        5 0.15590608E+00 0.12512498E+03</pdfrwt>
<pdfrwt beam="1">  1       -5 0.27766588E-02 0.12512498E+03</pdfrwt>
<totfact> 0.12074044E+02</totfact>
</mgrwt>
</event>
<event>
 8    1  0.3488953E-007  0.1320461E+03  0.7546771E-02  0.1224451E+00
         -5   -1    0    0    0  501 -0.00000000000E+00  0.00000000000E+00  0.75573000757E+02  0.75719009789E+02  0.47000000000E+01 0. -1.
          5   -1    0    0  501    0  0.00000000000E+00 -0.00000000000E+00 -0.25998830885E+03  0.26003078806E+03  0.47000000000E+01 0. -1.
         25    2    1    2    0    0  0.33854548272E+02 -0.25776296358E+02 -0.35524005565E+02  0.13674109282E+03  0.12500249438E+03 0.  0.
         25    2    1    2    0    0 -0.33854548272E+02  0.25776296358E+02 -0.14889130253E+03  0.19900870503E+03  0.12500118726E+03 0.  0.
          5    1    4    4  502    0 -0.75331599594E+00  0.68886029795E+02 -0.11688735010E+03  0.13575932822E+03  0.47000000000E+01 0. -1.
         -5    1    4    4    0  502 -0.33101232276E+02 -0.43109733437E+02 -0.32003952429E+02  0.63249376805E+02  0.47000000000E+01 0. -1.
          5    1    3    3  503    0  0.34801885946E+02 -0.66669061460E+02 -0.52883664357E+02  0.92058171703E+02  0.47000000000E+01 0. -1.
         -5    1    3    3    0  503 -0.94733767382E+00  0.40892765102E+02  0.17359658793E+02  0.44682921119E+02  0.47000000000E+01 0. -1.
<mgrwt>
<rscale>  0 0.13204579E+03</rscale>
<asrwt>0</asrwt>
<pdfrwt beam="2">  1        5 0.40012700E-01 0.13204610E+03</pdfrwt>
<pdfrwt beam="1">  1       -5 0.11641115E-01 0.13204610E+03</pdfrwt>
<totfact> 0.26581421E+02</totfact>
</mgrwt>
</event>
<event>
 8    1  0.3488953E-007  0.1587128E+03  0.7546771E-02  0.1190158E+00
         -5   -1    0    0    0  501 -0.00000000000E+00  0.00000000000E+00  0.24773504046E+03  0.24777962037E+03  0.47000000000E+01 0. -1.
          5   -1    0    0  501    0  0.00000000000E+00 -0.00000000000E+00 -0.10183127563E+03  0.10193968166E+03  0.47000000000E+01 0. -1.
         25    2    1    2    0    0 -0.97759277236E+02 -0.27856572257E+01  0.81781391978E+02  0.17854399844E+03  0.12500050853E+03 0.  0.
         25    2    1    2    0    0  0.97759277236E+02  0.27856572257E+01  0.64122372849E+02  0.17117530359E+03  0.12499867875E+03 0.  0.
          5    1    4    4  502    0  0.54638956741E+00  0.46982309960E+02  0.14008098842E+01  0.47240747868E+02  0.47000000000E+01 0.  1.
         -5    1    4    4    0  502  0.97212887669E+02 -0.44196652735E+02  0.62721562964E+02  0.12393455572E+03  0.47000000000E+01 0.  1.
          5    1    3    3  503    0  0.17811382622E+01 -0.26978831693E+02 -0.20080383505E+02  0.34005023375E+02  0.47000000000E+01 0.  1.
         -5    1    3    3    0  503 -0.99540415498E+02  0.24193174467E+02  0.10186177548E+03  0.14453897507E+03  0.47000000000E+01 0.  1.
<mgrwt>
<rscale>  0 0.15871247E+03</rscale>
<asrwt>0</asrwt>
<pdfrwt beam="2">  1        5 0.15678118E-01 0.15871283E+03</pdfrwt>
<pdfrwt beam="1">  1       -5 0.38124851E-01 0.15871283E+03</pdfrwt>
<totfact> 0.18284676E+02</totfact>
</mgrwt>
</event>
<event>
 8    1  0.3488953E-007  0.1344571E+03  0.7546771E-02  0.1220988E+00
          5   -1    0    0  501    0  0.00000000000E+00  0.00000000000E+00  0.61812035925E+03  0.61813822768E+03  0.47000000000E+01 0.  1.
         -5   -1    0    0    0  501 -0.00000000000E+00 -0.00000000000E+00 -0.29169677562E+02  0.29545898008E+02  0.47000000000E+01 0.  1.
         25    2    1    2    0    0  0.47199993805E+02 -0.15023719000E+02  0.27306680020E+03  0.30437506105E+03  0.12500059548E+03 0.  0.
         25    2    1    2    0    0 -0.47199993805E+02  0.15023719000E+02  0.31588388149E+03  0.34330906464E+03  0.12499974292E+03 0.  0.
          5    1    4    4  502    0  0.95371991309E+01  0.19788101490E+02  0.26750469046E+03  0.26844622655E+03  0.47000000000E+01 0. -1.
         -5    1    4    4    0  502 -0.56737192935E+02 -0.47643824900E+01  0.48379191026E+02  0.74862838091E+02  0.47000000000E+01 0. -1.
          5    1    3    3  503    0 -0.18422909278E+02  0.36418153982E+02  0.15088585194E+03  0.15637875764E+03  0.47000000000E+01 0.  1.
         -5    1    3    3    0  503  0.65622903083E+02 -0.51441872982E+02  0.12218094826E+03  0.14799630341E+03  0.47000000000E+01 0.  1.
<mgrwt>
<rscale>  0 0.13445686E+03</rscale>
<asrwt>0</asrwt>
<pdfrwt beam="1">  1        5 0.95125749E-01 0.13445706E+03</pdfrwt>
<pdfrwt beam="2">  1       -5 0.45179575E-02 0.13445706E+03</pdfrwt>
<totfact> 0.19860919E+02</totfact>
</mgrwt>
</event>
<event>
 8    1  0.3488953E-007  0.1263861E+03  0.7546771E-02  0.1232920E+00
          5   -1    0    0  501    0  0.00000000000E+00  0.00000000000E+00  0.34531525378E+03  0.34534723756E+03  0.47000000000E+01 0. -1.
         -5   -1    0    0    0  501 -0.00000000000E+00 -0.00000000000E+00 -0.50614074057E+02  0.50831825589E+02  0.47000000000E+01 0. -1.
         25    2    1    2    0    0  0.48119161812E+01 -0.18028471535E+02  0.88366093144E+02  0.15421417185E+03  0.12500105623E+03 0.  0.
         25    2    1    2    0    0 -0.48119161812E+01  0.18028471535E+02  0.20633508658E+03  0.24196489130E+03  0.12499864138E+03 0.  0.
          5    1    3    3  502    0 -0.52497855549E+01 -0.58708244314E+02  0.94628392728E+02  0.11158333616E+03  0.47000000000E+01 0. -1.
         -5    1    3    3    0  502  0.10061701736E+02  0.40679772779E+02 -0.62622995845E+01  0.42630835686E+02  0.47000000000E+01 0. -1.
          5    1    4    4  503    0  0.13349397761E+01  0.71717725847E+02  0.12515549398E+03  0.14433018374E+03  0.47000000000E+01 0. -1.
         -5    1    4    4    0  503 -0.61468559573E+01 -0.53689254312E+02  0.81179592598E+02  0.97634707564E+02  0.47000000000E+01 0. -1.
<mgrwt>
<rscale>  0 0.12638550E+03</rscale>
<asrwt>0</asrwt>
<pdfrwt beam="1">  1        5 0.53144633E-01 0.12638609E+03</pdfrwt>
<pdfrwt beam="2">  1       -5 0.78059912E-02 0.12638609E+03</pdfrwt>
<totfact> 0.28943761E+02</totfact>
</mgrwt>
</event>
<event>
 8    1  0.3488953E-007  0.1333762E+03  0.7546771E-02  0.1222534E+00
         -5   -1    0    0    0  501 -0.00000000000E+00  0.00000000000E+00  0.40364845907E+02  0.40637553877E+02  0.47000000000E+01 0.  1.
          5   -1    0    0  501    0  0.00000000000E+00 -0.00000000000E+00 -0.44783050665E+03  0.44785516932E+03  0.47000000000E+01 0.  1.
         25    2    1    2    0    0  0.90612386408E+01  0.45602296785E+02 -0.16926968264E+03  0.21550277946E+03  0.12501018750E+03 0.  0.
         25    2    1    2    0    0 -0.90612386408E+01 -0.45602296785E+02 -0.23819597811E+03  0.27298994374E+03  0.12499803949E+03 0.  0.
          5    1    3    3  502    0  0.14089085199E+02  0.88202880365E+02 -0.10293463245E+03  0.13636670776E+03  0.47000000000E+01 0. -1.
         -5    1    3    3    0  502 -0.50278465583E+01 -0.42600583580E+02 -0.66335050182E+02  0.79136071705E+02  0.47000000000E+01 0. -1.
          5    1    4    4  503    0 -0.40222057133E+02  0.13020244288E+01 -0.15735717350E+02  0.43465065836E+02  0.47000000000E+01 0. -1.
         -5    1    4    4    0  503  0.31160818492E+02 -0.46904321214E+02 -0.22246026076E+03  0.22952487790E+03  0.47000000000E+01 0. -1.
<mgrwt>
<rscale>  0 0.13337340E+03</rscale>
<asrwt>0</asrwt>
<pdfrwt beam="2">  1        5 0.68919872E-01 0.13337624E+03</pdfrwt>
<pdfrwt beam="1">  1       -5 0.62328513E-02 0.13337624E+03</pdfrwt>
<totfact> 0.24463376E+02</totfact>
</mgrwt>
</event>
<event>
 8    1  0.3488953E-007  0.1259948E+03  0.7546771E-02  0.1233525E+00
          5   -1    0    0  501    0  0.00000000000E+00  0.00000000000E+00  0.13953399478E+03  0.13961312867E+03  0.47000000000E+01 0.  1.
         -5   -1    0    0    0  501 -0.00000000000E+00 -0.00000000000E+00 -0.12494726046E+03  0.12503562651E+03  0.47000000000E+01 0.  1.
         25    2    1    2    0    0  0.13807410705E+01 -0.15694256875E+02 -0.32549408723E+02  0.13012547969E+03  0.12499984125E+03 0.  0.
         25    2    1    2    0    0 -0.13807410705E+01  0.15694256875E+02  0.47136143037E+02  0.13452327549E+03  0.12500591796E+03 0.  0.
          5    1    4    4  502    0 -0.81932600125E+01  0.20764532411E+02  0.88831142128E+02  0.91713451182E+02  0.47000000000E+01 0.  1.
         -5    1    4    4    0  502  0.68125189420E+01 -0.50702755365E+01 -0.41694999092E+02  0.42809824312E+02  0.47000000000E+01 0.  1.
          5    1    3    3  503    0  0.12119238434E+02  0.44376838731E+02 -0.48362191736E+02  0.66911668231E+02  0.47000000000E+01 0. -1.
         -5    1    3    3    0  503 -0.10738497364E+02 -0.60071095606E+02  0.15812783013E+02  0.63213811462E+02  0.47000000000E+01 0. -1.
<mgrwt>
<rscale>  0 0.12599332E+03</rscale>
<asrwt>0</asrwt>
<pdfrwt beam="1">  1        5 0.21479653E-01 0.12599482E+03</pdfrwt>
<pdfrwt beam="2">  1       -5 0.19235540E-01 0.12599482E+03</pdfrwt>
<totfact> 0.35573463E+02</totfact>
</mgrwt>
</event>
<event>
 8    1  0.3488953E-007  0.1451601E+03  0.7546771E-02  0.1206552E+00
         -5   -1    0    0    0  501 -0.00000000000E+00  0.00000000000E+00  0.84123910127E+03  0.84125223061E+03  0.47000000000E+01 0.  1.
          5   -1    0    0  501    0  0.00000000000E+00 -0.00000000000E+00 -0.24893650387E+02  0.25333452777E+02  0.47000000000E+01 0.  1.
         25    2    1    2    0    0  0.64461833547E+02 -0.35910523268E+02  0.43261227507E+03  0.45631658009E+03  0.12500618808E+03 0.  0.
         25    2    1    2    0    0 -0.64461833547E+02  0.35910523268E+02  0.38373317581E+03  0.41026910329E+03  0.12499877293E+03 0.  0.
          5    1    3    3  502    0  0.61562332642E+01 -0.40868456558E+02  0.34907221491E+02  0.54302247298E+02  0.47000000000E+01 0.  1.
         -5    1    3    3    0  502  0.58305600283E+02  0.49579332898E+01  0.39770505358E+03  0.40201433279E+03  0.47000000000E+01 0.  1.
          5    1    4    4  503    0 -0.99842732037E+02  0.21112522780E+02  0.22845559966E+03  0.25025658987E+03  0.47000000000E+01 0. -1.
         -5    1    4    4    0  503  0.35380898490E+02  0.14798000489E+02  0.15527757615E+03  0.16001251342E+03  0.47000000000E+01 0. -1.
<mgrwt>
<rscale>  0 0.14515846E+03</rscale>
<asrwt>0</asrwt>
<pdfrwt beam="2">  1        5 0.38646337E-02 0.14516005E+03</pdfrwt>
<pdfrwt beam="1">  1       -5 0.12945623E+00 0.14516005E+03</pdfrwt>
<totfact> 0.12185801E+02</totfact>
</mgrwt>
</event>
<event>
 8    1  0.3488953E-007  0.1348368E+03  0.7546771E-02  0.1220452E+00
         -5   -1    0    0    0  501 -0.00000000000E+00  0.00000000000E+00  0.10054195646E+03  0.10065175114E+03  0.47000000000E+01 0. -1.
          5   -1    0    0  501    0  0.00000000000E+00 -0.00000000000E+00 -0.21336280464E+03  0.21341456465E+03  0.47000000000E+01 0. -1.
         25    2    1    2    0    0  0.10282020518E+02 -0.49496212795E+02  0.51174552081E+01  0.13492838420E+03  0.12499554187E+03 0.  0.
         25    2    1    2    0    0 -0.10282020518E+02  0.49496212795E+02 -0.11793830339E+03  0.17913793160E+03  0.12500144041E+03 0.  0.
          5    1    4    4  502    0  0.18866778637E+02  0.46477506078E+02 -0.13556162555E+03  0.14462073927E+03  0.47000000000E+01 0. -1.
         -5    1    4    4    0  502 -0.29148799155E+02  0.30187067165E+01  0.17623322152E+02  0.34517192327E+02  0.47000000000E+01 0. -1.
          5    1    3    3  503    0 -0.33708859992E+02 -0.65206427152E+02 -0.26660199938E+02  0.78236958303E+02  0.47000000000E+01 0. -1.
         -5    1    3    3    0  503  0.43990880510E+02  0.15710214357E+02  0.31777655146E+02  0.56691425893E+02  0.47000000000E+01 0. -1.
<mgrwt>
<rscale>  0 0.13483541E+03</rscale>
<asrwt>0</asrwt>
<pdfrwt beam="2">  1        5 0.32837474E-01 0.13483677E+03</pdfrwt>
<pdfrwt beam="1">  1       -5 0.15480421E-01 0.13483677E+03</pdfrwt>
<totfact> 0.23930821E+02</totfact>
</mgrwt>
</event>
<event>
 8    1  0.3488953E-007  0.1463194E+03  0.7546771E-02  0.1205070E+00
         -5   -1    0    0    0  501 -0.00000000000E+00  0.00000000000E+00  0.23363247790E+03  0.23367974822E+03  0.47000000000E+01 0.  1.
          5   -1    0    0  501    0  0.00000000000E+00 -0.00000000000E+00 -0.93914469125E+02  0.94032002590E+02  0.47000000000E+01 0.  1.
         25    2    1    2    0    0 -0.66206670973E+02 -0.37426185336E+02  0.96002130962E+02  0.17500140019E+03  0.12500015316E+03 0.  0.
         25    2    1    2    0    0  0.66206670973E+02  0.37426185336E+02  0.43715877810E+02  0.15271035062E+03  0.12500132233E+03 0.  0.
          5    1    4    4  502    0  0.90951857753E+02 -0.74435842699E+01  0.11738841707E+02  0.92127833906E+02  0.47000000000E+01 0. -1.
         -5    1    4    4    0  502 -0.24745186780E+02  0.44869769606E+02  0.31977036102E+02  0.60582516712E+02  0.47000000000E+01 0. -1.
          5    1    3    3  503    0 -0.10315895575E+03 -0.25591273662E+02  0.78285800953E+02  0.13208875830E+03  0.47000000000E+01 0.  1.
         -5    1    3    3    0  503  0.36952284779E+02 -0.11834911675E+02  0.17716330008E+02  0.42912641887E+02  0.47000000000E+01 0.  1.
<mgrwt>
<rscale>  0 0.14631917E+03</rscale>
<asrwt>0</asrwt>
<pdfrwt beam="2">  1        5 0.14461057E-01 0.14631942E+03</pdfrwt>
<pdfrwt beam="1">  1       -5 0.35956135E-01 0.14631942E+03</pdfrwt>
<totfact> 0.23208494E+02</totfact>
</mgrwt>
</event>
<event>
 8    1  0.3488953E-007  0.1282919E+03  0.7546771E-02  0.1230013E+00
         -5   -1    0    0    0  501 -0.00000000000E+00  0.00000000000E+00  0.54422416876E+03  0.54424446333E+03  0.47000000000E+01 0.  1.
          5   -1    0    0  501    0  0.00000000000E+00 -0.00000000000E+00 -0.30765825367E+02  0.31122757116E+02  0.47000000000E+01 0.  1.
         25    2    1    2    0    0 -0.96293631224E+01  0.27210590930E+02  0.21277692067E+03  0.24846030869E+03  0.12500146451E+03 0.  0.
         25    2    1    2    0    0  0.96293631224E+01 -0.27210590930E+02  0.30068142272E+03  0.32690691176E+03  0.12500268034E+03 0.  0.
          5    1    3    3  502    0 -0.43549063318E+02 -0.29415073750E+02  0.49765688369E+02  0.72529174947E+02  0.47000000000E+01 0.  1.
         -5    1    3    3    0  502  0.33919700196E+02  0.56625664680E+02  0.16301123230E+03  0.17593113374E+03  0.47000000000E+01 0.  1.
          5    1    4    4  503    0  0.58971708486E+02 -0.39753497364E+02  0.22121291934E+03  0.23241180830E+03  0.47000000000E+01 0. -1.
         -5    1    4    4    0  503 -0.49342345364E+02  0.12542906434E+02  0.79468503375E+02  0.94495103453E+02  0.47000000000E+01 0. -1.
<mgrwt>
<rscale>  0 0.12829160E+03</rscale>
<asrwt>0</asrwt>
<pdfrwt beam="2">  1        5 0.47622216E-02 0.12829190E+03</pdfrwt>
<pdfrwt beam="1">  1       -5 0.83755808E-01 0.12829190E+03</pdfrwt>
<totfact> 0.24204246E+02</totfact>
</mgrwt>
</event>
<event>
 8    1  0.3488953E-007  0.1564959E+03  0.7546771E-02  0.1192717E+00
         -5   -1    0    0    0  501 -0.00000000000E+00  0.00000000000E+00  0.10223573631E+03  0.10234371392E+03  0.47000000000E+01 0. -1.
          5   -1    0    0  501    0  0.00000000000E+00 -0.00000000000E+00 -0.24963012982E+03  0.24967437136E+03  0.47000000000E+01 0. -1.
         25    2    1    2    0    0 -0.93283452182E+02 -0.12629265527E+02 -0.37830802576E+02  0.16098109500E+03  0.12498976968E+03 0.  0.
         25    2    1    2    0    0  0.93283452182E+02  0.12629265527E+02 -0.10956359093E+03  0.19103699028E+03  0.12501860021E+03 0.  0.
          5    1    3    3  502    0 -0.95677005129E+02 -0.61471600969E+01 -0.75670705401E+02  0.12222938494E+03  0.47000000000E+01 0. -1.
         -5    1    3    3    0  502  0.23935529470E+01 -0.64821054306E+01  0.37839902825E+02  0.38751710057E+02  0.47000000000E+01 0. -1.
          5    1    4    4  503    0  0.62133628835E+02  0.50304979047E+02 -0.10893207710E+02  0.80820360821E+02  0.47000000000E+01 0.  1.
         -5    1    4    4    0  503  0.31149823347E+02 -0.37675713519E+02 -0.98670383219E+02  0.11021662946E+03  0.47000000000E+01 0.  1.
<mgrwt>
<rscale>  0 0.15649009E+03</rscale>
<asrwt>0</asrwt>
<pdfrwt beam="2">  1        5 0.38416344E-01 0.15649585E+03</pdfrwt>
<pdfrwt beam="1">  1       -5 0.15740284E-01 0.15649585E+03</pdfrwt>
<totfact> 0.17792439E+02</totfact>
</mgrwt>
</event>
<event>
 8    1  0.3488953E-007  0.1581970E+03  0.7546771E-02  0.1190752E+00
          5   -1    0    0  501    0  0.00000000000E+00  0.00000000000E+00  0.11877500903E+03  0.11886796360E+03  0.47000000000E+01 0. -1.
         -5   -1    0    0    0  501 -0.00000000000E+00 -0.00000000000E+00 -0.21999829246E+03  0.22004849166E+03  0.47000000000E+01 0. -1.
         25    2    1    2    0    0 -0.57886442188E+02 -0.77757162068E+02 -0.85843692018E+02  0.17997361845E+03  0.12499738972E+03 0.  0.
         25    2    1    2    0    0  0.57886442188E+02  0.77757162068E+02 -0.15379591404E+02  0.15894283682E+03  0.12501710724E+03 0.  0.
          5    1    4    4  502    0  0.10136452236E+02  0.10315051384E+03 -0.13455252446E+02  0.10462270303E+03  0.47000000000E+01 0. -1.
         -5    1    4    4    0  502  0.47749989952E+02 -0.25393351775E+02 -0.19243389584E+01  0.54320133792E+02  0.47000000000E+01 0. -1.
          5    1    3    3  503    0 -0.37995056042E+02 -0.93225758226E+02 -0.11619872877E+02  0.10144839933E+03  0.47000000000E+01 0.  1.
         -5    1    3    3    0  503 -0.19891386146E+02  0.15468596158E+02 -0.74223819141E+02  0.78525219120E+02  0.47000000000E+01 0.  1.
<mgrwt>
<rscale>  0 0.15819311E+03</rscale>
<asrwt>0</asrwt>
<pdfrwt beam="1">  1        5 0.18284090E-01 0.15819701E+03</pdfrwt>
<pdfrwt beam="2">  1       -5 0.33856903E-01 0.15819701E+03</pdfrwt>
<totfact> 0.17497375E+02</totfact>
</mgrwt>
</event>
<event>
 8    1  0.3488953E-007  0.1275395E+03  0.7546771E-02  0.1231154E+00
         -5   -1    0    0    0  501 -0.00000000000E+00  0.00000000000E+00  0.11520347864E+03  0.11529931262E+03  0.47000000000E+01 0.  1.
          5   -1    0    0  501    0  0.00000000000E+00 -0.00000000000E+00 -0.14132440962E+03  0.14140254154E+03  0.47000000000E+01 0.  1.
         25    2    1    2    0    0  0.92204131143E+01  0.23577273651E+02 -0.69121235715E+01  0.12772389832E+03  0.12499885159E+03 0.  0.
         25    2    1    2    0    0 -0.92204131143E+01 -0.23577273651E+02 -0.19208807415E+02  0.12897795584E+03  0.12500172382E+03 0.  0.
          5    1    3    3  502    0  0.41746215082E+02  0.63281151559E+02 -0.56896453456E+01  0.76168974527E+02  0.47000000000E+01 0. -1.
         -5    1    3    3    0  502 -0.32525801968E+02 -0.39703877909E+02 -0.12224782259E+01  0.51554923796E+02  0.47000000000E+01 0. -1.
          5    1    4    4  503    0 -0.29349262117E+01 -0.50693932549E+02 -0.60395458885E+02  0.79045493503E+02  0.47000000000E+01 0.  1.
         -5    1    4    4    0  503 -0.62854869026E+01  0.27116658898E+02  0.41186651471E+02  0.49932462334E+02  0.47000000000E+01 0.  1.
<mgrwt>
<rscale>  0 0.12753884E+03</rscale>
<asrwt>0</asrwt>
<pdfrwt beam="2">  1        5 0.21755599E-01 0.12753954E+03</pdfrwt>
<pdfrwt beam="1">  1       -5 0.17736994E-01 0.12753954E+03</pdfrwt>
<totfact> 0.40524589E+02</totfact>
</mgrwt>
</event>
<event>
 8    1  0.3488953E-007  0.1448805E+03  0.7546771E-02  0.1206909E+00
         -5   -1    0    0    0  501 -0.00000000000E+00  0.00000000000E+00  0.27759512240E+03  0.27763490771E+03  0.47000000000E+01 0. -1.
          5   -1    0    0  501    0  0.00000000000E+00 -0.00000000000E+00 -0.96828421498E+02  0.96942422137E+02  0.47000000000E+01 0. -1.
         25    2    1    2    0    0 -0.51811384040E+02 -0.51777127636E+02  0.17821463361E+03  0.22967546633E+03  0.12500029495E+03 0.  0.
         25    2    1    2    0    0  0.51811384040E+02  0.51777127636E+02  0.25520672946E+01  0.14490186352E+03  0.12499898617E+03 0.  0.
          5    1    4    4  502    0 -0.17007800193E+02  0.54231733550E+02  0.36776359041E+02  0.67859684464E+02  0.47000000000E+01 0.  1.
         -5    1    4    4    0  502  0.68819184233E+02 -0.24546059136E+01 -0.34224291746E+02  0.77042179060E+02  0.47000000000E+01 0.  1.
          5    1    3    3  503    0  0.51113571161E+01 -0.35219674654E+02 -0.57343426303E+01  0.36352773480E+02  0.47000000000E+01 0. -1.
         -5    1    3    3    0  503 -0.56922741156E+02 -0.16557452983E+02  0.18394897624E+03  0.19332269285E+03  0.47000000000E+01 0. -1.
<mgrwt>
<rscale>  0 0.14488023E+03</rscale>
<asrwt>0</asrwt>
<pdfrwt beam="2">  1        5 0.14908510E-01 0.14488052E+03</pdfrwt>
<pdfrwt beam="1">  1       -5 0.42718771E-01 0.14488052E+03</pdfrwt>
<totfact> 0.15400476E+02</totfact>
</mgrwt>
</event>
<event>
 8    1  0.3488953E-007  0.1677880E+03  0.7546771E-02  0.1180180E+00
          5   -1    0    0  501    0  0.00000000000E+00  0.00000000000E+00  0.58324806368E+02  0.58513870474E+02  0.47000000000E+01 0. -1.
         -5   -1    0    0    0  501 -0.00000000000E+00 -0.00000000000E+00 -0.58036674875E+03  0.58038577951E+03  0.47000000000E+01 0. -1.
         25    2    1    2    0    0 -0.97985197277E+02 -0.54101157982E+02 -0.39273234559E+03  0.42706531915E+03  0.12497222640E+03 0.  0.
         25    2    1    2    0    0  0.97985197277E+02  0.54101157982E+02 -0.12930959679E+03  0.21183433083E+03  0.12499911086E+03 0.  0.
          5    1    3    3  502    0 -0.11247246545E+03 -0.56422022851E+02 -0.39190454739E+03  0.41163668983E+03  0.47000000000E+01 0. -1.
         -5    1    3    3    0  502  0.14487268175E+02  0.23208648683E+01 -0.82779819658E+00  0.15428629322E+02  0.47000000000E+01 0. -1.
          5    1    4    4  503    0  0.31939296351E+02  0.71326739162E+02 -0.11928973587E+03  0.14268760792E+03  0.47000000000E+01 0. -1.
         -5    1    4    4    0  503  0.66045900926E+02 -0.17225581179E+02 -0.10019860927E+02  0.69146722909E+02  0.47000000000E+01 0. -1.
<mgrwt>
<rscale>  0 0.16778299E+03</rscale>
<asrwt>0</asrwt>
<pdfrwt beam="1">  1        5 0.89890548E-02 0.16778800E+03</pdfrwt>
<pdfrwt beam="2">  1       -5 0.89303195E-01 0.16778800E+03</pdfrwt>
<totfact> 0.77347402E+01</totfact>
</mgrwt>
</event>
<event>
 8    1  0.3488953E-007  0.1347235E+03  0.7546771E-02  0.1220611E+00
         -5   -1    0    0    0  501 -0.00000000000E+00  0.00000000000E+00  0.16029488323E+04  0.16029557227E+04  0.47000000000E+01 0. -1.
          5   -1    0    0  501    0  0.00000000000E+00 -0.00000000000E+00 -0.13596781166E+02  0.14386189839E+02  0.47000000000E+01 0. -1.
         25    2    1    2    0    0  0.37322267099E+02 -0.33649935900E+02  0.11482048716E+04  0.11560814155E+04  0.12499816911E+03 0.  0.
         25    2    1    2    0    0 -0.37322267099E+02  0.33649935900E+02  0.44114717953E+03  0.46126049705E+03  0.12500056930E+03 0.  0.
          5    1    4    4  502    0  0.31196427263E+02 -0.28085759124E+02  0.14824753832E+03  0.15414749287E+03  0.47000000000E+01 0.  1.
         -5    1    4    4    0  502 -0.68518694362E+02  0.61735695024E+02  0.29289964121E+03  0.30711300418E+03  0.47000000000E+01 0.  1.
          5    1    3    3  503    0  0.46788277655E+02 -0.58895203220E+02  0.38066474196E+03  0.38805350618E+03  0.47000000000E+01 0. -1.
         -5    1    3    3    0  503 -0.94660105561E+01  0.25245267320E+02  0.76754012965E+03  0.76802790933E+03  0.47000000000E+01 0. -1.
<mgrwt>
<rscale>  0 0.13472291E+03</rscale>
<asrwt>0</asrwt>
<pdfrwt beam="2">  1        5 0.21530656E-02 0.13472347E+03</pdfrwt>
<pdfrwt beam="1">  1       -5 0.24666884E+00 0.13472347E+03</pdfrwt>
<totfact> 0.44591306E+01</totfact>
</mgrwt>
</event>
<event>
 8    1  0.3488953E-007  0.1397333E+03  0.7546771E-02  0.1213689E+00
          5   -1    0    0  501    0  0.00000000000E+00  0.00000000000E+00  0.84376643040E+02  0.84507442813E+02  0.47000000000E+01 0.  1.
         -5   -1    0    0    0  501 -0.00000000000E+00 -0.00000000000E+00 -0.27296261175E+03  0.27300307217E+03  0.47000000000E+01 0.  1.
         25    2    1    2    0    0 -0.37351808829E+02  0.50056371862E+02 -0.16429859578E+03  0.21568364663E+03  0.12499843544E+03 0.  0.
         25    2    1    2    0    0  0.37351808829E+02 -0.50056371862E+02 -0.24287372935E+02  0.14182686835E+03  0.12499674442E+03 0.  0.
          5    1    4    4  502    0 -0.43401247287E+02 -0.24432190245E+02 -0.27165524844E+02  0.56926759316E+02  0.47000000000E+01 0.  1.
         -5    1    4    4    0  502  0.80753056115E+02 -0.25624181618E+02  0.28781519097E+01  0.84900109034E+02  0.47000000000E+01 0.  1.
          5    1    3    3  503    0 -0.17311092629E+02  0.58618280874E+01 -0.16583590595E+03  0.16690617921E+03  0.47000000000E+01 0. -1.
         -5    1    3    3    0  503 -0.20040716199E+02  0.44194543775E+02  0.15373101754E+01  0.48777467419E+02  0.47000000000E+01 0. -1.
<mgrwt>
<rscale>  0 0.13973296E+03</rscale>
<asrwt>0</asrwt>
<pdfrwt beam="1">  1        5 0.12994196E-01 0.13973334E+03</pdfrwt>
<pdfrwt beam="2">  1       -5 0.42007421E-01 0.13973334E+03</pdfrwt>
<totfact> 0.20171818E+02</totfact>
</mgrwt>
</event>
<event>
 8    1  0.3488953E-007  0.1603208E+03  0.7546771E-02  0.1188335E+00
          5   -1    0    0  501    0  0.00000000000E+00  0.00000000000E+00  0.34639562306E+03  0.34642750710E+03  0.47000000000E+01 0. -1.
         -5   -1    0    0    0  501 -0.00000000000E+00 -0.00000000000E+00 -0.80925154813E+02  0.81061524051E+02  0.47000000000E+01 0. -1.
         25    2    1    2    0    0 -0.10023312598E+03  0.55210996058E+01  0.70685946746E+02  0.17521186929E+03  0.12500213594E+03 0.  0.
         25    2    1    2    0    0  0.10023312598E+03 -0.55210996058E+01  0.19478452150E+03  0.25227716186E+03  0.12500237796E+03 0.  0.
          5    1    3    3  502    0 -0.10444948476E+03 -0.33156948419E+02  0.78968480184E+02  0.13515616507E+03  0.47000000000E+01 0.  1.
         -5    1    3    3    0  502  0.42163587836E+01  0.38678048025E+02 -0.82825334385E+01  0.40055704220E+02  0.47000000000E+01 0.  1.
          5    1    4    4  503    0  0.50735960689E+02  0.24999929890E+02  0.88961252760E+01  0.57448805440E+02  0.47000000000E+01 0.  1.
         -5    1    4    4    0  503  0.49497165286E+02 -0.30521029496E+02  0.18588839623E+03  0.19482835642E+03  0.47000000000E+01 0.  1.
<mgrwt>
<rscale>  0 0.16032075E+03</rscale>
<asrwt>0</asrwt>
<pdfrwt beam="1">  1        5 0.53304576E-01 0.16032079E+03</pdfrwt>
<pdfrwt beam="2">  1       -5 0.12462967E-01 0.16032079E+03</pdfrwt>
<totfact> 0.13768292E+02</totfact>
</mgrwt>
</event>
<event>
 8    1  0.3488953E-007  0.1371032E+03  0.7546771E-02  0.1217288E+00
         -5   -1    0    0    0  501 -0.00000000000E+00  0.00000000000E+00  0.15162437005E+03  0.15169719705E+03  0.47000000000E+01 0. -1.
          5   -1    0    0  501    0  0.00000000000E+00 -0.00000000000E+00 -0.12382248790E+03  0.12391165607E+03  0.47000000000E+01 0. -1.
         25    2    1    2    0    0 -0.19521371540E+02 -0.52782234347E+02  0.15438664347E+02  0.13796970201E+03  0.12502095067E+03 0.  0.
         25    2    1    2    0    0  0.19521371540E+02  0.52782234347E+02  0.12363217804E+02  0.13763915112E+03  0.12499855422E+03 0.  0.
          5    1    4    4  502    0  0.46967441210E+02  0.36538016396E+02 -0.43005083349E+02  0.73569656584E+02  0.47000000000E+01 0. -1.
         -5    1    4    4    0  502 -0.27446069670E+02  0.16244217951E+02  0.55368301153E+02  0.64069494534E+02  0.47000000000E+01 0. -1.
          5    1    3    3  503    0  0.42440120490E+02  0.31839496040E+00 -0.22035687282E+02  0.48051292559E+02  0.47000000000E+01 0.  1.
         -5    1    3    3    0  503 -0.61961492031E+02 -0.53100629308E+02  0.37474351629E+02  0.89918409447E+02  0.47000000000E+01 0.  1.
<mgrwt>
<rscale>  0 0.13709809E+03</rscale>
<asrwt>0</asrwt>
<pdfrwt beam="2">  1        5 0.19062075E-01 0.13710320E+03</pdfrwt>
<pdfrwt beam="1">  1       -5 0.23339287E-01 0.13710320E+03</pdfrwt>
<totfact> 0.31875999E+02</totfact>
</mgrwt>
</event>
<event>
 8    1  0.3488953E-007  0.1401252E+03  0.7546771E-02  0.1213170E+00
          5   -1    0    0  501    0  0.00000000000E+00  0.00000000000E+00  0.89631996434E+01  0.10120718742E+02  0.47000000000E+01 0.  1.
         -5   -1    0    0    0  501 -0.00000000000E+00 -0.00000000000E+00 -0.20630540300E+04  0.20630593837E+04  0.47000000000E+01 0.  1.
         25    2    1    2    0    0 -0.14647755590E+02  0.61541281387E+02 -0.96739222716E+03  0.97748800703E+03  0.12503278233E+03 0.  0.
         25    2    1    2    0    0  0.14647755590E+02 -0.61541281387E+02 -0.10866986032E+04  0.10956920954E+04  0.12500171085E+03 0.  0.
          5    1    3    3  502    0 -0.39713834085E+02  0.46003253319E+02 -0.19034103302E+03  0.19986317015E+03  0.47000000000E+01 0.  1.
         -5    1    3    3    0  502  0.25066078496E+02  0.15538028068E+02 -0.77705119414E+03  0.77762483688E+03  0.47000000000E+01 0.  1.
          5    1    4    4  503    0  0.72175458486E+01 -0.33773840168E+02 -0.66525015874E+02  0.75102816091E+02  0.47000000000E+01 0.  1.
         -5    1    4    4    0  503  0.74302097412E+01 -0.27767441219E+02 -0.10201735874E+04  0.10205892794E+04  0.47000000000E+01 0.  1.
<mgrwt>
<rscale>  0 0.14011831E+03</rscale>
<asrwt>0</asrwt>
<pdfrwt beam="1">  1        5 0.14684072E-02 0.14012524E+03</pdfrwt>
<pdfrwt beam="2">  1       -5 0.31748202E+00 0.14012524E+03</pdfrwt>
<totfact> 0.29418056E+01</totfact>
</mgrwt>
</event>
<event>
 8    1  0.3488953E-007  0.1268660E+03  0.7546771E-02  0.1232188E+00
          5   -1    0    0  501    0  0.00000000000E+00  0.00000000000E+00  0.12425999717E+02  0.13285159727E+02  0.47000000000E+01 0. -1.
         -5   -1    0    0    0  501 -0.00000000000E+00 -0.00000000000E+00 -0.12848506584E+04  0.12848592547E+04  0.47000000000E+01 0. -1.
         25    2    1    2    0    0 -0.21441443200E+02 -0.33444672466E+01 -0.53086907449E+03  0.54581768445E+03  0.12499619780E+03 0.  0.
         25    2    1    2    0    0  0.21441443200E+02  0.33444672466E+01 -0.74155558420E+03  0.75232672998E+03  0.12497961129E+03 0.  0.
          5    1    4    4  502    0  0.44953273482E+02  0.46661863347E+02 -0.25068596157E+03  0.25896653764E+03  0.47000000000E+01 0. -1.
         -5    1    4    4    0  502 -0.23511830282E+02 -0.43317396100E+02 -0.49086962262E+03  0.49336019234E+03  0.47000000000E+01 0. -1.
          5    1    3    3  503    0  0.46197420319E+02 -0.79475927022E+01 -0.33923358241E+03  0.34248923969E+03  0.47000000000E+01 0.  1.
         -5    1    3    3    0  503 -0.67638863519E+02  0.46031254556E+01 -0.19163549208E+03  0.20332844476E+03  0.47000000000E+01 0.  1.
<mgrwt>
<rscale>  0 0.12686187E+03</rscale>
<asrwt>0</asrwt>
<pdfrwt beam="1">  1        5 0.19784438E-02 0.12686595E+03</pdfrwt>
<pdfrwt beam="2">  1       -5 0.19773598E+00 0.12686595E+03</pdfrwt>
<totfact> 0.10426496E+02</totfact>
</mgrwt>
</event>
<event>
 8    1  0.3488953E-007  0.1511296E+03  0.7546771E-02  0.1199095E+00
         -5   -1    0    0    0  501 -0.00000000000E+00  0.00000000000E+00  0.63819853623E+02  0.63992684867E+02  0.47000000000E+01 0. -1.
          5   -1    0    0  501    0  0.00000000000E+00 -0.00000000000E+00 -0.36042976433E+03  0.36046040700E+03  0.47000000000E+01 0. -1.
         25    2    1    2    0    0 -0.80457231714E+02 -0.27250529023E+02 -0.12817941026E+03  0.19816686872E+03  0.12499675666E+03 0.  0.
         25    2    1    2    0    0  0.80457231714E+02  0.27250529023E+02 -0.16843050045E+03  0.22628622315E+03  0.12498265416E+03 0.  0.
          5    1    4    4  502    0  0.54371654880E+02 -0.46963438395E+02 -0.73157419193E+02  0.10264472409E+03  0.47000000000E+01 0. -1.
         -5    1    4    4    0  502  0.26085576834E+02  0.74213967418E+02 -0.95273081253E+02  0.12364149906E+03  0.47000000000E+01 0. -1.
          5    1    3    3  503    0 -0.10465199291E+03  0.10689789900E+02 -0.97451955490E+02  0.14347572916E+03  0.47000000000E+01 0.  1.
         -5    1    3    3    0  503  0.24194761199E+02 -0.37940318923E+02 -0.30727454770E+02  0.54691139557E+02  0.47000000000E+01 0.  1.
<mgrwt>
<rscale>  0 0.15112665E+03</rscale>
<asrwt>0</asrwt>
<pdfrwt beam="2">  1        5 0.55466384E-01 0.15112957E+03</pdfrwt>
<pdfrwt beam="1">  1       -5 0.98340911E-02 0.15112957E+03</pdfrwt>
<totfact> 0.18832809E+02</totfact>
</mgrwt>
</event>
<event>
 8    1  0.3488953E-007  0.1293526E+03  0.7546771E-02  0.1228421E+00
         -5   -1    0    0    0  501 -0.00000000000E+00  0.00000000000E+00  0.67737970552E+03  0.67739601080E+03  0.47000000000E+01 0. -1.
          5   -1    0    0  501    0  0.00000000000E+00 -0.00000000000E+00 -0.24473740755E+02  0.24920954768E+02  0.47000000000E+01 0. -1.
         25    2    1    2    0    0 -0.32375039287E+02 -0.76531924510E+01  0.33463053920E+03  0.35876133663E+03  0.12500153749E+03 0.  0.
         25    2    1    2    0    0  0.32375039287E+02  0.76531924510E+01  0.31827542557E+03  0.34355562894E+03  0.12499803651E+03 0.  0.
          5    1    3    3  502    0  0.34809531792E+02 -0.38847027213E+02  0.10334079913E+03  0.11585424373E+03  0.47000000000E+01 0. -1.
         -5    1    3    3    0  502 -0.67184571079E+02  0.31193834762E+02  0.23128974007E+03  0.24290709290E+03  0.47000000000E+01 0. -1.
          5    1    4    4  503    0  0.80237392182E+02  0.20916800143E+01  0.21343990195E+03  0.22808133631E+03  0.47000000000E+01 0.  1.
         -5    1    4    4    0  503 -0.47862352895E+02  0.55615124366E+01  0.10483552362E+03  0.11547429263E+03  0.47000000000E+01 0.  1.
<mgrwt>
<rscale>  0 0.12935177E+03</rscale>
<asrwt>0</asrwt>
<pdfrwt beam="2">  1        5 0.38008460E-02 0.12935261E+03</pdfrwt>
<pdfrwt beam="1">  1       -5 0.10424792E+00 0.12935261E+03</pdfrwt>
<totfact> 0.20836231E+02</totfact>
</mgrwt>
</event>
<event>
 8    1  0.3488953E-007  0.1446633E+03  0.7546771E-02  0.1207191E+00
         -5   -1    0    0    0  501 -0.00000000000E+00  0.00000000000E+00  0.43541518234E+02  0.43794449535E+02  0.47000000000E+01 0. -1.
          5   -1    0    0  501    0  0.00000000000E+00 -0.00000000000E+00 -0.69758068793E+03  0.69759652104E+03  0.47000000000E+01 0. -1.
         25    2    1    2    0    0 -0.72401511032E+02  0.77762228129E+01 -0.11953946789E+03  0.18766232059E+03  0.12500005497E+03 0.  0.
         25    2    1    2    0    0  0.72401511032E+02 -0.77762228129E+01 -0.53449970180E+03  0.55372864999E+03  0.12499215238E+03 0.  0.
          5    1    4    4  502    0  0.79662382642E+01 -0.30010585886E+02 -0.41413040715E+03  0.41531937150E+03  0.47000000000E+01 0. -1.
         -5    1    4    4    0  502  0.64435272768E+02  0.22234363074E+02 -0.12036929466E+03  0.13840927850E+03  0.47000000000E+01 0. -1.
          5    1    3    3  503    0  0.13977652699E+02 -0.41239228219E+02 -0.24828771346E+02  0.50344876657E+02  0.47000000000E+01 0.  1.
         -5    1    3    3    0  503 -0.86379163731E+02  0.49015451031E+02 -0.94710696547E+02  0.13731744393E+03  0.47000000000E+01 0.  1.
<mgrwt>
<rscale>  0 0.14466156E+03</rscale>
<asrwt>0</asrwt>
<pdfrwt beam="2">  1        5 0.10734077E+00 0.14466327E+03</pdfrwt>
<pdfrwt beam="1">  1       -5 0.67193698E-02 0.14466327E+03</pdfrwt>
<totfact> 0.77949038E+01</totfact>
</mgrwt>
</event>
<event>
 8    1  0.3488953E-007  0.1701929E+03  0.7546771E-02  0.1177648E+00
         -5   -1    0    0    0  501 -0.00000000000E+00  0.00000000000E+00  0.27730333309E+03  0.27734316026E+03  0.47000000000E+01 0. -1.
          5   -1    0    0  501    0  0.00000000000E+00 -0.00000000000E+00 -0.10435333817E+03  0.10445912687E+03  0.47000000000E+01 0. -1.
         25    2    1    2    0    0  0.11513741119E+03 -0.91200509568E+01  0.85728828588E+02  0.19056509893E+03  0.12500330433E+03 0.  0.
         25    2    1    2    0    0 -0.11513741119E+03  0.91200509568E+01  0.87221166338E+02  0.19123718821E+03  0.12499732602E+03 0.  0.
          5    1    3    3  502    0  0.12463428690E+03 -0.15050314206E+02  0.10769202814E+03  0.16546866880E+03  0.47000000000E+01 0. -1.
         -5    1    3    3    0  502 -0.94968757190E+01  0.59302632494E+01 -0.21963199550E+02  0.25096430126E+02  0.47000000000E+01 0. -1.
          5    1    4    4  503    0 -0.75646989596E+02 -0.55267011750E+02  0.39579977505E+02  0.10181146420E+03  0.47000000000E+01 0.  1.
         -5    1    4    4    0  503 -0.39490421589E+02  0.64387062707E+02  0.47641188833E+02  0.89425724010E+02  0.47000000000E+01 0.  1.
<mgrwt>
<rscale>  0 0.17019181E+03</rscale>
<asrwt>0</asrwt>
<pdfrwt beam="2">  1        5 0.16065561E-01 0.17019290E+03</pdfrwt>
<pdfrwt beam="1">  1       -5 0.42673253E-01 0.17019290E+03</pdfrwt>
<totfact> 0.14171816E+02</totfact>
</mgrwt>
</event>
<event>
 8    1  0.3488953E-007  0.1341913E+03  0.7546771E-02  0.1221368E+00
          5   -1    0    0  501    0  0.00000000000E+00  0.00000000000E+00  0.22739852934E+03  0.22744709527E+03  0.47000000000E+01 0.  1.
         -5   -1    0    0    0  501 -0.00000000000E+00 -0.00000000000E+00 -0.12009528318E+03  0.12018721663E+03  0.47000000000E+01 0.  1.
         25    2    1    2    0    0 -0.44612857837E+02  0.19771339710E+02 -0.47884440259E+02  0.14247890249E+03  0.12500442023E+03 0.  0.
         25    2    1    2    0    0  0.44612857837E+02 -0.19771339710E+02  0.15518768642E+03  0.20515540941E+03  0.12499724412E+03 0.  0.
          5    1    3    3  502    0 -0.46018578763E+02  0.69510731560E+02 -0.37000888387E+02  0.91326924478E+02  0.47000000000E+01 0.  1.
         -5    1    3    3    0  502  0.14057209256E+01 -0.49739391849E+02 -0.10883551872E+02  0.51151978009E+02  0.47000000000E+01 0.  1.
          5    1    4    4  503    0 -0.17031563923E+02  0.42582914010E+02  0.59757019049E+02  0.75474300665E+02  0.47000000000E+01 0.  1.
         -5    1    4    4    0  503  0.61644421760E+02 -0.62354253720E+02  0.95430667368E+02  0.12968110875E+03  0.47000000000E+01 0.  1.
<mgrwt>
<rscale>  0 0.13418968E+03</rscale>
<asrwt>0</asrwt>
<pdfrwt beam="1">  1        5 0.34995196E-01 0.13419135E+03</pdfrwt>
<pdfrwt beam="2">  1       -5 0.18487005E-01 0.13419135E+03</pdfrwt>
<totfact> 0.15203103E+02</totfact>
</mgrwt>
</event>
<event>
 8    1  0.3488953E-007  0.1378146E+03  0.7546771E-02  0.1216301E+00
         -5   -1    0    0    0  501 -0.00000000000E+00  0.00000000000E+00  0.92266924858E+02  0.92386554340E+02  0.47000000000E+01 0. -1.
          5   -1    0    0  501    0  0.00000000000E+00 -0.00000000000E+00 -0.22287920845E+03  0.22292875893E+03  0.47000000000E+01 0. -1.
         25    2    1    2    0    0 -0.30358137983E+02 -0.49458114140E+02 -0.21379870252E+02  0.13946145690E+03  0.12499871004E+03 0.  0.
         25    2    1    2    0    0  0.30358137983E+02  0.49458114140E+02 -0.10923241334E+03  0.17585385638E+03  0.12500054833E+03 0.  0.
          5    1    3    3  502    0 -0.59813854431E+02 -0.43242788439E+02  0.29932059247E+02  0.79785049381E+02  0.47000000000E+01 0. -1.
         -5    1    3    3    0  502  0.29455716448E+02 -0.62153257005E+01 -0.51311929499E+02  0.59676407515E+02  0.47000000000E+01 0. -1.
          5    1    4    4  503    0 -0.26452426326E+02 -0.17160296813E+02  0.45564878892E+01  0.32203388441E+02  0.47000000000E+01 0.  1.
         -5    1    4    4    0  503  0.56810564309E+02  0.66618410953E+02 -0.11378890123E+03  0.14365046794E+03  0.47000000000E+01 0.  1.
<mgrwt>
<rscale>  0 0.13781416E+03</rscale>
<asrwt>0</asrwt>
<pdfrwt beam="2">  1        5 0.34302123E-01 0.13781458E+03</pdfrwt>
<pdfrwt beam="1">  1       -5 0.14207925E-01 0.13781458E+03</pdfrwt>
<totfact> 0.25808938E+02</totfact>
</mgrwt>
</event>
<event>
 8    1  0.3488953E-007  0.1480969E+03  0.7546771E-02  0.1202836E+00
         -5   -1    0    0    0  501 -0.00000000000E+00  0.00000000000E+00  0.13883379341E+03  0.13891332618E+03  0.47000000000E+01 0. -1.
          5   -1    0    0  501    0  0.00000000000E+00 -0.00000000000E+00 -0.15843050202E+03  0.15850020180E+03  0.47000000000E+01 0. -1.
         25    2    1    2    0    0  0.52900079138E+02 -0.59246591626E+02 -0.19163990230E+02  0.14933170014E+03  0.12499648456E+03 0.  0.
         25    2    1    2    0    0 -0.52900079138E+02  0.59246591626E+02 -0.43271838312E+00  0.14808182784E+03  0.12497785204E+03 0.  0.
          5    1    3    3  502    0  0.46610870542E+02  0.30795384299E+02  0.34279703822E+01  0.56167338621E+02  0.47000000000E+01 0.  1.
         -5    1    3    3    0  502  0.62892085960E+01 -0.90041975925E+02 -0.22591960613E+02  0.93164361520E+02  0.47000000000E+01 0.  1.
          5    1    4    4  503    0 -0.18442209564E+02  0.89659660682E+02  0.25451532803E+02  0.95125392873E+02  0.47000000000E+01 0.  1.
         -5    1    4    4    0  503 -0.34457869574E+02 -0.30413069056E+02 -0.25884251186E+02  0.52956434968E+02  0.47000000000E+01 0.  1.
<mgrwt>
<rscale>  0 0.14809299E+03</rscale>
<asrwt>0</asrwt>
<pdfrwt beam="2">  1        5 0.24385403E-01 0.14809692E+03</pdfrwt>
<pdfrwt beam="1">  1       -5 0.21370525E-01 0.14809692E+03</pdfrwt>
<totfact> 0.24305438E+02</totfact>
</mgrwt>
</event>
<event>
 8    1  0.3488953E-007  0.1256555E+03  0.7546771E-02  0.1234049E+00
         -5   -1    0    0    0  501 -0.00000000000E+00  0.00000000000E+00  0.15561345784E+04  0.15561416761E+04  0.47000000000E+01 0.  1.
          5   -1    0    0  501    0  0.00000000000E+00 -0.00000000000E+00 -0.99723523934E+01  0.11024418908E+02  0.47000000000E+01 0.  1.
         25    2    1    2    0    0  0.10917487376E+02 -0.66361063448E+01  0.91797725501E+03  0.92653739360E+03  0.12500428629E+03 0.  0.
         25    2    1    2    0    0 -0.10917487376E+02  0.66361063448E+01  0.62818497102E+03  0.64062870143E+03  0.12500218334E+03 0.  0.
          5    1    4    4  502    0  0.18115411016E+02 -0.48938405599E+02  0.41709967684E+03  0.42037764697E+03  0.47000000000E+01 0. -1.
         -5    1    4    4    0  502 -0.29032898392E+02  0.55574511944E+02  0.21108529419E+03  0.22025105445E+03  0.47000000000E+01 0. -1.
          5    1    3    3  503    0 -0.16647793788E+02 -0.52444572678E+02  0.23275378161E+03  0.23921537387E+03  0.47000000000E+01 0. -1.
         -5    1    3    3    0  503  0.27565281164E+02  0.45808466334E+02  0.68522347340E+03  0.68732201973E+03  0.47000000000E+01 0. -1.
<mgrwt>
<rscale>  0 0.12565496E+03</rscale>
<asrwt>0</asrwt>
<pdfrwt beam="2">  1        5 0.16156822E-02 0.12565549E+03</pdfrwt>
<pdfrwt beam="1">  1       -5 0.23948679E+00 0.12565549E+03</pdfrwt>
<totfact> 0.76380892E+01</totfact>
</mgrwt>
</event>
<event>
 8    1  0.3488953E-007  0.1513191E+03  0.7546771E-02  0.1198863E+00
         -5   -1    0    0    0  501 -0.00000000000E+00  0.00000000000E+00  0.11940504905E+03  0.11949751352E+03  0.47000000000E+01 0. -1.
          5   -1    0    0  501    0  0.00000000000E+00 -0.00000000000E+00 -0.40070635533E+03  0.40073391820E+03  0.47000000000E+01 0. -1.
         25    2    1    2    0    0 -0.67598356480E+02  0.51984480720E+02  0.47238564975E+02  0.15852116693E+03  0.12500221722E+03 0.  0.
         25    2    1    2    0    0  0.67598356480E+02 -0.51984480720E+02 -0.32853987125E+03  0.36171026480E+03  0.12499577842E+03 0.  0.
          5    1    3    3  502    0 -0.28970417554E+02  0.53534158782E+02  0.84749710101E+02  0.10444996224E+03  0.47000000000E+01 0.  1.
         -5    1    3    3    0  502 -0.38627938926E+02 -0.15496780623E+01 -0.37511145126E+02  0.54071204688E+02  0.47000000000E+01 0.  1.
          5    1    4    4  503    0 -0.36716240531E+02 -0.72792710657E+01 -0.82547165095E+02  0.90758991683E+02  0.47000000000E+01 0. -1.
         -5    1    4    4    0  503  0.10431459701E+03 -0.44705209654E+02 -0.24599270616E+03  0.27095127312E+03  0.47000000000E+01 0. -1.
<mgrwt>
<rscale>  0 0.15131780E+03</rscale>
<asrwt>0</asrwt>
<pdfrwt beam="2">  1        5 0.61656364E-01 0.15131913E+03</pdfrwt>
<pdfrwt beam="1">  1       -5 0.18379241E-01 0.15131913E+03</pdfrwt>
<totfact> 0.48654089E+01</totfact>
</mgrwt>
</event>
<event>
 8    1  0.3488953E-007  0.1278266E+03  0.7546771E-02  0.1230720E+00
          5   -1    0    0  501    0  0.00000000000E+00  0.00000000000E+00  0.15947968189E+03  0.15954892333E+03  0.47000000000E+01 0. -1.
         -5   -1    0    0    0  501 -0.00000000000E+00 -0.00000000000E+00 -0.10805677969E+03  0.10815894617E+03  0.47000000000E+01 0. -1.
         25    2    1    2    0    0  0.23078310369E+02  0.13414275978E+02 -0.51475085331E+01  0.12792286960E+03  0.12500085005E+03 0.  0.
         25    2    1    2    0    0 -0.23078310369E+02 -0.13414275978E+02  0.56570410741E+02  0.13978499991E+03  0.12500833419E+03 0.  0.
          5    1    4    4  502    0 -0.63344909220E+02 -0.43600014202E+02  0.38324332562E+02  0.86048725899E+02  0.47000000000E+01 0.  1.
         -5    1    4    4    0  502  0.40266598852E+02  0.30185738224E+02  0.18246078179E+02  0.53736274007E+02  0.47000000000E+01 0.  1.
          5    1    3    3  503    0  0.18391653072E+01  0.41289194655E+02 -0.53658638218E+02  0.67893442833E+02  0.47000000000E+01 0.  1.
         -5    1    3    3    0  503  0.21239145062E+02 -0.27874918677E+02  0.48511129685E+02  0.60029426763E+02  0.47000000000E+01 0.  1.
<mgrwt>
<rscale>  0 0.12782475E+03</rscale>
<asrwt>0</asrwt>
<pdfrwt beam="1">  1        5 0.24548521E-01 0.12782658E+03</pdfrwt>
<pdfrwt beam="2">  1       -5 0.16637305E-01 0.12782658E+03</pdfrwt>
<totfact> 0.36275231E+02</totfact>
</mgrwt>
</event>
<event>
 8    1  0.3488953E-007  0.1391746E+03  0.7546771E-02  0.1214448E+00
          5   -1    0    0  501    0  0.00000000000E+00  0.00000000000E+00  0.35914467371E+02  0.36220698040E+02  0.47000000000E+01 0. -1.
         -5   -1    0    0    0  501 -0.00000000000E+00 -0.00000000000E+00 -0.54356785462E+03  0.54358817369E+03  0.47000000000E+01 0. -1.
         25    2    1    2    0    0  0.56097264249E+02 -0.24431960053E+02 -0.28645003748E+03  0.31846524912E+03  0.12499066844E+03 0.  0.
         25    2    1    2    0    0 -0.56097264249E+02  0.24431960053E+02 -0.22120334976E+03  0.26134362260E+03  0.12500297357E+03 0.  0.
          5    1    4    4  502    0  0.29889979380E+02  0.36760740573E+02 -0.11218400144E+03  0.12186920486E+03  0.47000000000E+01 0. -1.
         -5    1    4    4    0  502 -0.85987243629E+02 -0.12328780521E+02 -0.10901934832E+03  0.13947441774E+03  0.47000000000E+01 0. -1.
          5    1    3    3  503    0  0.15283782398E+02 -0.60450041565E+02 -0.64281729364E+02  0.89677378751E+02  0.47000000000E+01 0. -1.
         -5    1    3    3    0  503  0.40813481851E+02  0.36018081512E+02 -0.22216830812E+03  0.22878787037E+03  0.47000000000E+01 0. -1.
<mgrwt>
<rscale>  0 0.13917183E+03</rscale>
<asrwt>0</asrwt>
<pdfrwt beam="1">  1        5 0.55504223E-02 0.13917459E+03</pdfrwt>
<pdfrwt beam="2">  1       -5 0.83650937E-01 0.13917459E+03</pdfrwt>
<totfact> 0.19347312E+02</totfact>
</mgrwt>
</event>
<event>
 8    1  0.3488953E-007  0.1346118E+03  0.7546771E-02  0.1220771E+00
         -5   -1    0    0    0  501 -0.00000000000E+00  0.00000000000E+00  0.29456922582E+02  0.29829520412E+02  0.47000000000E+01 0.  1.
          5   -1    0    0  501    0  0.00000000000E+00 -0.00000000000E+00 -0.65821147233E+03  0.65822825244E+03  0.47000000000E+01 0.  1.
         25    2    1    2    0    0 -0.25811296935E+02 -0.42755962743E+02 -0.22215031067E+03  0.25975196619E+03  0.12500411197E+03 0.  0.
         25    2    1    2    0    0  0.25811296935E+02  0.42755962743E+02 -0.40660423908E+03  0.42830580666E+03  0.12499824552E+03 0.  0.
          5    1    4    4  502    0  0.30388368876E+02  0.83626132718E+02 -0.32227639974E+03  0.33436649184E+03  0.47000000000E+01 0.  1.
         -5    1    4    4    0  502 -0.45770719410E+01 -0.40870169976E+02 -0.84327839347E+02  0.93939314828E+02  0.47000000000E+01 0.  1.
          5    1    3    3  503    0  0.44562851775E+02 -0.71482885384E+01 -0.37353667031E+02  0.58773567427E+02  0.47000000000E+01 0.  1.
         -5    1    3    3    0  503 -0.70374148711E+02 -0.35607674204E+02 -0.18479664364E+03  0.20097839876E+03  0.47000000000E+01 0.  1.
<mgrwt>
<rscale>  0 0.13461039E+03</rscale>
<asrwt>0</asrwt>
<pdfrwt beam="2">  1        5 0.10129324E+00 0.13461175E+03</pdfrwt>
<pdfrwt beam="1">  1       -5 0.45617869E-02 0.13461175E+03</pdfrwt>
<totfact> 0.16796130E+02</totfact>
</mgrwt>
</event>
<event>
 8    1  0.3488953E-007  0.1808117E+03  0.7546771E-02  0.1167021E+00
         -5   -1    0    0    0  501 -0.00000000000E+00  0.00000000000E+00  0.78880587573E+03  0.78881987778E+03  0.47000000000E+01 0. -1.
          5   -1    0    0  501    0  0.00000000000E+00 -0.00000000000E+00 -0.46794271812E+02  0.47029712676E+02  0.47000000000E+01 0. -1.
         25    2    1    2    0    0 -0.30815878795E+02  0.12695075955E+03  0.51384114924E+03  0.54472523629E+03  0.12500697043E+03 0.  0.
         25    2    1    2    0    0  0.30815878795E+02 -0.12695075955E+03  0.22817045467E+03  0.29112435417E+03  0.12500207786E+03 0.  0.
          5    1    4    4  502    0 -0.39700187450E+01 -0.14177819631E+03  0.19043724278E+03  0.23749789775E+03  0.47000000000E+01 0.  1.
         -5    1    4    4    0  502  0.34785897540E+02  0.14827436757E+02  0.37733211890E+02  0.53626456418E+02  0.47000000000E+01 0.  1.
          5    1    3    3  503    0 -0.44376511244E+02  0.14632136371E+03  0.47485412943E+03  0.49888651061E+03  0.47000000000E+01 0. -1.
         -5    1    3    3    0  503  0.13560632449E+02 -0.19370604162E+02  0.38987019808E+02  0.45838725675E+02  0.47000000000E+01 0. -1.
<mgrwt>
<rscale>  0 0.18081081E+03</rscale>
<asrwt>0</asrwt>
<pdfrwt beam="2">  1        5 0.72183072E-02 0.18081166E+03</pdfrwt>
<pdfrwt beam="1">  1       -5 0.12137393E+00 0.18081166E+03</pdfrwt>
<totfact> 0.53998531E+01</totfact>
</mgrwt>
</event>
<event>
 8    1  0.3488953E-007  0.1411515E+03  0.7546771E-02  0.1211789E+00
         -5   -1    0    0    0  501 -0.00000000000E+00  0.00000000000E+00  0.21502814517E+03  0.21507950440E+03  0.47000000000E+01 0.  1.
          5   -1    0    0  501    0  0.00000000000E+00 -0.00000000000E+00 -0.11439245776E+03  0.11448897061E+03  0.47000000000E+01 0.  1.
         25    2    1    2    0    0 -0.65366911559E+02 -0.49621443327E+01  0.12230346345E+03  0.18676695582E+03  0.12500521033E+03 0.  0.
         25    2    1    2    0    0  0.65366911559E+02  0.49621443327E+01 -0.21667776038E+02  0.14280151920E+03  0.12500130145E+03 0.  0.
          5    1    4    4  502    0  0.82870360259E+02 -0.11080898968E+02  0.27383532141E+02  0.88103522994E+02  0.47000000000E+01 0. -1.
         -5    1    4    4    0  502 -0.17503448700E+02  0.16043043301E+02 -0.49051308179E+02  0.54697996205E+02  0.47000000000E+01 0. -1.
          5    1    3    3  503    0 -0.30012718948E+02  0.29700187465E+02  0.12970443415E+03  0.13648514451E+03  0.47000000000E+01 0. -1.
         -5    1    3    3    0  503 -0.35354192611E+02 -0.34662331797E+02 -0.74009707020E+01  0.50281811305E+02  0.47000000000E+01 0. -1.
<mgrwt>
<rscale>  0 0.14115068E+03</rscale>
<asrwt>0</asrwt>
<pdfrwt beam="2">  1        5 0.17610214E-01 0.14115154E+03</pdfrwt>
<pdfrwt beam="1">  1       -5 0.33092628E-01 0.14115154E+03</pdfrwt>
<totfact> 0.18906990E+02</totfact>
</mgrwt>
</event>
<event>
 8    1  0.3488953E-007  0.1253681E+03  0.7546771E-02  0.1234498E+00
         -5   -1    0    0    0  501 -0.00000000000E+00  0.00000000000E+00  0.19378743222E+03  0.19384441928E+03  0.47000000000E+01 0. -1.
          5   -1    0    0  501    0  0.00000000000E+00 -0.00000000000E+00 -0.12469616265E+03  0.12478470651E+03  0.47000000000E+01 0. -1.
         25    2    1    2    0    0 -0.60253883469E+01  0.73958302963E+01  0.12882820813E+03  0.17975629414E+03  0.12499845784E+03 0.  0.
         25    2    1    2    0    0  0.60253883469E+01 -0.73958302963E+01 -0.59736938560E+02  0.13887283165E+03  0.12500463164E+03 0.  0.
          5    1    4    4  502    0  0.74749191215E+01  0.57564517646E+02 -0.40534284790E+02  0.70955382820E+02  0.47000000000E+01 0. -1.
         -5    1    4    4    0  502 -0.14495307747E+01 -0.64960347943E+02 -0.19202653770E+02  0.67917448834E+02  0.47000000000E+01 0. -1.
          5    1    3    3  503    0 -0.13174134868E+02  0.54785571222E+02  0.11733454130E+03  0.13024784538E+03  0.47000000000E+01 0. -1.
         -5    1    3    3    0  503  0.71487465211E+01 -0.47389740926E+02  0.11493666835E+02  0.49508448765E+02  0.47000000000E+01 0. -1.
<mgrwt>
<rscale>  0 0.12536657E+03</rscale>
<asrwt>0</asrwt>
<pdfrwt beam="2">  1        5 0.19195220E-01 0.12536810E+03</pdfrwt>
<pdfrwt beam="1">  1       -5 0.29824646E-01 0.12536810E+03</pdfrwt>
<totfact> 0.19003419E+02</totfact>
</mgrwt>
</event>
<event>
 8    1  0.3488953E-007  0.1797728E+03  0.7546771E-02  0.1168037E+00
          5   -1    0    0  501    0  0.00000000000E+00  0.00000000000E+00  0.47822852005E+02  0.48053253521E+02  0.47000000000E+01 0.  1.
         -5   -1    0    0    0  501 -0.00000000000E+00 -0.00000000000E+00 -0.67413706037E+03  0.67415344408E+03  0.47000000000E+01 0.  1.
         25    2    1    2    0    0  0.67615369624E+02 -0.11000297366E+03 -0.32220314253E+03  0.36896223988E+03  0.12508308032E+03 0.  0.
         25    2    1    2    0    0 -0.67615369624E+02  0.11000297366E+03 -0.30411106584E+03  0.35324445772E+03  0.12500245646E+03 0.  0.
          5    1    3    3  502    0  0.80735611328E+02 -0.51454243798E+02 -0.27863967548E+03  0.29466580543E+03  0.47000000000E+01 0.  1.
         -5    1    3    3    0  502 -0.13120241705E+02 -0.58548729858E+02 -0.43563467049E+02  0.74296434448E+02  0.47000000000E+01 0.  1.
          5    1    4    4  503    0 -0.42604360140E+02  0.53545549348E+01 -0.16689806096E+02  0.46308124439E+02  0.47000000000E+01 0. -1.
         -5    1    4    4    0  503 -0.25011009484E+02  0.10464841872E+03 -0.28742125975E+03  0.30693633329E+03  0.47000000000E+01 0. -1.
<mgrwt>
<rscale>  0 0.17975880E+03</rscale>
<asrwt>0</asrwt>
<pdfrwt beam="1">  1        5 0.73763458E-02 0.17977283E+03</pdfrwt>
<pdfrwt beam="2">  1       -5 0.10373237E+00 0.17977283E+03</pdfrwt>
<totfact> 0.77142688E+01</totfact>
</mgrwt>
</event>
<event>
 8    1  0.3488953E-007  0.1289517E+03  0.7546771E-02  0.1229023E+00
         -5   -1    0    0    0  501 -0.00000000000E+00  0.00000000000E+00  0.17725350104E+04  0.17725412416E+04  0.47000000000E+01 0. -1.
          5   -1    0    0  501    0  0.00000000000E+00 -0.00000000000E+00 -0.13145544604E+02  0.13960492217E+02  0.47000000000E+01 0. -1.
         25    2    1    2    0    0 -0.17864954679E+02 -0.26133972587E+02  0.13755519757E+04  0.13815822785E+04  0.12499685284E+03 0.  0.
         25    2    1    2    0    0  0.17864954679E+02  0.26133972587E+02  0.38383749013E+03  0.40491945535E+03  0.12500562133E+03 0.  0.
          5    1    4    4  502    0  0.39909719969E+02 -0.46353965652E+00  0.36102591331E+03  0.36325583367E+03  0.47000000000E+01 0. -1.
         -5    1    4    4    0  502 -0.22044765289E+02  0.26597512244E+02  0.22811576818E+02  0.41663621676E+02  0.47000000000E+01 0. -1.
          5    1    3    3  503    0 -0.16792205700E+02  0.35907376778E+02  0.17827816839E+03  0.18269240051E+03  0.47000000000E+01 0.  1.
         -5    1    3    3    0  503 -0.10727489793E+01 -0.62041349365E+02  0.11972738073E+04  0.11988898779E+04  0.47000000000E+01 0.  1.
<mgrwt>
<rscale>  0 0.12894960E+03</rscale>
<asrwt>0</asrwt>
<pdfrwt beam="2">  1        5 0.20855573E-02 0.12895172E+03</pdfrwt>
<pdfrwt beam="1">  1       -5 0.27276110E+00 0.12895172E+03</pdfrwt>
<totfact> 0.31755834E+01</totfact>
</mgrwt>
</event>
<event>
 8    1  0.3488953E-007  0.1542315E+03  0.7546771E-02  0.1195372E+00
         -5   -1    0    0    0  501 -0.00000000000E+00  0.00000000000E+00  0.84497436130E+02  0.84628049207E+02  0.47000000000E+01 0. -1.
          5   -1    0    0  501    0  0.00000000000E+00 -0.00000000000E+00 -0.38318811035E+03  0.38321693323E+03  0.47000000000E+01 0. -1.
         25    2    1    2    0    0  0.45351179704E+02 -0.78139495363E+02 -0.28647748054E+02  0.15686952303E+03  0.12499937421E+03 0.  0.
         25    2    1    2    0    0 -0.45351179704E+02  0.78139495363E+02 -0.27004292617E+03  0.31097545941E+03  0.12498017500E+03 0.  0.
          5    1    3    3  502    0  0.15407475223E+02 -0.10921742710E+03 -0.25745462019E+02  0.11336117276E+03  0.47000000000E+01 0. -1.
         -5    1    3    3    0  502  0.29943704481E+02  0.31077931738E+02 -0.29022860350E+01  0.43508350272E+02  0.47000000000E+01 0. -1.
          5    1    4    4  503    0 -0.81565162070E+02  0.79073931562E+02 -0.17042929149E+03  0.20487507343E+03  0.47000000000E+01 0.  1.
         -5    1    4    4    0  503  0.36213982365E+02 -0.93443619901E+00 -0.99613634683E+02  0.10610038598E+03  0.47000000000E+01 0.  1.
<mgrwt>
<rscale>  0 0.15422760E+03</rscale>
<asrwt>0</asrwt>
<pdfrwt beam="2">  1        5 0.58964280E-01 0.15423149E+03</pdfrwt>
<pdfrwt beam="1">  1       -5 0.13011870E-01 0.15423149E+03</pdfrwt>
<totfact> 0.10119439E+02</totfact>
</mgrwt>
</event>
<event>
 8    1  0.3488953E-007  0.1369922E+03  0.7546771E-02  0.1217437E+00
         -5   -1    0    0    0  501 -0.00000000000E+00  0.00000000000E+00  0.43850101986E+02  0.44101263521E+02  0.47000000000E+01 0.  1.
          5   -1    0    0  501    0  0.00000000000E+00 -0.00000000000E+00 -0.42664189014E+03  0.42666777758E+03  0.47000000000E+01 0.  1.
         25    2    1    2    0    0 -0.49826487108E+02  0.25639791496E+02 -0.18671222910E+03  0.23157791020E+03  0.12500717688E+03 0.  0.
         25    2    1    2    0    0  0.49826487108E+02 -0.25639791496E+02 -0.19607955906E+03  0.23919113090E+03  0.12500050358E+03 0.  0.
          5    1    3    3  502    0 -0.16863195658E+02 -0.10797737549E+02  0.14003125501E+02  0.24882444168E+02  0.47000000000E+01 0. -1.
         -5    1    3    3    0  502 -0.32963291451E+02  0.36437529045E+02 -0.20071535460E+03  0.20669546603E+03  0.47000000000E+01 0. -1.
          5    1    4    4  503    0  0.83022929714E+02 -0.42387141689E+02 -0.16862689930E+03  0.19273452676E+03  0.47000000000E+01 0. -1.
         -5    1    4    4    0  503 -0.33196442606E+02  0.16747350193E+02 -0.27452659757E+02  0.46456604137E+02  0.47000000000E+01 0. -1.
<mgrwt>
<rscale>  0 0.13699071E+03</rscale>
<asrwt>0</asrwt>
<pdfrwt beam="2">  1        5 0.65658522E-01 0.13699223E+03</pdfrwt>
<pdfrwt beam="1">  1       -5 0.67674813E-02 0.13699223E+03</pdfrwt>
<totfact> 0.23939683E+02</totfact>
</mgrwt>
</event>
<event>
 8    1  0.3488953E-007  0.1672893E+03  0.7546771E-02  0.1180705E+00
         -5   -1    0    0    0  501 -0.00000000000E+00  0.00000000000E+00  0.16995676389E+03  0.17002173858E+03  0.47000000000E+01 0.  1.
          5   -1    0    0  501    0  0.00000000000E+00 -0.00000000000E+00 -0.17449391184E+03  0.17455719770E+03  0.47000000000E+01 0.  1.
         25    2    1    2    0    0 -0.86902829278E+02 -0.69344645935E+02  0.38879462485E+02  0.17174748645E+03  0.12499921937E+03 0.  0.
         25    2    1    2    0    0  0.86902829278E+02  0.69344645935E+02 -0.43416610434E+02  0.17283144983E+03  0.12499970533E+03 0.  0.
          5    1    4    4  502    0  0.35448355252E+02  0.34110594774E+02 -0.84581668577E+02  0.97960539123E+02  0.47000000000E+01 0. -1.
         -5    1    4    4    0  502  0.51454474026E+02  0.35234051161E+02  0.41165058143E+02  0.74870910709E+02  0.47000000000E+01 0. -1.
          5    1    3    3  503    0  0.11724598381E+02  0.26684791207E+02  0.56308276301E+01  0.30055623579E+02  0.47000000000E+01 0. -1.
         -5    1    3    3    0  503 -0.98627427659E+02 -0.96029437141E+02  0.33248634855E+02  0.14169186287E+03  0.47000000000E+01 0. -1.
<mgrwt>
<rscale>  0 0.16728920E+03</rscale>
<asrwt>0</asrwt>
<pdfrwt beam="2">  1        5 0.26855083E-01 0.16728929E+03</pdfrwt>
<pdfrwt beam="1">  1       -5 0.26157061E-01 0.16728929E+03</pdfrwt>
<totfact> 0.14270882E+02</totfact>
</mgrwt>
</event>
<event>
 8    1  0.3488953E-007  0.1280457E+03  0.7546771E-02  0.1230392E+00
          5   -1    0    0  501    0  0.00000000000E+00  0.00000000000E+00  0.43616409905E+02  0.43868909412E+02  0.47000000000E+01 0.  1.
         -5   -1    0    0    0  501 -0.00000000000E+00 -0.00000000000E+00 -0.38355329558E+03  0.38358209102E+03  0.47000000000E+01 0.  1.
         25    2    1    2    0    0 -0.24340841794E+02 -0.13202544630E+02 -0.20278611573E+03  0.23981828698E+03  0.12499527301E+03 0.  0.
         25    2    1    2    0    0  0.24340841794E+02  0.13202544630E+02 -0.13715076994E+03  0.18763271345E+03  0.12501566980E+03 0.  0.
          5    1    3    3  502    0 -0.38380615598E+02 -0.62441460675E+02 -0.14450788759E+03  0.16210067008E+03  0.47000000000E+01 0. -1.
         -5    1    3    3    0  502  0.14039773804E+02  0.49238916045E+02 -0.58278228142E+02  0.77717616904E+02  0.47000000000E+01 0. -1.
          5    1    4    4  503    0  0.25700977152E+01 -0.63799484825E+00  0.23879542639E+02  0.24481319334E+02  0.47000000000E+01 0. -1.
         -5    1    4    4    0  503  0.21770744079E+02  0.13840539478E+02 -0.16103031258E+03  0.16315139411E+03  0.47000000000E+01 0. -1.
<mgrwt>
<rscale>  0 0.12804072E+03</rscale>
<asrwt>0</asrwt>
<pdfrwt beam="1">  1        5 0.67318552E-02 0.12804570E+03</pdfrwt>
<pdfrwt beam="2">  1       -5 0.59029835E-01 0.12804570E+03</pdfrwt>
<totfact> 0.29818677E+02</totfact>
</mgrwt>
</event>
<event>
 8    1  0.3488953E-007  0.1634385E+03  0.7546771E-02  0.1184870E+00
          5   -1    0    0  501    0  0.00000000000E+00  0.00000000000E+00  0.66480470188E+03  0.66482131558E+03  0.47000000000E+01 0.  1.
         -5   -1    0    0    0  501 -0.00000000000E+00 -0.00000000000E+00 -0.40027582165E+02  0.40302572299E+02  0.47000000000E+01 0.  1.
         25    2    1    2    0    0 -0.10527511104E+03  0.19877490263E+01  0.30916959700E+03  0.34970826137E+03  0.12499291264E+03 0.  0.
         25    2    1    2    0    0  0.10527511104E+03 -0.19877490263E+01  0.31560752272E+03  0.35541562651E+03  0.12500143607E+03 0.  0.
          5    1    3    3  502    0 -0.34392069107E+02  0.58126893737E+01  0.26199151403E+03  0.26434493602E+03  0.47000000000E+01 0. -1.
         -5    1    3    3    0  502 -0.70883041929E+02 -0.38249403474E+01  0.47178082967E+02  0.85363325347E+02  0.47000000000E+01 0. -1.
          5    1    4    4  503    0  0.28952164170E+02  0.16185733539E+02  0.36381385642E+01  0.33697653220E+02  0.47000000000E+01 0. -1.
         -5    1    4    4    0  503  0.76322946866E+02 -0.18173482566E+02  0.31196938415E+03  0.32171797329E+03  0.47000000000E+01 0. -1.
<mgrwt>
<rscale>  0 0.16343692E+03</rscale>
<asrwt>0</asrwt>
<pdfrwt beam="1">  1        5 0.10230007E+00 0.16343855E+03</pdfrwt>
<pdfrwt beam="2">  1       -5 0.61805213E-02 0.16343855E+03</pdfrwt>
<totfact> 0.10495901E+02</totfact>
</mgrwt>
</event>
<event>
 8    1  0.3488953E-007  0.1286082E+03  0.7546771E-02  0.1229536E+00
          5   -1    0    0  501    0  0.00000000000E+00  0.00000000000E+00  0.30521855767E+02  0.30881607463E+02  0.47000000000E+01 0.  1.
         -5   -1    0    0    0  501 -0.00000000000E+00 -0.00000000000E+00 -0.70876610496E+03  0.70878168821E+03  0.47000000000E+01 0.  1.
         25    2    1    2    0    0  0.10179643876E+02 -0.28483376649E+02 -0.52041277047E+03  0.53606852104E+03  0.12500031878E+03 0.  0.
         25    2    1    2    0    0 -0.10179643876E+02  0.28483376649E+02 -0.15783147872E+03  0.20359477462E+03  0.12500051473E+03 0.  0.
          5    1    4    4  502    0 -0.15858943293E+02 -0.48417867086E+02 -0.68334504430E+02  0.85366799350E+02  0.47000000000E+01 0. -1.
         -5    1    4    4    0  502  0.56792994170E+01  0.76901243735E+02 -0.89496974293E+02  0.11822797527E+03  0.47000000000E+01 0. -1.
          5    1    3    3  503    0  0.12548671832E+02  0.27999444972E+02 -0.41670686808E+03  0.41786139088E+03  0.47000000000E+01 0.  1.
         -5    1    3    3    0  503 -0.23690279556E+01 -0.56482821621E+02 -0.10370590239E+03  0.11820713017E+03  0.47000000000E+01 0.  1.
<mgrwt>
<rscale>  0 0.12860810E+03</rscale>
<asrwt>0</asrwt>
<pdfrwt beam="1">  1        5 0.47245426E-02 0.12860815E+03</pdfrwt>
<pdfrwt beam="2">  1       -5 0.10906980E+00 0.12860815E+03</pdfrwt>
<totfact> 0.13008220E+02</totfact>
</mgrwt>
</event>
<event>
 8    1  0.3488953E-007  0.1603764E+03  0.7546771E-02  0.1188275E+00
          5   -1    0    0  501    0  0.00000000000E+00  0.00000000000E+00  0.21682371383E+03  0.21687464785E+03  0.47000000000E+01 0. -1.
         -5   -1    0    0    0  501 -0.00000000000E+00 -0.00000000000E+00 -0.15093110035E+03  0.15100426170E+03  0.47000000000E+01 0. -1.
         25    2    1    2    0    0  0.96920591705E+02  0.26507316591E+02 -0.52270690817E+02  0.16867959600E+03  0.12499736821E+03 0.  0.
         25    2    1    2    0    0 -0.96920591705E+02 -0.26507316591E+02  0.11816330430E+03  0.19919931355E+03  0.12498624367E+03 0.  0.
          5    1    3    3  502    0 -0.20575689486E+02 -0.11303882400E+02 -0.37206956566E+02  0.44244597094E+02  0.47000000000E+01 0. -1.
         -5    1    3    3    0  502  0.11749628119E+03  0.37811198991E+02 -0.15063734252E+02  0.12443499890E+03  0.47000000000E+01 0. -1.
          5    1    4    4  503    0 -0.79786383501E+02 -0.35334580664E+01  0.14109276692E+03  0.16219621203E+03  0.47000000000E+01 0.  1.
         -5    1    4    4    0  503 -0.17134208204E+02 -0.22973858525E+02 -0.22929462622E+02  0.37003101525E+02  0.47000000000E+01 0.  1.
<mgrwt>
<rscale>  0 0.16037421E+03</rscale>
<asrwt>0</asrwt>
<pdfrwt beam="1">  1        5 0.33367040E-01 0.16037637E+03</pdfrwt>
<pdfrwt beam="2">  1       -5 0.23229715E-01 0.16037637E+03</pdfrwt>
<totfact> 0.11541528E+02</totfact>
</mgrwt>
</event>
<event>
 8    1  0.3488953E-007  0.1430265E+03  0.7546771E-02  0.1209316E+00
         -5   -1    0    0    0  501 -0.00000000000E+00  0.00000000000E+00  0.16374362929E+03  0.16381106841E+03  0.47000000000E+01 0.  1.
          5   -1    0    0  501    0  0.00000000000E+00 -0.00000000000E+00 -0.15889192479E+03  0.15896142225E+03  0.47000000000E+01 0.  1.
         25    2    1    2    0    0 -0.55572974167E+02 -0.41748205049E+02  0.77161117328E+02  0.16250632303E+03  0.12499279545E+03 0.  0.
         25    2    1    2    0    0  0.55572974167E+02  0.41748205049E+02 -0.72309412829E+02  0.16026616763E+03  0.12500130087E+03 0.  0.
          5    1    4    4  502    0 -0.17553400117E+02  0.24856370303E+02 -0.78982198826E+02  0.84771685908E+02  0.47000000000E+01 0. -1.
         -5    1    4    4    0  502  0.73126374284E+02  0.16891834745E+02  0.66727859973E+01  0.75494481719E+02  0.47000000000E+01 0. -1.
          5    1    3    3  503    0 -0.65904135499E+02 -0.48220625472E+02  0.10420356728E+03  0.13247285470E+03  0.47000000000E+01 0. -1.
         -5    1    3    3    0  503  0.10331161333E+02  0.64724204231E+01 -0.27042449955E+02  0.30033468334E+02  0.47000000000E+01 0. -1.
<mgrwt>
<rscale>  0 0.14302469E+03</rscale>
<asrwt>0</asrwt>
<pdfrwt beam="2">  1        5 0.24455445E-01 0.14302655E+03</pdfrwt>
<pdfrwt beam="1">  1       -5 0.25201861E-01 0.14302655E+03</pdfrwt>
<totfact> 0.17464708E+02</totfact>
</mgrwt>
</event>
<event>
 8    1  0.3488953E-007  0.2309111E+03  0.7546771E-02  0.1126000E+00
          5   -1    0    0  501    0  0.00000000000E+00  0.00000000000E+00  0.65938909208E+03  0.65940584222E+03  0.47000000000E+01 0.  1.
         -5   -1    0    0    0  501 -0.00000000000E+00 -0.00000000000E+00 -0.81147204295E+02  0.81283201000E+02  0.47000000000E+01 0.  1.
         25    2    1    2    0    0  0.19015442931E+03 -0.39191809305E+02  0.26410914903E+03  0.35081814000E+03  0.12500007939E+03 0.  0.
         25    2    1    2    0    0 -0.19015442931E+03  0.39191809305E+02  0.31413273876E+03  0.38987090322E+03  0.12500095488E+03 0.  0.
          5    1    4    4  502    0 -0.10653276260E+02  0.12681095331E+02 -0.88669732581E+01  0.19365321805E+02  0.47000000000E+01 0.  1.
         -5    1    4    4    0  502 -0.17950115305E+03  0.26510713975E+02  0.32299971201E+03  0.37050558142E+03  0.47000000000E+01 0.  1.
          5    1    3    3  503    0  0.15773426612E+03 -0.33983200604E+02  0.11533641297E+03  0.19839237583E+03  0.47000000000E+01 0. -1.
         -5    1    3    3    0  503  0.32420163185E+02 -0.52086087009E+01  0.14877273607E+03  0.15242576417E+03  0.47000000000E+01 0. -1.
<mgrwt>
<rscale>  0 0.23091100E+03</rscale>
<asrwt>0</asrwt>
<pdfrwt beam="1">  1        5 0.10145623E+00 0.23091112E+03</pdfrwt>
<pdfrwt beam="2">  1       -5 0.12495935E-01 0.23091112E+03</pdfrwt>
<totfact> 0.34525504E+01</totfact>
</mgrwt>
</event>
<event>
 8    1  0.3488953E-007  0.2058252E+03  0.7546771E-02  0.1144915E+00
         -5   -1    0    0    0  501 -0.00000000000E+00  0.00000000000E+00  0.94856333725E+02  0.94972701592E+02  0.47000000000E+01 0. -1.
          5   -1    0    0  501    0  0.00000000000E+00 -0.00000000000E+00 -0.45086793735E+03  0.45089243388E+03  0.47000000000E+01 0. -1.
         25    2    1    2    0    0 -0.16308831240E+03  0.11891494088E+02 -0.15026221030E+03  0.25483865999E+03  0.12499922203E+03 0.  0.
         25    2    1    2    0    0  0.16308831240E+03 -0.11891494088E+02 -0.20574939333E+03  0.29102647548E+03  0.12499756520E+03 0.  0.
          5    1    3    3  502    0 -0.10716662570E+02  0.58418628037E+01 -0.89772675293E+02  0.90720435663E+02  0.47000000000E+01 0. -1.
         -5    1    3    3    0  502 -0.15237164983E+03  0.60496312842E+01 -0.60489535008E+02  0.16411822433E+03  0.47000000000E+01 0. -1.
          5    1    4    4  503    0  0.14303307171E+03  0.24233831416E+02 -0.20272726556E+03  0.24933145086E+03  0.47000000000E+01 0.  1.
         -5    1    4    4    0  503  0.20055240694E+02 -0.36125325504E+02 -0.30221277668E+01  0.41695024623E+02  0.47000000000E+01 0.  1.
<mgrwt>
<rscale>  0 0.20582494E+03</rscale>
<asrwt>0</asrwt>
<pdfrwt beam="2">  1        5 0.69375133E-01 0.20582519E+03</pdfrwt>
<pdfrwt beam="1">  1       -5 0.14604118E-01 0.20582519E+03</pdfrwt>
<totfact> 0.62119040E+01</totfact>
</mgrwt>
</event>
<event>
 8    1  0.3488953E-007  0.1376737E+03  0.7546771E-02  0.1216494E+00
          5   -1    0    0  501    0  0.00000000000E+00  0.00000000000E+00  0.21723684453E+03  0.21728768171E+03  0.47000000000E+01 0. -1.
         -5   -1    0    0    0  501 -0.00000000000E+00 -0.00000000000E+00 -0.91836699814E+02  0.91956888990E+02  0.47000000000E+01 0. -1.
         25    2    1    2    0    0  0.17738986233E+02 -0.54898880832E+02  0.27714261765E+02  0.14043554030E+03  0.12500200769E+03 0.  0.
         25    2    1    2    0    0 -0.17738986233E+02  0.54898880832E+02  0.97685882951E+02  0.16880903039E+03  0.12500159305E+03 0.  0.
          5    1    4    4  502    0 -0.69868643211E+02  0.46160499509E+02  0.51219738345E+02  0.98274974511E+02  0.47000000000E+01 0. -1.
         -5    1    4    4    0  502  0.52129656978E+02  0.87383813232E+01  0.46466144606E+02  0.70534055883E+02  0.47000000000E+01 0. -1.
          5    1    3    3  503    0  0.17443184316E+02 -0.37085536636E+02 -0.47549317362E+02  0.62949418490E+02  0.47000000000E+01 0. -1.
         -5    1    3    3    0  503  0.29580191770E+00 -0.17813344196E+02  0.75263579128E+02  0.77486121811E+02  0.47000000000E+01 0. -1.
<mgrwt>
<rscale>  0 0.13767365E+03</rscale>
<asrwt>0</asrwt>
<pdfrwt beam="1">  1        5 0.33434208E-01 0.13767375E+03</pdfrwt>
<pdfrwt beam="2">  1       -5 0.14141879E-01 0.13767375E+03</pdfrwt>
<totfact> 0.27382369E+02</totfact>
</mgrwt>
</event>
<event>
 8    1  0.3488953E-007  0.1517579E+03  0.7546771E-02  0.1198334E+00
         -5   -1    0    0    0  501 -0.00000000000E+00  0.00000000000E+00  0.12729052912E+04  0.12729139682E+04  0.47000000000E+01 0.  1.
          5   -1    0    0  501    0  0.00000000000E+00 -0.00000000000E+00 -0.57382439543E+02  0.57574598287E+02  0.47000000000E+01 0.  1.
         25    2    1    2    0    0 -0.77898342527E+02  0.36499527068E+02  0.11584793733E+04  0.11683770478E+04  0.12502039904E+03 0.  0.
         25    2    1    2    0    0  0.77898342527E+02 -0.36499527068E+02  0.57043478328E+02  0.16211151865E+03  0.12500327521E+03 0.  0.
          5    1    3    3  502    0  0.29792467377E+02 -0.40802024352E+01  0.13238681768E+03  0.13584034254E+03  0.47000000000E+01 0.  1.
         -5    1    3    3    0  502 -0.10769080990E+03  0.40579729503E+02  0.10260925557E+04  0.10325367053E+04  0.47000000000E+01 0.  1.
          5    1    4    4  503    0  0.34831234533E+02  0.42520237385E+02 -0.53962591495E+00  0.55168529820E+02  0.47000000000E+01 0.  1.
         -5    1    4    4    0  503  0.43067107993E+02 -0.79019764453E+02  0.57583104243E+02  0.10694298883E+03  0.47000000000E+01 0.  1.
<mgrwt>
<rscale>  0 0.15175440E+03</rscale>
<asrwt>0</asrwt>
<pdfrwt beam="2">  1        5 0.88435168E-02 0.15175792E+03</pdfrwt>
<pdfrwt beam="1">  1       -5 0.19584703E+00 0.15175792E+03</pdfrwt>
<totfact> 0.95711040E+00</totfact>
</mgrwt>
</event>
<event>
 8    1  0.3488953E-007  0.1298726E+03  0.7546771E-02  0.1227646E+00
         -5   -1    0    0    0  501 -0.00000000000E+00  0.00000000000E+00  0.22231496283E+02  0.22722883333E+02  0.47000000000E+01 0.  1.
          5   -1    0    0  501    0  0.00000000000E+00 -0.00000000000E+00 -0.76008945364E+03  0.76010398468E+03  0.47000000000E+01 0.  1.
         25    2    1    2    0    0 -0.82136187363E+01 -0.34241629191E+02 -0.32356978106E+03  0.34865917406E+03  0.12500345492E+03 0.  0.
         25    2    1    2    0    0  0.82136187363E+01  0.34241629191E+02 -0.41428817629E+03  0.43416769395E+03  0.12500776277E+03 0.  0.
          5    1    3    3  502    0 -0.63478101786E+02 -0.25310683256E+02 -0.22509318093E+03  0.23528521032E+03  0.47000000000E+01 0.  1.
         -5    1    3    3    0  502  0.55264483050E+02 -0.89309459353E+01 -0.98476600127E+02  0.11337396374E+03  0.47000000000E+01 0.  1.
          5    1    4    4  503    0  0.31601060470E+02 -0.35153762053E+02 -0.90959237659E+02  0.10261621180E+03  0.47000000000E+01 0. -1.
         -5    1    4    4    0  503 -0.23387441733E+02  0.69395391243E+02 -0.32332893864E+03  0.33155148215E+03  0.47000000000E+01 0. -1.
<mgrwt>
<rscale>  0 0.12987157E+03</rscale>
<asrwt>0</asrwt>
<pdfrwt beam="2">  1        5 0.11697574E+00 0.12987260E+03</pdfrwt>
<pdfrwt beam="1">  1       -5 0.34591476E-02 0.12987260E+03</pdfrwt>
<totfact> 0.18269986E+02</totfact>
</mgrwt>
</event>
<event>
 8    1  0.3488953E-007  0.1365253E+03  0.7546771E-02  0.1218082E+00
         -5   -1    0    0    0  501 -0.00000000000E+00  0.00000000000E+00  0.19038174792E+03  0.19043975410E+03  0.47000000000E+01 0.  1.
          5   -1    0    0  501    0  0.00000000000E+00 -0.00000000000E+00 -0.10448213127E+03  0.10458778970E+03  0.47000000000E+01 0.  1.
         25    2    1    2    0    0 -0.27695453873E+02  0.47401187314E+02  0.80295783092E+02  0.15838740517E+03  0.12500098643E+03 0.  0.
         25    2    1    2    0    0  0.27695453873E+02 -0.47401187314E+02  0.56038335547E+01  0.13664013863E+03  0.12500085524E+03 0.  0.
          5    1    3    3  502    0 -0.50312771368E+02  0.78106543161E+02  0.36005260552E+02  0.99752071832E+02  0.47000000000E+01 0. -1.
         -5    1    3    3    0  502  0.22617317495E+02 -0.30705355846E+02  0.44290522539E+02  0.58635333333E+02  0.47000000000E+01 0. -1.
          5    1    4    4  503    0 -0.62992219668E+01 -0.76976482741E+02 -0.25745521479E+02  0.81547415464E+02  0.47000000000E+01 0.  1.
         -5    1    4    4    0  503  0.33994675840E+02  0.29575295427E+02  0.31349355034E+02  0.55092723169E+02  0.47000000000E+01 0.  1.
<mgrwt>
<rscale>  0 0.13652527E+03</rscale>
<asrwt>0</asrwt>
<pdfrwt beam="2">  1        5 0.16086764E-01 0.13652530E+03</pdfrwt>
<pdfrwt beam="1">  1       -5 0.29302089E-01 0.13652530E+03</pdfrwt>
<totfact> 0.28050761E+02</totfact>
</mgrwt>
</event>
<event>
 8    1  0.3488953E-007  0.1494444E+03  0.7546771E-02  0.1201159E+00
         -5   -1    0    0    0  501 -0.00000000000E+00  0.00000000000E+00  0.73025605147E+03  0.73027117614E+03  0.47000000000E+01 0. -1.
          5   -1    0    0  501    0  0.00000000000E+00 -0.00000000000E+00 -0.32702375513E+02  0.33038392276E+02  0.47000000000E+01 0. -1.
         25    2    1    2    0    0  0.80900848244E+02  0.12740316380E+02  0.44978646464E+03  0.47396358782E+03  0.12500542347E+03 0.  0.
         25    2    1    2    0    0 -0.80900848244E+02 -0.12740316380E+02  0.24776721132E+03  0.28934598060E+03  0.12500097031E+03 0.  0.
          5    1    3    3  502    0 -0.29389613147E+02 -0.13715552120E+01  0.17462816398E+03  0.17715167563E+03  0.47000000000E+01 0. -1.
         -5    1    3    3    0  502  0.11029046139E+03  0.14111871592E+02  0.27515830065E+03  0.29681191218E+03  0.47000000000E+01 0. -1.
          5    1    4    4  503    0  0.14072287067E+02  0.36922283397E+02  0.45920358986E+02  0.60762271550E+02  0.47000000000E+01 0.  1.
         -5    1    4    4    0  503 -0.94973135311E+02 -0.49662599777E+02  0.20184685233E+03  0.22858370905E+03  0.47000000000E+01 0.  1.
<mgrwt>
<rscale>  0 0.14944344E+03</rscale>
<asrwt>0</asrwt>
<pdfrwt beam="2">  1        5 0.50581456E-02 0.14944437E+03</pdfrwt>
<pdfrwt beam="1">  1       -5 0.11237409E+00 0.14944437E+03</pdfrwt>
<totfact> 0.11317480E+02</totfact>
</mgrwt>
</event>
<event>
 8    1  0.3488953E-007  0.1257836E+03  0.7546771E-02  0.1233854E+00
          5   -1    0    0  501    0  0.00000000000E+00  0.00000000000E+00  0.21483958263E+03  0.21489098693E+03  0.47000000000E+01 0. -1.
         -5   -1    0    0    0  501 -0.00000000000E+00 -0.00000000000E+00 -0.92205088387E+02  0.92324797993E+02  0.47000000000E+01 0. -1.
         25    2    1    2    0    0  0.11460710888E+01  0.13928060465E+02 -0.77941003055E+01  0.12602486492E+03  0.12500485683E+03 0.  0.
         25    2    1    2    0    0 -0.11460710888E+01 -0.13928060465E+02  0.13042859455E+03  0.18119092000E+03  0.12499290727E+03 0.  0.
          5    1    3    3  502    0 -0.27179814075E+02 -0.35685417501E+02 -0.39990548638E+02  0.60278730044E+02  0.47000000000E+01 0.  1.
         -5    1    3    3    0  502  0.28325885164E+02  0.49613477966E+02  0.32196448333E+02  0.65746134878E+02  0.47000000000E+01 0.  1.
          5    1    4    4  503    0 -0.58075304699E+02 -0.15857699594E+02  0.34553099833E+02  0.69571649114E+02  0.47000000000E+01 0. -1.
         -5    1    4    4    0  503  0.56929233611E+02  0.19296391291E+01  0.95875494715E+02  0.11161927089E+03  0.47000000000E+01 0. -1.
<mgrwt>
<rscale>  0 0.12578065E+03</rscale>
<asrwt>0</asrwt>
<pdfrwt beam="1">  1        5 0.33065406E-01 0.12578362E+03</pdfrwt>
<pdfrwt beam="2">  1       -5 0.14198561E-01 0.12578362E+03</pdfrwt>
<totfact> 0.26917859E+02</totfact>
</mgrwt>
</event>
<event>
 8    1  0.3488953E-007  0.1271869E+03  0.7546771E-02  0.1231698E+00
         -5   -1    0    0    0  501 -0.00000000000E+00  0.00000000000E+00  0.62026613144E+02  0.62204426998E+02  0.47000000000E+01 0.  1.
          5   -1    0    0  501    0  0.00000000000E+00 -0.00000000000E+00 -0.28220272996E+03  0.28224186577E+03  0.47000000000E+01 0.  1.
         25    2    1    2    0    0 -0.11847065499E+02  0.20200203045E+02 -0.62012390440E+02  0.14149928393E+03  0.12501243786E+03 0.  0.
         25    2    1    2    0    0  0.11847065499E+02 -0.20200203045E+02 -0.15816372637E+03  0.20294700884E+03  0.12499329140E+03 0.  0.
          5    1    3    3  502    0  0.30686339233E+02  0.60372674639E+02 -0.40116914727E+02  0.78854093779E+02  0.47000000000E+01 0.  1.
         -5    1    3    3    0  502 -0.42533404732E+02 -0.40172471593E+02 -0.21895475713E+02  0.62645190148E+02  0.47000000000E+01 0.  1.
          5    1    4    4  503    0 -0.43786508390E+02 -0.21206376804E+02 -0.18030314427E+02  0.52097514072E+02  0.47000000000E+01 0. -1.
         -5    1    4    4    0  503  0.55633573889E+02  0.10061737586E+01 -0.14013341194E+03  0.15084949477E+03  0.47000000000E+01 0. -1.
<mgrwt>
<rscale>  0 0.12718221E+03</rscale>
<asrwt>0</asrwt>
<pdfrwt beam="2">  1        5 0.43432492E-01 0.12718691E+03</pdfrwt>
<pdfrwt beam="1">  1       -5 0.95592445E-02 0.12718691E+03</pdfrwt>
<totfact> 0.31280753E+02</totfact>
</mgrwt>
</event>
<event>
 8    1  0.3488953E-007  0.1730867E+03  0.7546771E-02  0.1174676E+00
          5   -1    0    0  501    0  0.00000000000E+00  0.00000000000E+00  0.76284918130E+03  0.76286365978E+03  0.47000000000E+01 0. -1.
         -5   -1    0    0    0  501 -0.00000000000E+00 -0.00000000000E+00 -0.40712102771E+02  0.40982500070E+02  0.47000000000E+01 0. -1.
         25    2    1    2    0    0  0.73651826370E+02 -0.94323882989E+02  0.28163026946E+03  0.33056710631E+03  0.12504965681E+03 0.  0.
         25    2    1    2    0    0 -0.73651826370E+02  0.94323882989E+02  0.44050680907E+03  0.47327905354E+03  0.12500090901E+03 0.  0.
          5    1    4    4  502    0  0.37652754143E+01  0.45218445162E+02  0.34961984733E+02  0.57474476581E+02  0.47000000000E+01 0.  1.
         -5    1    4    4    0  502 -0.77417101785E+02  0.49105437827E+02  0.40554482434E+03  0.41580457696E+03  0.47000000000E+01 0.  1.
          5    1    3    3  503    0  0.51672202998E+02 -0.10174622491E+03  0.28464673303E+03  0.30670533656E+03  0.47000000000E+01 0. -1.
         -5    1    3    3    0  503  0.21979623372E+02  0.74223419236E+01 -0.30164635723E+01  0.23861769752E+02  0.47000000000E+01 0. -1.
<mgrwt>
<rscale>  0 0.17307789E+03</rscale>
<asrwt>0</asrwt>
<pdfrwt beam="1">  1        5 0.11738332E+00 0.17308669E+03</pdfrwt>
<pdfrwt beam="2">  1       -5 0.62853145E-02 0.17308669E+03</pdfrwt>
<totfact> 0.73552233E+01</totfact>
</mgrwt>
</event>
<event>
 8    1  0.3488953E-007  0.1298626E+03  0.7546771E-02  0.1227661E+00
         -5   -1    0    0    0  501 -0.00000000000E+00  0.00000000000E+00  0.25140179074E+03  0.25144572056E+03  0.47000000000E+01 0. -1.
          5   -1    0    0  501    0  0.00000000000E+00 -0.00000000000E+00 -0.68276446505E+02  0.68438024134E+02  0.47000000000E+01 0. -1.
         25    2    1    2    0    0  0.35209458259E+02 -0.61476787864E+00  0.11384418739E+03  0.17269854503E+03  0.12499681821E+03 0.  0.
         25    2    1    2    0    0 -0.35209458259E+02  0.61476787864E+00  0.69281156846E+02  0.14718519966E+03  0.12499408152E+03 0.  0.
          5    1    4    4  502    0 -0.31215647851E+02  0.23346940717E+02  0.10060414989E+03  0.10799435766E+03  0.47000000000E+01 0.  1.
         -5    1    4    4    0  502 -0.39938104082E+01 -0.22732172839E+02 -0.31322993045E+02  0.39190842002E+02  0.47000000000E+01 0.  1.
          5    1    3    3  503    0  0.46423008023E+02  0.55140445284E+02  0.55559939325E+02  0.91129365398E+02  0.47000000000E+01 0.  1.
         -5    1    3    3    0  503 -0.11213549764E+02 -0.55755213163E+02  0.58284248063E+02  0.81569179629E+02  0.47000000000E+01 0.  1.
<mgrwt>
<rscale>  0 0.12986192E+03</rscale>
<asrwt>0</asrwt>
<pdfrwt beam="2">  1        5 0.10519877E-01 0.12986258E+03</pdfrwt>
<pdfrwt beam="1">  1       -5 0.38693006E-01 0.12986258E+03</pdfrwt>
<totfact> 0.33804233E+02</totfact>
</mgrwt>
</event>
<event>
 8    1  0.3488953E-007  0.1330095E+03  0.7546771E-02  0.1223058E+00
          5   -1    0    0  501    0  0.00000000000E+00  0.00000000000E+00  0.11881903034E+03  0.11891195050E+03  0.47000000000E+01 0. -1.
         -5   -1    0    0    0  501 -0.00000000000E+00 -0.00000000000E+00 -0.16228531839E+03  0.16235336327E+03  0.47000000000E+01 0. -1.
         25    2    1    2    0    0  0.17942931939E+02 -0.41774605143E+02 -0.62395758810E+02  0.14691559515E+03  0.12499557968E+03 0.  0.
         25    2    1    2    0    0 -0.17942931939E+02  0.41774605143E+02  0.18929470761E+02  0.13434971862E+03  0.12499782233E+03 0.  0.
          5    1    4    4  502    0 -0.53937860951E+02 -0.29664895838E+01  0.45611603856E+02  0.70856201639E+02  0.47000000000E+01 0.  1.
         -5    1    4    4    0  502  0.35994929012E+02  0.44741094726E+02 -0.26682133095E+02  0.63493516979E+02  0.47000000000E+01 0.  1.
          5    1    3    3  503    0  0.55115487790E+02  0.16053648513E+02 -0.51282369553E+02  0.77119440168E+02  0.47000000000E+01 0. -1.
         -5    1    3    3    0  503 -0.37172555851E+02 -0.57828253655E+02 -0.11113389257E+02  0.69796154981E+02  0.47000000000E+01 0. -1.
<mgrwt>
<rscale>  0 0.13300895E+03</rscale>
<asrwt>0</asrwt>
<pdfrwt beam="1">  1        5 0.18292233E-01 0.13300948E+03</pdfrwt>
<pdfrwt beam="2">  1       -5 0.24979354E-01 0.13300948E+03</pdfrwt>
<totfact> 0.29910521E+02</totfact>
</mgrwt>
</event>
<event>
 8    1  0.3488953E-007  0.1386460E+03  0.7546771E-02  0.1215166E+00
         -5   -1    0    0    0  501 -0.00000000000E+00  0.00000000000E+00  0.56226823502E+02  0.56422918049E+02  0.47000000000E+01 0. -1.
          5   -1    0    0  501    0  0.00000000000E+00 -0.00000000000E+00 -0.34157899849E+03  0.34161133209E+03  0.47000000000E+01 0. -1.
         25    2    1    2    0    0  0.31068749811E+02  0.51304386027E+02 -0.13482083319E+03  0.19338235977E+03  0.12499069072E+03 0.  0.
         25    2    1    2    0    0 -0.31068749811E+02 -0.51304386027E+02 -0.15053134180E+03  0.20465189037E+03  0.12500121650E+03 0.  0.
          5    1    4    4  502    0 -0.61550913620E+02 -0.19973481381E+02 -0.21522665349E+02  0.68357662699E+02  0.47000000000E+01 0.  1.
         -5    1    4    4    0  502  0.30482163809E+02 -0.31330904646E+02 -0.12900867645E+03  0.13629422767E+03  0.47000000000E+01 0.  1.
          5    1    3    3  503    0  0.57974699584E+02  0.48252539581E+02 -0.14545251547E+03  0.16391429963E+03  0.47000000000E+01 0. -1.
         -5    1    3    3    0  503 -0.26905949773E+02  0.30518464455E+01  0.10631682280E+02  0.29468060133E+02  0.47000000000E+01 0. -1.
<mgrwt>
<rscale>  0 0.13864362E+03</rscale>
<asrwt>0</asrwt>
<pdfrwt beam="2">  1        5 0.52568185E-01 0.13864599E+03</pdfrwt>
<pdfrwt beam="1">  1       -5 0.86678521E-02 0.13864599E+03</pdfrwt>
<totfact> 0.25569005E+02</totfact>
</mgrwt>
</event>
<event>
 8    1  0.3488953E-007  0.1655434E+03  0.7546771E-02  0.1182577E+00
         -5   -1    0    0    0  501 -0.00000000000E+00  0.00000000000E+00  0.25022882714E+03  0.25027296284E+03  0.47000000000E+01 0. -1.
          5   -1    0    0  501    0  0.00000000000E+00 -0.00000000000E+00 -0.11632437911E+03  0.11641929039E+03  0.47000000000E+01 0. -1.
         25    2    1    2    0    0 -0.77059813043E+02 -0.76427066661E+02  0.11161641187E+03  0.19965676793E+03  0.12500116111E+03 0.  0.
         25    2    1    2    0    0  0.77059813043E+02  0.76427066661E+02  0.22288036160E+02  0.16703548531E+03  0.12499914196E+03 0.  0.
          5    1    4    4  502    0  0.89259152210E+02  0.19762485574E+02  0.48102387467E+02  0.10341025950E+03  0.47000000000E+01 0.  1.
         -5    1    4    4    0  502 -0.12199339167E+02  0.56664581087E+02 -0.25814351306E+02  0.63625225809E+02  0.47000000000E+01 0.  1.
          5    1    3    3  503    0 -0.61346678783E+01 -0.16312822579E+02  0.10476930616E+03  0.10631293356E+03  0.47000000000E+01 0. -1.
         -5    1    3    3    0  503 -0.70925145164E+02 -0.60114244082E+02  0.68471057088E+01  0.93343834369E+02  0.47000000000E+01 0. -1.
<mgrwt>
<rscale>  0 0.16554297E+03</rscale>
<asrwt>0</asrwt>
<pdfrwt beam="2">  1        5 0.17906754E-01 0.16554335E+03</pdfrwt>
<pdfrwt beam="1">  1       -5 0.38507438E-01 0.16554335E+03</pdfrwt>
<totfact> 0.14220186E+02</totfact>
</mgrwt>
</event>
<event>
 8    1  0.3488953E-007  0.1295127E+03  0.7546771E-02  0.1228181E+00
          5   -1    0    0  501    0  0.00000000000E+00  0.00000000000E+00  0.31397221429E+03  0.31400739059E+03  0.47000000000E+01 0. -1.
         -5   -1    0    0    0  501 -0.00000000000E+00 -0.00000000000E+00 -0.53313529480E+02  0.53520299192E+02  0.47000000000E+01 0. -1.
         25    2    1    2    0    0 -0.31149942109E+02 -0.13343874157E+02  0.12584939528E+03  0.18058683357E+03  0.12500062518E+03 0.  0.
         25    2    1    2    0    0  0.31149942109E+02  0.13343874157E+02  0.13480928952E+03  0.18694085621E+03  0.12499984523E+03 0.  0.
          5    1    4    4  502    0 -0.12305178736E+02  0.57010503917E+02  0.10044099195E+03  0.11624154956E+03  0.47000000000E+01 0.  1.
         -5    1    4    4    0  502  0.43455120845E+02 -0.43666629760E+02  0.34368297571E+02  0.70699306646E+02  0.47000000000E+01 0.  1.
          5    1    3    3  503    0  0.26254916859E+02  0.21717383703E+02 -0.36453864959E+01  0.34588209796E+02  0.47000000000E+01 0. -1.
         -5    1    3    3    0  503 -0.57404858969E+02 -0.35061257860E+02  0.12949478178E+03  0.14599862377E+03  0.47000000000E+01 0. -1.
<mgrwt>
<rscale>  0 0.12951249E+03</rscale>
<asrwt>0</asrwt>
<pdfrwt beam="1">  1        5 0.48322028E-01 0.12951268E+03</pdfrwt>
<pdfrwt beam="2">  1       -5 0.82206929E-02 0.12951268E+03</pdfrwt>
<totfact> 0.32701501E+02</totfact>
</mgrwt>
</event>
<event>
 8    1  0.3488953E-007  0.1499305E+03  0.7546771E-02  0.1200560E+00
         -5   -1    0    0    0  501 -0.00000000000E+00  0.00000000000E+00  0.14414744791E+03  0.14422405049E+03  0.47000000000E+01 0. -1.
          5   -1    0    0  501    0  0.00000000000E+00 -0.00000000000E+00 -0.16729593263E+03  0.16736194034E+03  0.47000000000E+01 0. -1.
         25    2    1    2    0    0  0.41475072313E+02 -0.71635572657E+02  0.29270211539E+02  0.15275626080E+03  0.12500357210E+03 0.  0.
         25    2    1    2    0    0 -0.41475072313E+02  0.71635572657E+02 -0.52418696257E+02  0.15882973003E+03  0.12500930578E+03 0.  0.
          5    1    4    4  502    0  0.75141446930E+01  0.82161340390E+02 -0.67051194547E+02  0.10641851773E+03  0.47000000000E+01 0. -1.
         -5    1    4    4    0  502 -0.48989217006E+02 -0.10525767732E+02  0.14632498290E+02  0.52411212306E+02  0.47000000000E+01 0. -1.
          5    1    3    3  503    0  0.69117234481E+02  0.37869813247E+01  0.16036749362E+02  0.71209554555E+02  0.47000000000E+01 0.  1.
         -5    1    3    3    0  503 -0.27642162168E+02 -0.75422553982E+02  0.13233462176E+02  0.81546706247E+02  0.47000000000E+01 0.  1.
<mgrwt>
<rscale>  0 0.14992933E+03</rscale>
<asrwt>0</asrwt>
<pdfrwt beam="2">  1        5 0.25748806E-01 0.14993053E+03</pdfrwt>
<pdfrwt beam="1">  1       -5 0.22187500E-01 0.14993053E+03</pdfrwt>
<totfact> 0.20482305E+02</totfact>
</mgrwt>
</event>
<event>
 8    1  0.3488953E-007  0.1388338E+03  0.7546771E-02  0.1214908E+00
         -5   -1    0    0    0  501 -0.00000000000E+00  0.00000000000E+00  0.34329369344E+02  0.34649611824E+02  0.47000000000E+01 0.  1.
          5   -1    0    0  501    0  0.00000000000E+00 -0.00000000000E+00 -0.14707784970E+04  0.14707860066E+04  0.47000000000E+01 0.  1.
         25    2    1    2    0    0  0.60413601935E+02 -0.33544634237E+00 -0.12547354404E+03  0.18712920019E+03  0.12499524585E+03 0.  0.
         25    2    1    2    0    0 -0.60413601935E+02  0.33544634237E+00 -0.13109755836E+04  0.13183064182E+04  0.12499966291E+03 0.  0.
          5    1    3    3  502    0  0.43060515988E+02 -0.57015089634E+02 -0.98649152926E+02  0.12189616014E+03  0.47000000000E+01 0. -1.
         -5    1    3    3    0  502  0.17353085947E+02  0.56679643292E+02 -0.26824391115E+02  0.65233040050E+02  0.47000000000E+01 0. -1.
          5    1    4    4  503    0 -0.90501943231E+02  0.20138154834E+02 -0.11245090055E+04  0.11283344985E+04  0.47000000000E+01 0.  1.
         -5    1    4    4    0  503  0.30088341295E+02 -0.19802708492E+02 -0.18646657812E+03  0.18997191977E+03  0.47000000000E+01 0.  1.
<mgrwt>
<rscale>  0 0.13883283E+03</rscale>
<asrwt>0</asrwt>
<pdfrwt beam="2">  1        5 0.22629878E+00 0.13883383E+03</pdfrwt>
<pdfrwt beam="1">  1       -5 0.53066543E-02 0.13883383E+03</pdfrwt>
<totfact> 0.13992494E+01</totfact>
</mgrwt>
</event>
<event>
 8    1  0.3488953E-007  0.1265036E+03  0.7546771E-02  0.1232770E+00
          5   -1    0    0  501    0  0.00000000000E+00  0.00000000000E+00  0.61146253104E+02  0.61326619576E+02  0.47000000000E+01 0. -1.
         -5   -1    0    0    0  501 -0.00000000000E+00 -0.00000000000E+00 -0.27839397460E+03  0.27843364576E+03  0.47000000000E+01 0. -1.
         25    2    1    2    0    0 -0.12119992057E+02 -0.15113927985E+02 -0.15115256624E+03  0.19710469562E+03  0.12501135040E+03 0.  0.
         25    2    1    2    0    0  0.12119992057E+02  0.15113927985E+02 -0.66095155258E+02  0.14265556972E+03  0.12492684658E+03 0.  0.
          5    1    3    3  502    0 -0.27239583448E+02 -0.64880577580E+02 -0.10976811925E+03  0.13047074100E+03  0.47000000000E+01 0. -1.
         -5    1    3    3    0  502  0.15119591392E+02  0.49766649596E+02 -0.41384446985E+02  0.66633954618E+02  0.47000000000E+01 0. -1.
          5    1    4    4  503    0  0.22776051833E+02  0.67898004301E+02 -0.44507354449E+02  0.84450471433E+02  0.47000000000E+01 0.  1.
         -5    1    4    4    0  503 -0.10656059776E+02 -0.52784076317E+02 -0.21587800809E+02  0.58205098284E+02  0.47000000000E+01 0.  1.
<mgrwt>
<rscale>  0 0.12648273E+03</rscale>
<asrwt>0</asrwt>
<pdfrwt beam="1">  1        5 0.94240420E-02 0.12650361E+03</pdfrwt>
<pdfrwt beam="2">  1       -5 0.42846768E-01 0.12650361E+03</pdfrwt>
<totfact> 0.32910752E+02</totfact>
</mgrwt>
</event>
<event>
 8    1  0.3488953E-007  0.1663407E+03  0.7546771E-02  0.1181722E+00
         -5   -1    0    0    0  501 -0.00000000000E+00  0.00000000000E+00  0.78999608323E+02  0.79139295645E+02  0.47000000000E+01 0. -1.
          5   -1    0    0  501    0  0.00000000000E+00 -0.00000000000E+00 -0.35044541545E+03  0.35047693107E+03  0.47000000000E+01 0. -1.
         25    2    1    2    0    0  0.94423854350E+02  0.55946531118E+02 -0.12616253161E+03  0.20876229847E+03  0.12497533464E+03 0.  0.
         25    2    1    2    0    0 -0.94423854350E+02 -0.55946531118E+02 -0.14528327552E+03  0.22085392824E+03  0.12499339526E+03 0.  0.
          5    1    3    3  502    0  0.10388598697E+03 -0.25306263526E+01 -0.98335716698E+02  0.14314574928E+03  0.47000000000E+01 0.  1.
         -5    1    3    3    0  502 -0.94621326236E+01  0.58477157471E+02 -0.27826814911E+02  0.65616549191E+02  0.47000000000E+01 0.  1.
          5    1    4    4  503    0 -0.90871208726E+02 -0.43749831725E+02 -0.16706531174E+03  0.19520382358E+03  0.47000000000E+01 0. -1.
         -5    1    4    4    0  503 -0.35526456244E+01 -0.12196699394E+02  0.21782036224E+02  0.25650104661E+02  0.47000000000E+01 0. -1.
<mgrwt>
<rscale>  0 0.16633730E+03</rscale>
<asrwt>0</asrwt>
<pdfrwt beam="2">  1        5 0.53927848E-01 0.16634070E+03</pdfrwt>
<pdfrwt beam="1">  1       -5 0.12166956E-01 0.16634070E+03</pdfrwt>
<totfact> 0.14172095E+02</totfact>
</mgrwt>
</event>
<event>
 8    1  0.3488953E-007  0.1833835E+03  0.7546771E-02  0.1164575E+00
         -5   -1    0    0    0  501 -0.00000000000E+00  0.00000000000E+00  0.60831622709E+03  0.60833438349E+03  0.47000000000E+01 0.  1.
          5   -1    0    0  501    0  0.00000000000E+00 -0.00000000000E+00 -0.63358341494E+02  0.63532428231E+02  0.47000000000E+01 0.  1.
         25    2    1    2    0    0  0.30148273626E+02  0.13070650268E+03  0.39313917351E+03  0.43379446445E+03  0.12500447747E+03 0.  0.
         25    2    1    2    0    0 -0.30148273626E+02 -0.13070650268E+03  0.15181871208E+03  0.23807234727E+03  0.12504564348E+03 0.  0.
          5    1    3    3  502    0  0.15099241693E+02  0.43376521024E+02  0.30585875643E+03  0.30932374394E+03  0.47000000000E+01 0.  1.
         -5    1    3    3    0  502  0.15049031933E+02  0.87329981660E+02  0.87280417079E+02  0.12447072051E+03  0.47000000000E+01 0.  1.
          5    1    4    4  503    0 -0.70856345093E+02 -0.10679446240E+03  0.13857384543E+03  0.18881334560E+03  0.47000000000E+01 0. -1.
         -5    1    4    4    0  503  0.40708071467E+02 -0.23912040283E+02  0.13244866644E+02  0.49259001669E+02  0.47000000000E+01 0. -1.
<mgrwt>
<rscale>  0 0.18337652E+03</rscale>
<asrwt>0</asrwt>
<pdfrwt beam="2">  1        5 0.97622246E-02 0.18338354E+03</pdfrwt>
<pdfrwt beam="1">  1       -5 0.93601905E-01 0.18338354E+03</pdfrwt>
<totfact> 0.61373259E+01</totfact>
</mgrwt>
</event>
<event>
 8    1  0.3488953E-007  0.1705608E+03  0.7546771E-02  0.1177266E+00
          5   -1    0    0  501    0  0.00000000000E+00  0.00000000000E+00  0.97996862869E+02  0.98109505820E+02  0.47000000000E+01 0.  1.
         -5   -1    0    0    0  501 -0.00000000000E+00 -0.00000000000E+00 -0.30473085777E+03  0.30476710071E+03  0.47000000000E+01 0.  1.
         25    2    1    2    0    0  0.99118014922E+02  0.60341158183E+02 -0.70360589737E+02  0.18449923431E+03  0.12499567440E+03 0.  0.
         25    2    1    2    0    0 -0.99118014922E+02 -0.60341158183E+02 -0.13637340516E+03  0.21837737223E+03  0.12500213923E+03 0.  0.
          5    1    3    3  502    0  0.27546084530E+02  0.27564678570E+02 -0.94252666573E+02  0.10209923327E+03  0.47000000000E+01 0.  1.
         -5    1    3    3    0  502  0.71571930392E+02  0.32776479612E+02  0.23892076835E+02  0.82400001039E+02  0.47000000000E+01 0.  1.
          5    1    4    4  503    0 -0.98351385001E+02 -0.89492886164E+00 -0.42691390047E+02  0.10732399831E+03  0.47000000000E+01 0. -1.
         -5    1    4    4    0  503 -0.76662992116E+00 -0.59446229321E+02 -0.93682015114E+02  0.11105337391E+03  0.47000000000E+01 0. -1.
<mgrwt>
<rscale>  0 0.17055957E+03</rscale>
<asrwt>0</asrwt>
<pdfrwt beam="1">  1        5 0.15087893E-01 0.17056075E+03</pdfrwt>
<pdfrwt beam="2">  1       -5 0.46893123E-01 0.17056075E+03</pdfrwt>
<totfact> 0.13057334E+02</totfact>
</mgrwt>
</event>
<event>
 8    1  0.3488953E-007  0.1392982E+03  0.7546771E-02  0.1214278E+00
          5   -1    0    0  501    0  0.00000000000E+00  0.00000000000E+00  0.93477257876E+02  0.93595340376E+02  0.47000000000E+01 0. -1.
         -5   -1    0    0    0  501 -0.00000000000E+00 -0.00000000000E+00 -0.21371532307E+03  0.21376699772E+03  0.47000000000E+01 0. -1.
         25    2    1    2    0    0 -0.28568295879E+02 -0.54432801435E+02 -0.86739007064E+02  0.16409277305E+03  0.12499482156E+03 0.  0.
         25    2    1    2    0    0  0.28568295879E+02  0.54432801435E+02 -0.33499058125E+02  0.14326956505E+03  0.12499961589E+03 0.  0.
          5    1    4    4  502    0 -0.17769804306E+02  0.43297755822E+02 -0.69105134297E+02  0.83594683985E+02  0.47000000000E+01 0. -1.
         -5    1    4    4    0  502  0.46338100185E+02  0.11135045614E+02  0.35606076172E+02  0.59674881063E+02  0.47000000000E+01 0. -1.
          5    1    3    3  503    0  0.16163546433E+02  0.13634439008E+02  0.20177478758E+02  0.29603695873E+02  0.47000000000E+01 0.  1.
         -5    1    3    3    0  503 -0.44731842312E+02 -0.68067240443E+02 -0.10691648582E+03  0.13448907717E+03  0.47000000000E+01 0.  1.
<mgrwt>
<rscale>  0 0.13929710E+03</rscale>
<asrwt>0</asrwt>
<pdfrwt beam="1">  1        5 0.14394175E-01 0.13929817E+03</pdfrwt>
<pdfrwt beam="2">  1       -5 0.32892339E-01 0.13929817E+03</pdfrwt>
<totfact> 0.27509801E+02</totfact>
</mgrwt>
</event>
<event>
 8    1  0.3488953E-007  0.1250317E+03  0.7546771E-02  0.1235025E+00
         -5   -1    0    0    0  501 -0.00000000000E+00  0.00000000000E+00  0.60049285015E+03  0.60051124309E+03  0.47000000000E+01 0. -1.
          5   -1    0    0  501    0  0.00000000000E+00 -0.00000000000E+00 -0.26435264905E+02  0.26849827385E+02  0.47000000000E+01 0. -1.
         25    2    1    2    0    0  0.18884904893E+01  0.17975508399E+01  0.33527967838E+03  0.35783429773E+03  0.12500449714E+03 0.  0.
         25    2    1    2    0    0 -0.18884904893E+01 -0.17975508399E+01  0.23877790686E+03  0.26952677275E+03  0.12499197911E+03 0.  0.
          5    1    4    4  502    0 -0.14540488733E+02  0.60576329709E+01 -0.10665520751E+02  0.19595000962E+02  0.47000000000E+01 0. -1.
         -5    1    4    4    0  502  0.12651998243E+02 -0.78551838108E+01  0.24944342761E+03  0.24993177179E+03  0.47000000000E+01 0. -1.
          5    1    3    3  503    0 -0.14694245243E+02 -0.25440345254E+02  0.10639437466E+02  0.31597779028E+02  0.47000000000E+01 0.  1.
         -5    1    3    3    0  503  0.16582735732E+02  0.27237896094E+02  0.32464024092E+03  0.32623651870E+03  0.47000000000E+01 0.  1.
<mgrwt>
<rscale>  0 0.12502855E+03</rscale>
<asrwt>0</asrwt>
<pdfrwt beam="2">  1        5 0.41002680E-02 0.12503168E+03</pdfrwt>
<pdfrwt beam="1">  1       -5 0.92416821E-01 0.12503168E+03</pdfrwt>
<totfact> 0.24335815E+02</totfact>
</mgrwt>
</event>
<event>
 8    1  0.3488953E-007  0.1408881E+03  0.7546771E-02  0.1212146E+00
         -5   -1    0    0    0  501 -0.00000000000E+00  0.00000000000E+00  0.16052098315E+02  0.16726023446E+02  0.47000000000E+01 0. -1.
          5   -1    0    0  501    0  0.00000000000E+00 -0.00000000000E+00 -0.12303013312E+04  0.12303103086E+04  0.47000000000E+01 0. -1.
         25    2    1    2    0    0  0.64732834465E+02 -0.53168009016E+01 -0.52767190322E+03  0.54615666531E+03  0.12502342735E+03 0.  0.
         25    2    1    2    0    0 -0.64732834465E+02  0.53168009016E+01 -0.68657732966E+03  0.70087966677E+03  0.12500107785E+03 0.  0.
          5    1    3    3  502    0  0.55003756084E+02 -0.61100127135E+01 -0.74854168388E+02  0.93209344831E+02  0.47000000000E+01 0. -1.
         -5    1    3    3    0  502  0.97290783812E+01  0.79321181192E+00 -0.45281773483E+03  0.45294732048E+03  0.47000000000E+01 0. -1.
          5    1    4    4  503    0 -0.28227426632E+01  0.29742932614E+02 -0.36564974538E+02  0.47452052427E+02  0.47000000000E+01 0.  1.
         -5    1    4    4    0  503 -0.61910091802E+02 -0.24426131713E+02 -0.65001235512E+03  0.65342761434E+03  0.47000000000E+01 0.  1.
<mgrwt>
<rscale>  0 0.14088317E+03</rscale>
<asrwt>0</asrwt>
<pdfrwt beam="2">  1        5 0.18932959E+00 0.14088813E+03</pdfrwt>
<pdfrwt beam="1">  1       -5 0.25220855E-02 0.14088813E+03</pdfrwt>
<totfact> 0.83499998E+01</totfact>
</mgrwt>
</event>
<event>
 8    1  0.3488953E-007  0.1355488E+03  0.7546771E-02  0.1219448E+00
          5   -1    0    0  501    0  0.00000000000E+00  0.00000000000E+00  0.21663629257E+03  0.21668727064E+03  0.47000000000E+01 0. -1.
         -5   -1    0    0    0  501 -0.00000000000E+00 -0.00000000000E+00 -0.95799208359E+02  0.95914432294E+02  0.47000000000E+01 0. -1.
         25    2    1    2    0    0  0.50685720675E+01  0.52178685721E+02  0.72298244907E+01  0.13573989255E+03  0.12499896960E+03 0.  0.
         25    2    1    2    0    0 -0.50685720675E+01 -0.52178685721E+02  0.11360725972E+03  0.17686181039E+03  0.12500073938E+03 0.  0.
          5    1    3    3  502    0  0.25471707272E+02  0.12497755947E+02  0.59963004655E+02  0.66503035286E+02  0.47000000000E+01 0. -1.
         -5    1    3    3    0  502 -0.20403135205E+02  0.39680929774E+02 -0.52733180164E+02  0.69236857266E+02  0.47000000000E+01 0. -1.
          5    1    4    4  503    0  0.22751762378E+02  0.34142863015E+02  0.54995376642E+02  0.68774699114E+02  0.47000000000E+01 0. -1.
         -5    1    4    4    0  503 -0.27820334446E+02 -0.86321548736E+02  0.58611883080E+02  0.10808711127E+03  0.47000000000E+01 0. -1.
<mgrwt>
<rscale>  0 0.13554844E+03</rscale>
<asrwt>0</asrwt>
<pdfrwt beam="1">  1        5 0.33341445E-01 0.13554885E+03</pdfrwt>
<pdfrwt beam="2">  1       -5 0.14751125E-01 0.13554885E+03</pdfrwt>
<totfact> 0.25382747E+02</totfact>
</mgrwt>
</event>
<event>
 8    1  0.3488953E-007  0.1549852E+03  0.7546771E-02  0.1194482E+00
         -5   -1    0    0    0  501 -0.00000000000E+00  0.00000000000E+00  0.13973215306E+04  0.13973294350E+04  0.47000000000E+01 0. -1.
          5   -1    0    0  501    0  0.00000000000E+00 -0.00000000000E+00 -0.17261723102E+02  0.17890139308E+02  0.47000000000E+01 0. -1.
         25    2    1    2    0    0 -0.34342533512E+02  0.84919287585E+02  0.79616394433E+03  0.81110877631E+03  0.12501890153E+03 0.  0.
         25    2    1    2    0    0  0.34342533512E+02 -0.84919287585E+02  0.58389586320E+03  0.60411079802E+03  0.12499912883E+03 0.  0.
          5    1    3    3  502    0  0.71059678563E+01 -0.30612294054E+02  0.18767554781E+03  0.19034654862E+03  0.47000000000E+01 0.  1.
         -5    1    3    3    0  502 -0.41448501368E+02  0.11553158164E+03  0.60848839652E+03  0.62076222769E+03  0.47000000000E+01 0.  1.
          5    1    4    4  503    0  0.52657767324E+02 -0.87162320765E+02  0.57335405056E+03  0.58234617532E+03  0.47000000000E+01 0.  1.
         -5    1    4    4    0  503 -0.18315233812E+02  0.22430331795E+01  0.10541812645E+02  0.21764622700E+02  0.47000000000E+01 0.  1.
<mgrwt>
<rscale>  0 0.15498124E+03</rscale>
<asrwt>0</asrwt>
<pdfrwt beam="2">  1        5 0.27045971E-02 0.15498523E+03</pdfrwt>
<pdfrwt beam="1">  1       -5 0.21502152E+00 0.15498523E+03</pdfrwt>
<totfact> 0.51431293E+01</totfact>
</mgrwt>
</event>
<event>
 8    1  0.3488953E-007  0.1254892E+03  0.7546771E-02  0.1234309E+00
         -5   -1    0    0    0  501 -0.00000000000E+00  0.00000000000E+00  0.52386296704E+02  0.52596711707E+02  0.47000000000E+01 0. -1.
          5   -1    0    0  501    0  0.00000000000E+00 -0.00000000000E+00 -0.36063065646E+03  0.36066128206E+03  0.47000000000E+01 0. -1.
         25    2    1    2    0    0 -0.11048305667E+02  0.92145501304E-01 -0.69262276247E+02  0.14333454232E+03  0.12500181823E+03 0.  0.
         25    2    1    2    0    0  0.11048305667E+02 -0.92145501304E-01 -0.23898208351E+03  0.26992345145E+03  0.12499663938E+03 0.  0.
          5    1    3    3  502    0  0.47845150244E+02  0.30806035779E+02 -0.19979377185E+02  0.60493270328E+02  0.47000000000E+01 0. -1.
         -5    1    3    3    0  502 -0.58893455911E+02 -0.30713890278E+02 -0.49282899062E+02  0.82841271991E+02  0.47000000000E+01 0. -1.
          5    1    4    4  503    0  0.32852853274E+02  0.23451950502E+02 -0.14555349010E+02  0.43165404381E+02  0.47000000000E+01 0. -1.
         -5    1    4    4    0  503 -0.21804547607E+02 -0.23544096003E+02 -0.22442673450E+03  0.22675804707E+03  0.47000000000E+01 0. -1.
<mgrwt>
<rscale>  0 0.12548787E+03</rscale>
<asrwt>0</asrwt>
<pdfrwt beam="2">  1        5 0.55500180E-01 0.12548916E+03</pdfrwt>
<pdfrwt beam="1">  1       -5 0.80779721E-02 0.12548916E+03</pdfrwt>
<totfact> 0.24806605E+02</totfact>
</mgrwt>
</event>
<event>
 8    1  0.3488953E-007  0.1270788E+03  0.7546771E-02  0.1231860E+00
         -5   -1    0    0    0  501 -0.00000000000E+00  0.00000000000E+00  0.60535347713E+03  0.60537172239E+03  0.47000000000E+01 0. -1.
          5   -1    0    0  501    0  0.00000000000E+00 -0.00000000000E+00 -0.30215642992E+02  0.30578997390E+02  0.47000000000E+01 0. -1.
         25    2    1    2    0    0 -0.22835795457E+02 -0.18621474448E+01  0.39909671318E+03  0.41884030977E+03  0.12499630981E+03 0.  0.
         25    2    1    2    0    0  0.22835795457E+02  0.18621474448E+01  0.17604112095E+03  0.21711041001E+03  0.12498605011E+03 0.  0.
          5    1    4    4  502    0 -0.11145030609E+02  0.59106262241E+02  0.84136661595E+02  0.10353178144E+03  0.47000000000E+01 0. -1.
         -5    1    4    4    0  502  0.33980826066E+02 -0.57244114797E+02  0.91904459359E+02  0.11357862858E+03  0.47000000000E+01 0. -1.
          5    1    3    3  503    0 -0.14391246688E+02  0.23362160778E+02  0.11204724087E+02  0.30008905000E+02  0.47000000000E+01 0.  1.
         -5    1    3    3    0  503 -0.84445487690E+01 -0.25224308223E+02  0.38789198910E+03  0.38883140477E+03  0.47000000000E+01 0.  1.
<mgrwt>
<rscale>  0 0.12707627E+03</rscale>
<asrwt>0</asrwt>
<pdfrwt beam="2">  1        5 0.46779143E-02 0.12707879E+03</pdfrwt>
<pdfrwt beam="1">  1       -5 0.93160658E-01 0.12707879E+03</pdfrwt>
<totfact> 0.19331204E+02</totfact>
</mgrwt>
</event>
<event>
 8    1  0.3488953E-007  0.1260219E+03  0.7546771E-02  0.1233489E+00
         -5   -1    0    0    0  501 -0.00000000000E+00  0.00000000000E+00  0.70784590758E+02  0.70940455938E+02  0.47000000000E+01 0.  1.
          5   -1    0    0  501    0  0.00000000000E+00 -0.00000000000E+00 -0.22532789041E+03  0.22537690254E+03  0.47000000000E+01 0.  1.
         25    2    1    2    0    0  0.15850729759E+02  0.95621137033E+00 -0.65476965953E+02  0.14199843416E+03  0.12499664900E+03 0.  0.
         25    2    1    2    0    0 -0.15850729759E+02 -0.95621137033E+00 -0.89066333699E+02  0.15431892431E+03  0.12501743329E+03 0.  0.
          5    1    3    3  502    0  0.22390423626E+02  0.49302776676E+02  0.66886359097E+01  0.54762420586E+02  0.47000000000E+01 0.  1.
         -5    1    3    3    0  502 -0.65396938668E+01 -0.48346565306E+02 -0.72165601863E+02  0.87236013578E+02  0.47000000000E+01 0.  1.
          5    1    4    4  503    0 -0.31929124005E+02 -0.85515289071E+01 -0.11655606461E+03  0.12124357222E+03  0.47000000000E+01 0. -1.
         -5    1    4    4    0  503  0.16078394246E+02  0.75953175368E+01  0.27489730915E+02  0.33075352089E+02  0.47000000000E+01 0. -1.
<mgrwt>
<rscale>  0 0.12601674E+03</rscale>
<asrwt>0</asrwt>
<pdfrwt beam="2">  1        5 0.34681589E-01 0.12602190E+03</pdfrwt>
<pdfrwt beam="1">  1       -5 0.10905697E-01 0.12602190E+03</pdfrwt>
<totfact> 0.39132765E+02</totfact>
</mgrwt>
</event>
<event>
 8    1  0.3488953E-007  0.1293508E+03  0.7546771E-02  0.1228425E+00
         -5   -1    0    0    0  501 -0.00000000000E+00  0.00000000000E+00  0.13021454808E+03  0.13029934202E+03  0.47000000000E+01 0. -1.
          5   -1    0    0  501    0  0.00000000000E+00 -0.00000000000E+00 -0.16533391087E+03  0.16540070158E+03  0.47000000000E+01 0. -1.
         25    2    1    2    0    0  0.32917296864E+02 -0.47866847578E+01  0.52365148840E+02  0.13954256052E+03  0.12499422627E+03 0.  0.
         25    2    1    2    0    0 -0.32917296864E+02  0.47866847578E+01 -0.87484511627E+02  0.15615748308E+03  0.12500063585E+03 0.  0.
          5    1    3    3  502    0  0.35594706167E+02 -0.61272911537E+02  0.39851434626E+02  0.81434511340E+02  0.47000000000E+01 0.  1.
         -5    1    3    3    0  502 -0.26774093024E+01  0.56486226779E+02  0.12513714213E+02  0.58108049182E+02  0.47000000000E+01 0.  1.
          5    1    4    4  503    0 -0.59257111214E+02  0.49053064857E+02 -0.59375130096E+02  0.97288768494E+02  0.47000000000E+01 0.  1.
         -5    1    4    4    0  503  0.26339814349E+02 -0.44266380099E+02 -0.28109381531E+02  0.58868714587E+02  0.47000000000E+01 0.  1.
<mgrwt>
<rscale>  0 0.12934921E+03</rscale>
<asrwt>0</asrwt>
<pdfrwt beam="2">  1        5 0.25447647E-01 0.12935076E+03</pdfrwt>
<pdfrwt beam="1">  1       -5 0.20044668E-01 0.12935076E+03</pdfrwt>
<totfact> 0.24114851E+02</totfact>
</mgrwt>
</event>
<event>
 8    1  0.3488953E-007  0.1613562E+03  0.7546771E-02  0.1187175E+00
          5   -1    0    0  501    0  0.00000000000E+00  0.00000000000E+00  0.75496900887E+02  0.75643056810E+02  0.47000000000E+01 0. -1.
         -5   -1    0    0    0  501 -0.00000000000E+00 -0.00000000000E+00 -0.35026959241E+03  0.35030112384E+03  0.47000000000E+01 0. -1.
         25    2    1    2    0    0  0.68895887108E+02 -0.75252999476E+02 -0.10971850025E+03  0.19512552905E+03  0.12500466231E+03 0.  0.
         25    2    1    2    0    0 -0.68895887108E+02  0.75252999476E+02 -0.16505419127E+03  0.23081865160E+03  0.12499882673E+03 0.  0.
          5    1    4    4  502    0 -0.44789591956E+02  0.62565274864E+02 -0.15373088790E+02  0.78606253093E+02  0.47000000000E+01 0. -1.
         -5    1    4    4    0  502 -0.24106295152E+02  0.12687724612E+02 -0.14968110248E+03  0.15221239851E+03  0.47000000000E+01 0. -1.
          5    1    3    3  503    0  0.92255198242E+02 -0.27644335684E+02 -0.33341028788E+02  0.10202423780E+03  0.47000000000E+01 0.  1.
         -5    1    3    3    0  503 -0.23359311134E+02 -0.47608663792E+02 -0.76377471467E+02  0.93101291250E+02  0.47000000000E+01 0.  1.
<mgrwt>
<rscale>  0 0.16135507E+03</rscale>
<asrwt>0</asrwt>
<pdfrwt beam="1">  1        5 0.11628576E-01 0.16135620E+03</pdfrwt>
<pdfrwt beam="2">  1       -5 0.53901297E-01 0.16135620E+03</pdfrwt>
<totfact> 0.15234453E+02</totfact>
</mgrwt>
</event>
<event>
 8    1  0.3488953E-007  0.1308465E+03  0.7546771E-02  0.1226205E+00
         -5   -1    0    0    0  501 -0.00000000000E+00  0.00000000000E+00  0.37515010154E+02  0.37808279343E+02  0.47000000000E+01 0.  1.
          5   -1    0    0  501    0  0.00000000000E+00 -0.00000000000E+00 -0.46299898950E+03  0.46302284423E+03  0.47000000000E+01 0.  1.
         25    2    1    2    0    0  0.33969136697E+02 -0.18493843440E+02 -0.17840702614E+03  0.22124617147E+03  0.12499950769E+03 0.  0.
         25    2    1    2    0    0 -0.33969136697E+02  0.18493843440E+02 -0.24707695321E+03  0.27958495210E+03  0.12499920056E+03 0.  0.
          5    1    3    3  502    0  0.71035823737E+02 -0.21613170550E+02 -0.55702579480E+02  0.92941297366E+02  0.47000000000E+01 0. -1.
         -5    1    3    3    0  502 -0.37066687040E+02  0.31193271104E+01 -0.12270444666E+03  0.12830487411E+03  0.47000000000E+01 0. -1.
          5    1    4    4  503    0 -0.58679449167E+02 -0.18577178641E+02 -0.21704157502E+03  0.22564911834E+03  0.47000000000E+01 0.  1.
         -5    1    4    4    0  503  0.24710312469E+02  0.37071022081E+02 -0.30035378189E+02  0.53935833761E+02  0.47000000000E+01 0.  1.
<mgrwt>
<rscale>  0 0.13084641E+03</rscale>
<asrwt>0</asrwt>
<pdfrwt beam="2">  1        5 0.71255004E-01 0.13084648E+03</pdfrwt>
<pdfrwt beam="1">  1       -5 0.57959345E-02 0.13084648E+03</pdfrwt>
<totfact> 0.25469501E+02</totfact>
</mgrwt>
</event>
<event>
 8    1  0.3488953E-007  0.1740987E+03  0.7546771E-02  0.1173641E+00
          5   -1    0    0  501    0  0.00000000000E+00  0.00000000000E+00  0.20759160227E+03  0.20764480088E+03  0.47000000000E+01 0.  1.
         -5   -1    0    0    0  501 -0.00000000000E+00 -0.00000000000E+00 -0.14859281543E+03  0.14866712750E+03  0.47000000000E+01 0.  1.
         25    2    1    2    0    0  0.56369742719E+02 -0.10726777197E+03  0.55141550659E+01  0.17418299006E+03  0.12500154128E+03 0.  0.
         25    2    1    2    0    0 -0.56369742719E+02  0.10726777197E+03  0.53484631777E+02  0.18212893832E+03  0.12500568602E+03 0.  0.
          5    1    4    4  502    0 -0.12209247454E+02  0.12018406645E+02 -0.38541196043E+02  0.42438445001E+02  0.47000000000E+01 0. -1.
         -5    1    4    4    0  502 -0.44160495265E+02  0.95249365326E+02  0.92025827820E+02  0.13969049332E+03  0.47000000000E+01 0. -1.
          5    1    3    3  503    0 -0.27846504905E+02 -0.27710175386E+02  0.36858476073E+02  0.54073273562E+02  0.47000000000E+01 0.  1.
         -5    1    3    3    0  503  0.84216247624E+02 -0.79557596586E+02 -0.31344321007E+02  0.12010971650E+03  0.47000000000E+01 0.  1.
<mgrwt>
<rscale>  0 0.17409792E+03</rscale>
<asrwt>0</asrwt>
<pdfrwt beam="1">  1        5 0.31946978E-01 0.17409866E+03</pdfrwt>
<pdfrwt beam="2">  1       -5 0.22870242E-01 0.17409866E+03</pdfrwt>
<totfact> 0.13287025E+02</totfact>
</mgrwt>
</event>
<event>
 8    1  0.3488953E-007  0.2327593E+03  0.7546771E-02  0.1124713E+00
         -5   -1    0    0    0  501 -0.00000000000E+00  0.00000000000E+00  0.15995141958E+03  0.16002045690E+03  0.47000000000E+01 0.  1.
          5   -1    0    0  501    0  0.00000000000E+00 -0.00000000000E+00 -0.34050424358E+03  0.34053667923E+03  0.47000000000E+01 0.  1.
         25    2    1    2    0    0 -0.85680873032E+02  0.17665823371E+03 -0.71287905522E+02  0.24342740193E+03  0.12500236395E+03 0.  0.
         25    2    1    2    0    0  0.85680873032E+02 -0.17665823371E+03 -0.10926491848E+03  0.25712973420E+03  0.12501013662E+03 0.  0.
          5    1    3    3  502    0 -0.43938982494E+02  0.90180030063E+02 -0.10136857859E+03  0.14269110249E+03  0.47000000000E+01 0.  1.
         -5    1    3    3    0  502 -0.41741890538E+02  0.86478203649E+02  0.30080673065E+02  0.10073629944E+03  0.47000000000E+01 0.  1.
          5    1    4    4  503    0 -0.60687363788E+01 -0.51832230932E+02  0.19217727420E+02  0.55810579390E+02  0.47000000000E+01 0. -1.
         -5    1    4    4    0  503  0.91749609411E+02 -0.12482600278E+03 -0.12848264590E+03  0.20131915481E+03  0.47000000000E+01 0. -1.
<mgrwt>
<rscale>  0 0.23275823E+03</rscale>
<asrwt>0</asrwt>
<pdfrwt beam="2">  1        5 0.52393074E-01 0.23275927E+03</pdfrwt>
<pdfrwt beam="1">  1       -5 0.24615716E-01 0.23275927E+03</pdfrwt>
<totfact> 0.44878782E+01</totfact>
</mgrwt>
</event>
<event>
 8    1  0.3488953E-007  0.1350201E+03  0.7546771E-02  0.1220197E+00
         -5   -1    0    0    0  501 -0.00000000000E+00  0.00000000000E+00  0.34021598951E+03  0.34024845263E+03  0.47000000000E+01 0.  1.
          5   -1    0    0  501    0  0.00000000000E+00 -0.00000000000E+00 -0.53811674546E+02  0.54016537444E+02  0.47000000000E+01 0.  1.
         25    2    1    2    0    0 -0.50685964075E+02  0.57394256587E+01  0.15953100342E+03  0.20898882876E+03  0.12499672609E+03 0.  0.
         25    2    1    2    0    0  0.50685964075E+02 -0.57394256587E+01  0.12687331154E+03  0.18527616132E+03  0.12501364249E+03 0.  0.
          5    1    4    4  502    0  0.62300561076E+02 -0.50842723613E+02  0.48610174046E+02  0.94081780784E+02  0.47000000000E+01 0. -1.
         -5    1    4    4    0  502 -0.11614597002E+02  0.45103297954E+02  0.78263137498E+02  0.91194380533E+02  0.47000000000E+01 0. -1.
          5    1    3    3  503    0 -0.72311740517E+02  0.86523230096E+01  0.32287667791E+02  0.79802468642E+02  0.47000000000E+01 0.  1.
         -5    1    3    3    0  503  0.21625776442E+02 -0.29128973509E+01  0.12724333563E+03  0.12918636012E+03  0.47000000000E+01 0.  1.
<mgrwt>
<rscale>  0 0.13501615E+03</rscale>
<asrwt>0</asrwt>
<pdfrwt beam="2">  1        5 0.82969752E-02 0.13502007E+03</pdfrwt>
<pdfrwt beam="1">  1       -5 0.52359176E-01 0.13502007E+03</pdfrwt>
<totfact> 0.27555261E+02</totfact>
</mgrwt>
</event>
<event>
 8    1  0.3488953E-007  0.1328550E+03  0.7546771E-02  0.1223281E+00
          5   -1    0    0  501    0  0.00000000000E+00  0.00000000000E+00  0.22836906118E+03  0.22841742075E+03  0.47000000000E+01 0.  1.
         -5   -1    0    0    0  501 -0.00000000000E+00 -0.00000000000E+00 -0.10534261951E+03  0.10544741574E+03  0.47000000000E+01 0.  1.
         25    2    1    2    0    0 -0.42456426501E+02  0.14928282522E+02 -0.24762104084E+02  0.13513910233E+03  0.12499605358E+03 0.  0.
         25    2    1    2    0    0  0.42456426501E+02 -0.14928282522E+02  0.14778854575E+03  0.19872573416E+03  0.12500024557E+03 0.  0.
          5    1    3    3  502    0  0.18593314513E+02 -0.91338818889E+01 -0.57757497081E+02  0.61539886350E+02  0.47000000000E+01 0.  1.
         -5    1    3    3    0  502 -0.61049741014E+02  0.24062164411E+02  0.32995392997E+02  0.73599215981E+02  0.47000000000E+01 0.  1.
          5    1    4    4  503    0 -0.14601657286E+02 -0.53984515987E+02  0.34372410372E+02  0.65811009387E+02  0.47000000000E+01 0.  1.
         -5    1    4    4    0  503  0.57058083787E+02  0.39056233464E+02  0.11341613538E+03  0.13291472477E+03  0.47000000000E+01 0.  1.
<mgrwt>
<rscale>  0 0.13285406E+03</rscale>
<asrwt>0</asrwt>
<pdfrwt beam="1">  1        5 0.35145483E-01 0.13285505E+03</pdfrwt>
<pdfrwt beam="2">  1       -5 0.16218338E-01 0.13285505E+03</pdfrwt>
<totfact> 0.19104497E+02</totfact>
</mgrwt>
</event>
<event>
 8    1  0.3488953E-007  0.1293765E+03  0.7546771E-02  0.1228385E+00
         -5   -1    0    0    0  501 -0.00000000000E+00  0.00000000000E+00  0.99194077294E+02  0.99305362243E+02  0.47000000000E+01 0.  1.
          5   -1    0    0  501    0  0.00000000000E+00 -0.00000000000E+00 -0.19880427095E+03  0.19885982034E+03  0.47000000000E+01 0.  1.
         25    2    1    2    0    0  0.33311374072E+02  0.14103550423E+01  0.83762544992E+01  0.12964737429E+03  0.12500657293E+03 0.  0.
         25    2    1    2    0    0 -0.33311374072E+02 -0.14103550423E+01 -0.10798644815E+03  0.16851780830E+03  0.12500216792E+03 0.  0.
          5    1    3    3  502    0  0.16388472500E+02 -0.55429687492E+02 -0.23002138515E+02  0.62387664347E+02  0.47000000000E+01 0. -1.
         -5    1    3    3    0  502  0.16922901572E+02  0.56840042534E+02  0.31378393014E+02  0.67259709939E+02  0.47000000000E+01 0. -1.
          5    1    4    4  503    0 -0.59929263167E+02 -0.42291976983E+02 -0.90261625444E+02  0.11640179951E+03  0.47000000000E+01 0. -1.
         -5    1    4    4    0  503  0.26617889095E+02  0.40881621940E+02 -0.17724822707E+02  0.52116008791E+02  0.47000000000E+01 0. -1.
<mgrwt>
<rscale>  0 0.12937544E+03</rscale>
<asrwt>0</asrwt>
<pdfrwt beam="2">  1        5 0.30598106E-01 0.12937650E+03</pdfrwt>
<pdfrwt beam="1">  1       -5 0.15273461E-01 0.12937650E+03</pdfrwt>
<totfact> 0.27785758E+02</totfact>
</mgrwt>
</event>
<event>
 8    1  0.3488953E-007  0.1362199E+03  0.7546771E-02  0.1218510E+00
          5   -1    0    0  501    0  0.00000000000E+00  0.00000000000E+00  0.16088541805E+02  0.16761001683E+02  0.47000000000E+01 0. -1.
         -5   -1    0    0    0  501 -0.00000000000E+00 -0.00000000000E+00 -0.11297266576E+04  0.11297364343E+04  0.47000000000E+01 0. -1.
         25    2    1    2    0    0  0.10521846234E+02  0.53097236340E+02 -0.54242395524E+03  0.55926702899E+03  0.12500334694E+03 0.  0.
         25    2    1    2    0    0 -0.10521846234E+02 -0.53097236340E+02 -0.57121416060E+03  0.58723040699E+03  0.12499563141E+03 0.  0.
          5    1    4    4  502    0  0.51988111343E+02 -0.42920952610E+02 -0.37357852822E+03  0.37964190843E+03  0.47000000000E+01 0. -1.
         -5    1    4    4    0  502 -0.62509957577E+02 -0.10176283729E+02 -0.19763563238E+03  0.20758849856E+03  0.47000000000E+01 0. -1.
          5    1    3    3  503    0 -0.27170477140E+00  0.36859529485E+01  0.60148433159E+01  0.84810620052E+01  0.47000000000E+01 0.  1.
         -5    1    3    3    0  503  0.10793551005E+02  0.49411283391E+02 -0.54843879856E+03  0.55078596699E+03  0.47000000000E+01 0.  1.
<mgrwt>
<rscale>  0 0.13621813E+03</rscale>
<asrwt>0</asrwt>
<pdfrwt beam="1">  1        5 0.25276409E-02 0.13621990E+03</pdfrwt>
<pdfrwt beam="2">  1       -5 0.17385652E+00 0.13621990E+03</pdfrwt>
<totfact> 0.10600786E+02</totfact>
</mgrwt>
</event>
<event>
 8    1  0.3488953E-007  0.2443889E+03  0.7546771E-02  0.1116904E+00
         -5   -1    0    0    0  501 -0.00000000000E+00  0.00000000000E+00  0.29779906707E+03  0.29783615353E+03  0.47000000000E+01 0.  1.
          5   -1    0    0  501    0  0.00000000000E+00 -0.00000000000E+00 -0.23294882168E+03  0.23299623071E+03  0.47000000000E+01 0.  1.
         25    2    1    2    0    0  0.13025558403E+03  0.16472324797E+03  0.13149805393E+03  0.27751865750E+03  0.12499840592E+03 0.  0.
         25    2    1    2    0    0 -0.13025558403E+03 -0.16472324797E+03 -0.66647808536E+02  0.25331372673E+03  0.12500259267E+03 0.  0.
          5    1    4    4  502    0  0.43691434307E+01 -0.44225695695E+02 -0.56850335423E+02  0.72312185776E+02  0.47000000000E+01 0. -1.
         -5    1    4    4    0  502 -0.13462472747E+03 -0.12049755227E+03 -0.97974731130E+01  0.18100154096E+03  0.47000000000E+01 0. -1.
          5    1    3    3  503    0  0.74051443886E+02  0.14781767773E+02  0.97016155012E+01  0.76277967615E+02  0.47000000000E+01 0. -1.
         -5    1    3    3    0  503  0.56204140148E+02  0.14994148020E+03  0.12179643843E+03  0.20124068989E+03  0.47000000000E+01 0. -1.
<mgrwt>
<rscale>  0 0.24438832E+03</rscale>
<asrwt>0</asrwt>
<pdfrwt beam="2">  1        5 0.35844780E-01 0.24438886E+03</pdfrwt>
<pdfrwt beam="1">  1       -5 0.45821741E-01 0.24438886E+03</pdfrwt>
<totfact> 0.28711866E+01</totfact>
</mgrwt>
</event>
<event>
 8    1  0.3488953E-007  0.1309255E+03  0.7546771E-02  0.1226089E+00
         -5   -1    0    0    0  501 -0.00000000000E+00  0.00000000000E+00  0.20913895017E+03  0.20919175528E+03  0.47000000000E+01 0.  1.
          5   -1    0    0  501    0  0.00000000000E+00 -0.00000000000E+00 -0.10403967073E+03  0.10414577805E+03  0.47000000000E+01 0.  1.
         25    2    1    2    0    0  0.10726994671E+02  0.37442257805E+02  0.12487294162E+03  0.18092728941E+03  0.12499776566E+03 0.  0.
         25    2    1    2    0    0 -0.10726994671E+02 -0.37442257805E+02 -0.19773662182E+02  0.13241024392E+03  0.12499793556E+03 0.  0.
          5    1    3    3  502    0  0.47858659805E+02  0.48123248435E+02  0.12464703676E+03  0.14200447927E+03  0.47000000000E+01 0. -1.
         -5    1    3    3    0  502 -0.37131665133E+02 -0.10680990630E+02  0.22590485616E+00  0.38922810143E+02  0.47000000000E+01 0. -1.
          5    1    4    4  503    0 -0.47507172137E+02  0.20429195652E+02 -0.34205410899E+02  0.62180250677E+02  0.47000000000E+01 0. -1.
         -5    1    4    4    0  503  0.36780177465E+02 -0.57871453457E+02  0.14431748717E+02  0.70229993241E+02  0.47000000000E+01 0. -1.
<mgrwt>
<rscale>  0 0.13092542E+03</rscale>
<asrwt>0</asrwt>
<pdfrwt beam="2">  1        5 0.16018327E-01 0.13092546E+03</pdfrwt>
<pdfrwt beam="1">  1       -5 0.32187447E-01 0.13092546E+03</pdfrwt>
<totfact> 0.23161156E+02</totfact>
</mgrwt>
</event>
<event>
 8    1  0.3488953E-007  0.1390931E+03  0.7546771E-02  0.1214559E+00
         -5   -1    0    0    0  501 -0.00000000000E+00  0.00000000000E+00  0.42127179245E+03  0.42129800986E+03  0.47000000000E+01 0. -1.
          5   -1    0    0  501    0  0.00000000000E+00 -0.00000000000E+00 -0.45775037537E+02  0.46015693644E+02  0.47000000000E+01 0. -1.
         25    2    1    2    0    0 -0.75071732786E+01 -0.60549674039E+02  0.18947881439E+03  0.23505130296E+03  0.12499709293E+03 0.  0.
         25    2    1    2    0    0  0.75071732786E+01  0.60549674039E+02  0.18601794052E+03  0.23226240055E+03  0.12498211007E+03 0.  0.
          5    1    3    3  502    0 -0.32511943749E+02  0.30264778612E+02  0.65430557289E+02  0.79222668082E+02  0.47000000000E+01 0.  1.
         -5    1    3    3    0  502  0.25004770470E+02 -0.90814452652E+02  0.12404825711E+03  0.15582863488E+03  0.47000000000E+01 0.  1.
          5    1    4    4  503    0 -0.53388698615E+02  0.22229115558E+02  0.12498413489E+03  0.13779553945E+03  0.47000000000E+01 0. -1.
         -5    1    4    4    0  503  0.60895871894E+02  0.38320558481E+02  0.61033805628E+02  0.94466861096E+02  0.47000000000E+01 0. -1.
<mgrwt>
<rscale>  0 0.13908975E+03</rscale>
<asrwt>0</asrwt>
<pdfrwt beam="2">  1        5 0.70628424E-02 0.13909311E+03</pdfrwt>
<pdfrwt beam="1">  1       -5 0.64831572E-01 0.13909311E+03</pdfrwt>
<totfact> 0.23019237E+02</totfact>
</mgrwt>
</event>
<event>
 8    1  0.3488953E-007  0.1530371E+03  0.7546771E-02  0.1196790E+00
          5   -1    0    0  501    0  0.00000000000E+00  0.00000000000E+00  0.70122179374E+02  0.70279513659E+02  0.47000000000E+01 0.  1.
         -5   -1    0    0    0  501 -0.00000000000E+00 -0.00000000000E+00 -0.38217099166E+03  0.38219989124E+03  0.47000000000E+01 0.  1.
         25    2    1    2    0    0  0.12923202344E+02  0.87343446760E+02 -0.23678848285E+03  0.28193817336E+03  0.12499784453E+03 0.  0.
         25    2    1    2    0    0 -0.12923202344E+02 -0.87343446760E+02 -0.75260329439E+02  0.17054123154E+03  0.12499723044E+03 0.  0.
          5    1    4    4  502    0 -0.37487730506E+02 -0.10358191543E+03 -0.26518396493E+02  0.11340131611E+03  0.47000000000E+01 0. -1.
         -5    1    4    4    0  502  0.24564528162E+02  0.16238468671E+02 -0.48741932946E+02  0.57139915435E+02  0.47000000000E+01 0. -1.
          5    1    3    3  503    0  0.18031926408E+02 -0.20832636361E+02 -0.84891751386E+01  0.29211388229E+02  0.47000000000E+01 0.  1.
         -5    1    3    3    0  503 -0.51087240644E+01  0.10817608312E+03 -0.22829930771E+03  0.25272678513E+03  0.47000000000E+01 0.  1.
<mgrwt>
<rscale>  0 0.15303696E+03</rscale>
<asrwt>0</asrwt>
<pdfrwt beam="1">  1        5 0.10802353E-01 0.15303708E+03</pdfrwt>
<pdfrwt beam="2">  1       -5 0.58809862E-01 0.15303708E+03</pdfrwt>
<totfact> 0.14123994E+02</totfact>
</mgrwt>
</event>
<event>
 8    1  0.3488953E-007  0.1454987E+03  0.7546771E-02  0.1206116E+00
          5   -1    0    0  501    0  0.00000000000E+00  0.00000000000E+00  0.32800770683E+03  0.32804137810E+03  0.47000000000E+01 0. -1.
         -5   -1    0    0    0  501 -0.00000000000E+00 -0.00000000000E+00 -0.77440425958E+02  0.77582920624E+02  0.47000000000E+01 0. -1.
         25    2    1    2    0    0  0.34549301829E+02 -0.65966654800E+02  0.42217465555E+02  0.15149928964E+03  0.12499786623E+03 0.  0.
         25    2    1    2    0    0 -0.34549301829E+02  0.65966654800E+02  0.20834981532E+03  0.25412500908E+03  0.12499848356E+03 0.  0.
          5    1    4    4  502    0 -0.36678246269E+02  0.99964080491E+02  0.12695253766E+03  0.16576232369E+03  0.47000000000E+01 0. -1.
         -5    1    4    4    0  502  0.21289444400E+01 -0.33997425691E+02  0.81397277662E+02  0.88362685387E+02  0.47000000000E+01 0. -1.
          5    1    3    3  503    0  0.73937038229E+02 -0.11436804468E+02  0.66384056869E+01  0.75257189348E+02  0.47000000000E+01 0. -1.
         -5    1    3    3    0  503 -0.39387736399E+02 -0.54529850332E+02  0.35579059868E+02  0.76242100293E+02  0.47000000000E+01 0. -1.
<mgrwt>
<rscale>  0 0.14549858E+03</rscale>
<asrwt>0</asrwt>
<pdfrwt beam="1">  1        5 0.50476276E-01 0.14549871E+03</pdfrwt>
<pdfrwt beam="2">  1       -5 0.11927463E-01 0.14549871E+03</pdfrwt>
<totfact> 0.16211487E+02</totfact>
</mgrwt>
</event>
<event>
 8    1  0.3488953E-007  0.1258668E+03  0.7546771E-02  0.1233721E+00
          5   -1    0    0  501    0  0.00000000000E+00  0.00000000000E+00  0.16812539633E+04  0.16812605328E+04  0.47000000000E+01 0. -1.
         -5   -1    0    0    0  501 -0.00000000000E+00 -0.00000000000E+00 -0.14637803754E+02  0.15373851136E+02  0.47000000000E+01 0. -1.
         25    2    1    2    0    0 -0.65196640847E+01  0.13199494752E+02  0.31567520189E+03  0.33984261187E+03  0.12500174028E+03 0.  0.
         25    2    1    2    0    0  0.65196640847E+01 -0.13199494752E+02  0.13509409577E+04  0.13567917721E+04  0.12500283580E+03 0.  0.
          5    1    4    4  502    0  0.27572596383E+02  0.69191564919E+01  0.12749675826E+04  0.12752931230E+04  0.47000000000E+01 0.  1.
         -5    1    4    4    0  502 -0.21052932298E+02 -0.20118651244E+02  0.75973375071E+02  0.81498649105E+02  0.47000000000E+01 0.  1.
          5    1    3    3  503    0 -0.65014548429E+01  0.67802635951E+02  0.13901280816E+03  0.15487452079E+03  0.47000000000E+01 0.  1.
         -5    1    3    3    0  503 -0.18209241771E-01 -0.54603141199E+02  0.17666239373E+03  0.18496809108E+03  0.47000000000E+01 0.  1.
<mgrwt>
<rscale>  0 0.12586649E+03</rscale>
<asrwt>0</asrwt>
<pdfrwt beam="1">  1        5 0.25871157E+00 0.12586676E+03</pdfrwt>
<pdfrwt beam="2">  1       -5 0.23090943E-02 0.12586676E+03</pdfrwt>
<totfact> 0.32868473E+01</totfact>
</mgrwt>
</event>
<event>
 8    1  0.3488953E-007  0.1306072E+03  0.7546771E-02  0.1226561E+00
          5   -1    0    0  501    0  0.00000000000E+00  0.00000000000E+00  0.93078330331E+02  0.93196918282E+02  0.47000000000E+01 0. -1.
         -5   -1    0    0    0  501 -0.00000000000E+00 -0.00000000000E+00 -0.25208467998E+03  0.25212849082E+03  0.47000000000E+01 0. -1.
         25    2    1    2    0    0 -0.37902705943E+02 -0.18338257030E+00 -0.16986618478E+03  0.21426748553E+03  0.12497754148E+03 0.  0.
         25    2    1    2    0    0  0.37902705943E+02  0.18338257030E+00  0.10859835126E+02  0.13105792357E+03  0.12498637752E+03 0.  0.
          5    1    4    4  502    0  0.60006950406E+02  0.26959437413E+02  0.46795968323E+02  0.80867781062E+02  0.47000000000E+01 0. -1.
         -5    1    4    4    0  502 -0.22104244464E+02 -0.26776054842E+02 -0.35936133196E+02  0.50190142512E+02  0.47000000000E+01 0. -1.
          5    1    3    3  503    0 -0.51712578390E+02 -0.27854333223E+02 -0.17306718648E+03  0.18282340025E+03  0.47000000000E+01 0.  1.
         -5    1    3    3    0  503  0.13809872448E+02  0.27670950652E+02  0.32010016995E+01  0.31444085277E+02  0.47000000000E+01 0.  1.
<mgrwt>
<rscale>  0 0.13060510E+03</rscale>
<asrwt>0</asrwt>
<pdfrwt beam="1">  1        5 0.14332235E-01 0.13060721E+03</pdfrwt>
<pdfrwt beam="2">  1       -5 0.38794750E-01 0.13060721E+03</pdfrwt>
<totfact> 0.19462159E+02</totfact>
</mgrwt>
</event>
<event>
 8    1  0.3488953E-007  0.1383898E+03  0.7546771E-02  0.1215514E+00
          5   -1    0    0  501    0  0.00000000000E+00  0.00000000000E+00  0.67024404412E+03  0.67026052299E+03  0.47000000000E+01 0.  1.
         -5   -1    0    0    0  501 -0.00000000000E+00 -0.00000000000E+00 -0.30669928655E+02  0.31027963576E+02  0.47000000000E+01 0.  1.
         25    2    1    2    0    0 -0.25679547534E+02 -0.53544082457E+02  0.22423267626E+03  0.26349958147E+03  0.12500131362E+03 0.  0.
         25    2    1    2    0    0  0.25679547534E+02  0.53544082457E+02  0.41534143921E+03  0.43778890510E+03  0.12499682546E+03 0.  0.
          5    1    4    4  502    0  0.19466828701E+02 -0.39697911678E+02  0.14883640060E+03  0.15533591263E+03  0.47000000000E+01 0.  1.
         -5    1    4    4    0  502  0.62127188331E+01  0.93241994135E+02  0.26650503861E+03  0.28245299246E+03  0.47000000000E+01 0.  1.
          5    1    3    3  503    0 -0.71437221050E+02 -0.50180926335E+02  0.11144015298E+03  0.14164180038E+03  0.47000000000E+01 0.  1.
         -5    1    3    3    0  503  0.45757673516E+02 -0.33631561221E+01  0.11279252327E+03  0.12185778109E+03  0.47000000000E+01 0.  1.
<mgrwt>
<rscale>  0 0.13838879E+03</rscale>
<asrwt>0</asrwt>
<pdfrwt beam="1">  1        5 0.10314328E+00 0.13838980E+03</pdfrwt>
<pdfrwt beam="2">  1       -5 0.47472592E-02 0.13838980E+03</pdfrwt>
<totfact> 0.15178118E+02</totfact>
</mgrwt>
</event>
<event>
 8    1  0.3488953E-007  0.1313021E+03  0.7546771E-02  0.1225537E+00
          5   -1    0    0  501    0  0.00000000000E+00  0.00000000000E+00  0.34619649814E+02  0.34937231620E+02  0.47000000000E+01 0. -1.
         -5   -1    0    0    0  501 -0.00000000000E+00 -0.00000000000E+00 -0.50624870738E+03  0.50627052425E+03  0.47000000000E+01 0. -1.
         25    2    1    2    0    0  0.15120718567E+02 -0.37219825988E+02 -0.27544850964E+03  0.30514198409E+03  0.12500318963E+03 0.  0.
         25    2    1    2    0    0 -0.15120718567E+02  0.37219825988E+02 -0.19618054792E+03  0.23606577177E+03  0.12500515846E+03 0.  0.
          5    1    3    3  502    0  0.10825005986E+02 -0.60385166141E+02 -0.27427217316E+03  0.28108871200E+03  0.47000000000E+01 0. -1.
         -5    1    3    3    0  502  0.42957125817E+01  0.23165340154E+02 -0.11763364818E+01  0.24053272096E+02  0.47000000000E+01 0. -1.
          5    1    4    4  503    0 -0.25987351383E+02 -0.41761009098E+02 -0.95793856748E+02  0.10778625749E+03  0.47000000000E+01 0. -1.
         -5    1    4    4    0  503  0.10866632816E+02  0.78980835085E+02 -0.10038669118E+03  0.12827951428E+03  0.47000000000E+01 0. -1.
<mgrwt>
<rscale>  0 0.13130163E+03</rscale>
<asrwt>0</asrwt>
<pdfrwt beam="1">  1        5 0.53522079E-02 0.13130210E+03</pdfrwt>
<pdfrwt beam="2">  1       -5 0.77910519E-01 0.13130210E+03</pdfrwt>
<totfact> 0.23768477E+02</totfact>
</mgrwt>
</event>
<event>
 8    1  0.3488953E-007  0.2524478E+03  0.7546771E-02  0.1111768E+00
          5   -1    0    0  501    0  0.00000000000E+00  0.00000000000E+00  0.21282309902E+03  0.21287499026E+03  0.47000000000E+01 0. -1.
         -5   -1    0    0    0  501 -0.00000000000E+00 -0.00000000000E+00 -0.29937113468E+03  0.29940802641E+03  0.47000000000E+01 0. -1.
         25    2    1    2    0    0 -0.20836804913E+03  0.68462605005E+02 -0.45983023061E+02  0.25660147502E+03  0.12500202553E+03 0.  0.
         25    2    1    2    0    0  0.20836804913E+03 -0.68462605005E+02 -0.40565012595E+02  0.25568154165E+03  0.12499263302E+03 0.  0.
          5    1    3    3  502    0 -0.32184944273E+02 -0.31102091603E+02 -0.28842090476E+02  0.53452473497E+02  0.47000000000E+01 0.  1.
         -5    1    3    3    0  502 -0.17618310486E+03  0.99564696608E+02 -0.17140932585E+02  0.20314900152E+03  0.47000000000E+01 0.  1.
          5    1    4    4  503    0 -0.13801152574E+02  0.75290887879E+01  0.33775801600E+01  0.16752821794E+02  0.47000000000E+01 0. -1.
         -5    1    4    4    0  503  0.22216920171E+03 -0.75991693793E+02 -0.43942592755E+02  0.23892871985E+03  0.47000000000E+01 0. -1.
<mgrwt>
<rscale>  0 0.25244661E+03</rscale>
<asrwt>0</asrwt>
<pdfrwt beam="1">  1        5 0.32748845E-01 0.25244777E+03</pdfrwt>
<pdfrwt beam="2">  1       -5 0.46063927E-01 0.25244777E+03</pdfrwt>
<totfact> 0.34330178E+01</totfact>
</mgrwt>
</event>
<event>
 8    1  0.3488953E-007  0.1362357E+03  0.7546771E-02  0.1218486E+00
         -5   -1    0    0    0  501 -0.00000000000E+00  0.00000000000E+00  0.41887455880E+02  0.42150313879E+02  0.47000000000E+01 0.  1.
          5   -1    0    0  501    0  0.00000000000E+00 -0.00000000000E+00 -0.44806438066E+03  0.44808903046E+03  0.47000000000E+01 0.  1.
         25    2    1    2    0    0 -0.15365544975E+02  0.51954169607E+02 -0.23290324830E+03  0.26982172540E+03  0.12499801886E+03 0.  0.
         25    2    1    2    0    0  0.15365544975E+02 -0.51954169607E+02 -0.17327367648E+03  0.22041761893E+03  0.12499929625E+03 0.  0.
          5    1    3    3  502    0 -0.35829758239E+02  0.87238778254E+02 -0.17480898958E+03  0.19868228116E+03  0.47000000000E+01 0.  1.
         -5    1    3    3    0  502  0.20464213263E+02 -0.35284608648E+02 -0.58094258719E+02  0.71139444249E+02  0.47000000000E+01 0.  1.
          5    1    4    4  503    0 -0.50653460012E+02 -0.45904674637E+02 -0.73023662416E+02  0.10013769239E+03  0.47000000000E+01 0. -1.
         -5    1    4    4    0  503  0.66019004988E+02 -0.60494949698E+01 -0.10025001407E+03  0.12027992654E+03  0.47000000000E+01 0. -1.
<mgrwt>
<rscale>  0 0.13623538E+03</rscale>
<asrwt>0</asrwt>
<pdfrwt beam="2">  1        5 0.68955094E-01 0.13623568E+03</pdfrwt>
<pdfrwt beam="1">  1       -5 0.64663403E-02 0.13623568E+03</pdfrwt>
<totfact> 0.23130827E+02</totfact>
</mgrwt>
</event>
<event>
 8    1  0.3488953E-007  0.1349878E+03  0.7546771E-02  0.1220239E+00
         -5   -1    0    0    0  501 -0.00000000000E+00  0.00000000000E+00  0.35772239020E+03  0.35775326477E+03  0.47000000000E+01 0.  1.
          5   -1    0    0  501    0  0.00000000000E+00 -0.00000000000E+00 -0.53881615160E+02  0.54086213144E+02  0.47000000000E+01 0.  1.
         25    2    1    2    0    0  0.35593696095E+02 -0.36455431938E+02  0.20110007318E+03  0.24220060095E+03  0.12499592772E+03 0.  0.
         25    2    1    2    0    0 -0.35593696095E+02  0.36455431938E+02  0.10274070186E+03  0.16963887696E+03  0.12500314811E+03 0.  0.
          5    1    4    4  502    0  0.32593019261E+02  0.23832750438E+02  0.90303054461E+02  0.99030482898E+02  0.47000000000E+01 0. -1.
         -5    1    4    4    0  502 -0.68186715356E+02  0.12622681501E+02  0.12437647398E+02  0.70608394063E+02  0.47000000000E+01 0. -1.
          5    1    3    3  503    0  0.48606915598E+02 -0.63139447400E+02  0.65341562086E+02  0.10315440755E+03  0.47000000000E+01 0. -1.
         -5    1    3    3    0  503 -0.13013219503E+02  0.26684015462E+02  0.13575851110E+03  0.13904619340E+03  0.47000000000E+01 0. -1.
<mgrwt>
<rscale>  0 0.13498609E+03</rscale>
<asrwt>0</asrwt>
<pdfrwt beam="2">  1        5 0.83075924E-02 0.13498777E+03</pdfrwt>
<pdfrwt beam="1">  1       -5 0.55052328E-01 0.13498777E+03</pdfrwt>
<totfact> 0.24688901E+02</totfact>
</mgrwt>
</event>
<event>
 8    1  0.3488953E-007  0.1350060E+03  0.7546771E-02  0.1220219E+00
         -5   -1    0    0    0  501 -0.00000000000E+00  0.00000000000E+00  0.60860984405E+02  0.61042193790E+02  0.47000000000E+01 0. -1.
          5   -1    0    0  501    0  0.00000000000E+00 -0.00000000000E+00 -0.31254749332E+03  0.31258282995E+03  0.47000000000E+01 0. -1.
         25    2    1    2    0    0  0.33757657268E+02  0.38173082403E+02 -0.86666230497E+02  0.16042956473E+03  0.12501938284E+03 0.  0.
         25    2    1    2    0    0 -0.33757657268E+02 -0.38173082403E+02 -0.16502027842E+03  0.21319545901E+03  0.12499539115E+03 0.  0.
          5    1    3    3  502    0  0.75039665778E+02 -0.35326016237E+01 -0.39556986025E+02  0.85031028794E+02  0.47000000000E+01 0. -1.
         -5    1    3    3    0  502 -0.41282008510E+02  0.41705684027E+02 -0.47109244471E+02  0.75398535937E+02  0.47000000000E+01 0. -1.
          5    1    4    4  503    0 -0.64136777890E+02 -0.14613204817E+02 -0.16133113551E+03  0.17428969367E+03  0.47000000000E+01 0. -1.
         -5    1    4    4    0  503  0.30379120622E+02 -0.23559877586E+02 -0.36891429072E+01  0.38905765344E+02  0.47000000000E+01 0. -1.
<mgrwt>
<rscale>  0 0.13500041E+03</rscale>
<asrwt>0</asrwt>
<pdfrwt beam="2">  1        5 0.48100886E-01 0.13500596E+03</pdfrwt>
<pdfrwt beam="1">  1       -5 0.93798860E-02 0.13500596E+03</pdfrwt>
<totfact> 0.26685997E+02</totfact>
</mgrwt>
</event>
<event>
 8    1  0.3488953E-007  0.1626339E+03  0.7546771E-02  0.1185757E+00
          5   -1    0    0  501    0  0.00000000000E+00  0.00000000000E+00  0.21511358396E+03  0.21516492280E+03  0.47000000000E+01 0. -1.
         -5   -1    0    0    0  501 -0.00000000000E+00 -0.00000000000E+00 -0.12380027143E+03  0.12388945559E+03  0.47000000000E+01 0. -1.
         25    2    1    2    0    0  0.67206260628E+02 -0.79419336703E+02  0.60583200368E+02  0.17354270266E+03  0.12499053152E+03 0.  0.
         25    2    1    2    0    0 -0.67206260628E+02  0.79419336703E+02  0.30730112159E+02  0.16551167573E+03  0.12500264997E+03 0.  0.
          5    1    3    3  502    0  0.37977303024E+02  0.18596183520E+01  0.76528402105E+02  0.85582825697E+02  0.47000000000E+01 0.  1.
         -5    1    3    3    0  502  0.29228957603E+02 -0.81278955055E+02 -0.15945201737E+02  0.87959876966E+02  0.47000000000E+01 0.  1.
          5    1    4    4  503    0  0.64266328523E+01 -0.23067690767E+02  0.30714031077E+02  0.39228327420E+02  0.47000000000E+01 0. -1.
         -5    1    4    4    0  503 -0.73632893480E+02  0.10248702747E+03  0.16081082121E-01  0.12628334831E+03  0.47000000000E+01 0. -1.
<mgrwt>
<rscale>  0 0.16263154E+03</rscale>
<asrwt>0</asrwt>
<pdfrwt beam="1">  1        5 0.33105206E-01 0.16263387E+03</pdfrwt>
<pdfrwt beam="2">  1       -5 0.19057005E-01 0.16263387E+03</pdfrwt>
<totfact> 0.17093313E+02</totfact>
</mgrwt>
</event>
<event>
 8    1  0.3488953E-007  0.1466950E+03  0.7546771E-02  0.1204595E+00
         -5   -1    0    0    0  501 -0.00000000000E+00  0.00000000000E+00  0.16229183215E+03  0.16235987430E+03  0.47000000000E+01 0. -1.
          5   -1    0    0  501    0  0.00000000000E+00 -0.00000000000E+00 -0.13245795718E+03  0.13254131589E+03  0.47000000000E+01 0. -1.
         25    2    1    2    0    0  0.55049117826E+02 -0.53515535701E+02  0.14754987187E+02  0.14743328685E+03  0.12499818595E+03 0.  0.
         25    2    1    2    0    0 -0.55049117826E+02  0.53515535701E+02  0.15078887789E+02  0.14746790334E+03  0.12500036690E+03 0.  0.
          5    1    4    4  502    0 -0.77129109377E+02  0.10545606666E+01  0.37767337262E+02  0.86014378887E+02  0.47000000000E+01 0.  1.
         -5    1    4    4    0  502  0.22079991551E+02  0.52460975035E+02 -0.22688449473E+02  0.61453524455E+02  0.47000000000E+01 0.  1.
          5    1    3    3  503    0  0.73640057029E+02 -0.42030663855E+02  0.55156456943E+02  0.10126084853E+03  0.47000000000E+01 0.  1.
         -5    1    3    3    0  503 -0.18590939204E+02 -0.11484871846E+02 -0.40401469756E+02  0.46172438318E+02  0.47000000000E+01 0.  1.
<mgrwt>
<rscale>  0 0.14669449E+03</rscale>
<asrwt>0</asrwt>
<pdfrwt beam="2">  1        5 0.20389793E-01 0.14669495E+03</pdfrwt>
<pdfrwt beam="1">  1       -5 0.24979620E-01 0.14669495E+03</pdfrwt>
<totfact> 0.25270046E+02</totfact>
</mgrwt>
</event>
<event>
 8    1  0.3488953E-007  0.2461560E+03  0.7546771E-02  0.1115759E+00
          5   -1    0    0  501    0  0.00000000000E+00  0.00000000000E+00  0.55289006524E+03  0.55291004172E+03  0.47000000000E+01 0. -1.
         -5   -1    0    0    0  501 -0.00000000000E+00 -0.00000000000E+00 -0.11600466992E+03  0.11609984256E+03  0.47000000000E+01 0. -1.
         25    2    1    2    0    0 -0.21041650231E+03 -0.26308549062E+02  0.13939479554E+03  0.28288371178E+03  0.12500016466E+03 0.  0.
         25    2    1    2    0    0  0.21041650231E+03  0.26308549062E+02  0.29749059978E+03  0.38612617251E+03  0.12500207976E+03 0.  0.
          5    1    3    3  502    0 -0.11151598115E+03 -0.29520126598E+02  0.45255193659E+01  0.11554143089E+03  0.47000000000E+01 0. -1.
         -5    1    3    3    0  502 -0.98900521159E+02  0.32115775359E+01  0.13486927618E+03  0.16734228089E+03  0.47000000000E+01 0. -1.
          5    1    4    4  503    0  0.18917829878E+03  0.16254044877E+02  0.16533081766E+03  0.25181142145E+03  0.47000000000E+01 0. -1.
         -5    1    4    4    0  503  0.21238203529E+02  0.10054504185E+02  0.13215978212E+03  0.13431475106E+03  0.47000000000E+01 0. -1.
<mgrwt>
<rscale>  0 0.24615573E+03</rscale>
<asrwt>0</asrwt>
<pdfrwt beam="1">  1        5 0.85068867E-01 0.24615598E+03</pdfrwt>
<pdfrwt beam="2">  1       -5 0.17855730E-01 0.24615598E+03</pdfrwt>
<totfact> 0.27946480E+01</totfact>
</mgrwt>
</event>
<event>
 8    1  0.3488953E-007  0.1267472E+03  0.7546771E-02  0.1232364E+00
          5   -1    0    0  501    0  0.00000000000E+00  0.00000000000E+00  0.96411070899E+03  0.96412216507E+03  0.47000000000E+01 0.  1.
         -5   -1    0    0    0  501 -0.00000000000E+00 -0.00000000000E+00 -0.19917736247E+02  0.20464755489E+02  0.47000000000E+01 0.  1.
         25    2    1    2    0    0 -0.20573199223E+02  0.40026150838E+01  0.26602418104E+03  0.29467560931E+03  0.12500228944E+03 0.  0.
         25    2    1    2    0    0  0.20573199223E+02 -0.40026150838E+01  0.67816879170E+03  0.68991131126E+03  0.12500171965E+03 0.  0.
          5    1    3    3  502    0 -0.69931795452E+02 -0.18165161351E+02  0.14881481457E+03  0.16549431452E+03  0.47000000000E+01 0. -1.
         -5    1    3    3    0  502  0.49358596230E+02  0.22167776435E+02  0.11720936647E+03  0.12918129478E+03  0.47000000000E+01 0. -1.
          5    1    4    4  503    0  0.50999255498E+02 -0.40377406234E+01  0.11561131346E+03  0.12651202793E+03  0.47000000000E+01 0.  1.
         -5    1    4    4    0  503 -0.30426056275E+02  0.35125539547E-01  0.56255747824E+03  0.56339928333E+03  0.47000000000E+01 0.  1.
<mgrwt>
<rscale>  0 0.12674705E+03</rscale>
<asrwt>0</asrwt>
<pdfrwt beam="1">  1        5 0.14836766E+00 0.12674719E+03</pdfrwt>
<pdfrwt beam="2">  1       -5 0.31072273E-02 0.12674719E+03</pdfrwt>
<totfact> 0.11583489E+02</totfact>
</mgrwt>
</event>
<event>
 8    1  0.3488953E-007  0.1321348E+03  0.7546771E-02  0.1224324E+00
         -5   -1    0    0    0  501 -0.00000000000E+00  0.00000000000E+00  0.33607395378E+03  0.33610681697E+03  0.47000000000E+01 0. -1.
          5   -1    0    0  501    0  0.00000000000E+00 -0.00000000000E+00 -0.52613702175E+02  0.52823211343E+02  0.47000000000E+01 0. -1.
         25    2    1    2    0    0 -0.28032876097E+02 -0.32372741037E+02  0.16574411848E+03  0.21196869262E+03  0.12500310931E+03 0.  0.
         25    2    1    2    0    0  0.28032876097E+02  0.32372741037E+02  0.11771613313E+03  0.17696133569E+03  0.12499755928E+03 0.  0.
          5    1    3    3  502    0  0.26425603063E+02  0.86958158077E+01 -0.44432424299E+01  0.28561549557E+02  0.47000000000E+01 0.  1.
         -5    1    3    3    0  502 -0.54458479161E+02 -0.41068556845E+02  0.17018736091E+03  0.18340714306E+03  0.47000000000E+01 0.  1.
          5    1    4    4  503    0 -0.34714175504E+02  0.52363569367E+02  0.76612868484E+02  0.99189913777E+02  0.47000000000E+01 0. -1.
         -5    1    4    4    0  503  0.62747051601E+02 -0.19990828330E+02  0.41103264649E+02  0.77771421916E+02  0.47000000000E+01 0. -1.
<mgrwt>
<rscale>  0 0.13213352E+03</rscale>
<asrwt>0</asrwt>
<pdfrwt beam="2">  1        5 0.81130599E-02 0.13213483E+03</pdfrwt>
<pdfrwt beam="1">  1       -5 0.51722328E-01 0.13213483E+03</pdfrwt>
<totfact> 0.29175330E+02</totfact>
</mgrwt>
</event>
<event>
 8    1  0.3488953E-007  0.1847323E+03  0.7546771E-02  0.1163303E+00
          5   -1    0    0  501    0  0.00000000000E+00  0.00000000000E+00  0.94623073719E+03  0.94624240974E+03  0.47000000000E+01 0. -1.
         -5   -1    0    0    0  501 -0.00000000000E+00 -0.00000000000E+00 -0.40357869776E+02  0.40630624569E+02  0.47000000000E+01 0. -1.
         25    2    1    2    0    0  0.83736659696E+02  0.10718715630E+03  0.28949229138E+03  0.34340507000E+03  0.12498136133E+03 0.  0.
         25    2    1    2    0    0 -0.83736659696E+02 -0.10718715630E+03  0.61638057603E+03  0.64346796431E+03  0.12500036774E+03 0.  0.
          5    1    3    3  502    0  0.62129115445E+02  0.23274846951E+02  0.36338368037E+02  0.75791242754E+02  0.47000000000E+01 0. -1.
         -5    1    3    3    0  502  0.21607544251E+02  0.83912309350E+02  0.25315392335E+03  0.26761382725E+03  0.47000000000E+01 0. -1.
          5    1    4    4  503    0 -0.40130814645E+02 -0.86381762862E+02  0.17389499626E+03  0.19832763540E+03  0.47000000000E+01 0. -1.
         -5    1    4    4    0  503 -0.43605845051E+02 -0.20805393438E+02  0.44248557977E+03  0.44514032891E+03  0.47000000000E+01 0. -1.
<mgrwt>
<rscale>  0 0.18472904E+03</rscale>
<asrwt>0</asrwt>
<pdfrwt beam="1">  1        5 0.14559582E+00 0.18473226E+03</pdfrwt>
<pdfrwt beam="2">  1       -5 0.62307829E-02 0.18473226E+03</pdfrwt>
<totfact> 0.43109795E+01</totfact>
</mgrwt>
</event>
<event>
 8    1  0.3488953E-007  0.2020340E+03  0.7546771E-02  0.1148034E+00
          5   -1    0    0  501    0  0.00000000000E+00  0.00000000000E+00  0.43292904048E+03  0.43295455199E+03  0.47000000000E+01 0.  1.
         -5   -1    0    0    0  501 -0.00000000000E+00 -0.00000000000E+00 -0.15028855988E+03  0.15036203388E+03  0.47000000000E+01 0.  1.
         25    2    1    2    0    0 -0.52630387769E+02 -0.14974303671E+03 -0.36790426798E+02  0.20535648365E+03  0.12499926044E+03 0.  0.
         25    2    1    2    0    0  0.52630387769E+02  0.14974303671E+03  0.31943090740E+03  0.37796010222E+03  0.12499919804E+03 0.  0.
          5    1    3    3  502    0 -0.47742717558E+02 -0.40765035033E+01  0.15282461368E+02  0.50513647523E+02  0.47000000000E+01 0. -1.
         -5    1    3    3    0  502 -0.48876702114E+01 -0.14566653321E+03 -0.52072888166E+02  0.15484283612E+03  0.47000000000E+01 0. -1.
          5    1    4    4  503    0 -0.36389036383E+02  0.18373945301E+02  0.90490325605E+02  0.99359714487E+02  0.47000000000E+01 0.  1.
         -5    1    4    4    0  503  0.89019424152E+02  0.13136909141E+03  0.22894058179E+03  0.27860038773E+03  0.47000000000E+01 0.  1.
<mgrwt>
<rscale>  0 0.20203402E+03</rscale>
<asrwt>0</asrwt>
<pdfrwt beam="1">  1        5 0.66612082E-01 0.20203403E+03</pdfrwt>
<pdfrwt beam="2">  1       -5 0.23128931E-01 0.20203403E+03</pdfrwt>
<totfact> 0.28780258E+01</totfact>
</mgrwt>
</event>
<event>
 8    1  0.3488953E-007  0.1309646E+03  0.7546771E-02  0.1226035E+00
         -5   -1    0    0    0  501 -0.00000000000E+00  0.00000000000E+00  0.82030639822E+02  0.82165174311E+02  0.47000000000E+01 0.  1.
          5   -1    0    0  501    0  0.00000000000E+00 -0.00000000000E+00 -0.23532204206E+03  0.23536897306E+03  0.47000000000E+01 0.  1.
         25    2    1    2    0    0  0.38933781034E+02  0.33064557073E+01 -0.23306464240E+02  0.13301363068E+03  0.12499065051E+03 0.  0.
         25    2    1    2    0    0 -0.38933781034E+02 -0.33064557073E+01 -0.12998493800E+03  0.18452051669E+03  0.12499986008E+03 0.  0.
          5    1    3    3  502    0  0.30681570076E+01  0.54421855158E+02 -0.40507807536E+02  0.68074403249E+02  0.47000000000E+01 0. -1.
         -5    1    3    3    0  502  0.35865624027E+02 -0.51115399451E+02  0.17201343296E+02  0.64939227429E+02  0.47000000000E+01 0. -1.
          5    1    4    4  503    0 -0.34166398482E+02  0.39055625766E+02 -0.49540413908E+01  0.52338486941E+02  0.47000000000E+01 0. -1.
         -5    1    4    4    0  503 -0.47673825528E+01 -0.42362081474E+02 -0.12503089661E+03  0.13218202975E+03  0.47000000000E+01 0. -1.
<mgrwt>
<rscale>  0 0.13096244E+03</rscale>
<asrwt>0</asrwt>
<pdfrwt beam="2">  1        5 0.36217350E-01 0.13096464E+03</pdfrwt>
<pdfrwt beam="1">  1       -5 0.12634057E-01 0.13096464E+03</pdfrwt>
<totfact> 0.28057205E+02</totfact>
</mgrwt>
</event>
<event>
 8    1  0.3488953E-007  0.1420183E+03  0.7546771E-02  0.1210640E+00
         -5   -1    0    0    0  501 -0.00000000000E+00  0.00000000000E+00  0.35799715859E+03  0.35802800947E+03  0.47000000000E+01 0.  1.
          5   -1    0    0  501    0  0.00000000000E+00 -0.00000000000E+00 -0.59842614592E+02  0.60026898314E+02  0.47000000000E+01 0.  1.
         25    2    1    2    0    0 -0.14231800566E+02 -0.65886365546E+02  0.20050533725E+03  0.24570474661E+03  0.12499949971E+03 0.  0.
         25    2    1    2    0    0  0.14231800566E+02  0.65886365546E+02  0.97649206754E+02  0.17235016117E+03  0.12500261263E+03 0.  0.
          5    1    3    3  502    0  0.35269548643E+02 -0.78363708785E+02  0.93660435216E+02  0.12719740186E+03  0.47000000000E+01 0.  1.
         -5    1    3    3    0  502 -0.49501349210E+02  0.12477343240E+02  0.10684490203E+03  0.11850734474E+03  0.47000000000E+01 0.  1.
          5    1    4    4  503    0  0.55433750372E+02 -0.64714500889E+01  0.55723229011E+02  0.79006003556E+02  0.47000000000E+01 0. -1.
         -5    1    4    4    0  503 -0.41201949806E+02  0.72357815634E+02  0.41925977744E+02  0.93344157615E+02  0.47000000000E+01 0. -1.
<mgrwt>
<rscale>  0 0.14201766E+03</rscale>
<asrwt>0</asrwt>
<pdfrwt beam="2">  1        5 0.92231050E-02 0.14201835E+03</pdfrwt>
<pdfrwt beam="1">  1       -5 0.55093034E-01 0.14201835E+03</pdfrwt>
<totfact> 0.20932469E+02</totfact>
</mgrwt>
</event>
<event>
 8    1  0.3488953E-007  0.1305082E+03  0.7546771E-02  0.1226705E+00
         -5   -1    0    0    0  501 -0.00000000000E+00  0.00000000000E+00  0.18020393866E+03  0.18026521990E+03  0.47000000000E+01 0.  1.
          5   -1    0    0  501    0  0.00000000000E+00 -0.00000000000E+00 -0.95366682929E+02  0.95482428817E+02  0.47000000000E+01 0.  1.
         25    2    1    2    0    0  0.36565815391E+02 -0.83109125954E+01  0.56435364608E+02  0.14218467715E+03  0.12500160764E+03 0.  0.
         25    2    1    2    0    0 -0.36565815391E+02  0.83109125954E+01  0.28401891119E+02  0.13356297158E+03  0.12500507923E+03 0.  0.
          5    1    3    3  502    0  0.17832419967E+02  0.31163580148E+02 -0.28812922018E+02  0.46275678328E+02  0.47000000000E+01 0.  1.
         -5    1    3    3    0  502  0.18733395423E+02 -0.39474492743E+02  0.85248286626E+02  0.95908998817E+02  0.47000000000E+01 0.  1.
          5    1    4    4  503    0 -0.74356020471E+02 -0.16344609132E+01 -0.13872906189E+02  0.75802617164E+02  0.47000000000E+01 0.  1.
         -5    1    4    4    0  503  0.37790205080E+02  0.99453735087E+01  0.42274797308E+02  0.57760354411E+02  0.47000000000E+01 0.  1.
<mgrwt>
<rscale>  0 0.13050741E+03</rscale>
<asrwt>0</asrwt>
<pdfrwt beam="2">  1        5 0.14685415E-01 0.13050824E+03</pdfrwt>
<pdfrwt beam="1">  1       -5 0.27737300E-01 0.13050824E+03</pdfrwt>
<totfact> 0.36247283E+02</totfact>
</mgrwt>
</event>
<event>
 8    1  0.3488953E-007  0.1651901E+03  0.7546771E-02  0.1182962E+00
         -5   -1    0    0    0  501 -0.00000000000E+00  0.00000000000E+00  0.62666589620E+02  0.62842592679E+02  0.47000000000E+01 0.  1.
          5   -1    0    0  501    0  0.00000000000E+00 -0.00000000000E+00 -0.44350983919E+03  0.44353474211E+03  0.47000000000E+01 0.  1.
         25    2    1    2    0    0 -0.99444927423E+02 -0.42070091328E+02 -0.22626333181E+03  0.28014133309E+03  0.12499954002E+03 0.  0.
         25    2    1    2    0    0  0.99444927423E+02  0.42070091328E+02 -0.15457991776E+03  0.22623600171E+03  0.12501436445E+03 0.  0.
          5    1    3    3  502    0 -0.51973588406E+02  0.40943150969E+02 -0.11996545522E+03  0.13708171267E+03  0.47000000000E+01 0. -1.
         -5    1    3    3    0  502 -0.47471339018E+02 -0.83013242297E+02 -0.10629787659E+03  0.14305962041E+03  0.47000000000E+01 0. -1.
          5    1    4    4  503    0  0.12098623859E+03  0.39650969641E+01 -0.11167050184E+03  0.16475977331E+03  0.47000000000E+01 0. -1.
         -5    1    4    4    0  503 -0.21541311168E+02  0.38104994364E+02 -0.42909415924E+02  0.61476228391E+02  0.47000000000E+01 0. -1.
<mgrwt>
<rscale>  0 0.16518732E+03</rscale>
<asrwt>0</asrwt>
<pdfrwt beam="2">  1        5 0.68247735E-01 0.16519013E+03</pdfrwt>
<pdfrwt beam="1">  1       -5 0.96564683E-02 0.16519013E+03</pdfrwt>
<totfact> 0.12656491E+02</totfact>
</mgrwt>
</event>
<event>
 8    1  0.3488953E-007  0.1271615E+03  0.7546771E-02  0.1231733E+00
         -5   -1    0    0    0  501 -0.00000000000E+00  0.00000000000E+00  0.36247360498E+03  0.36250407488E+03  0.47000000000E+01 0.  1.
          5   -1    0    0  501    0  0.00000000000E+00 -0.00000000000E+00 -0.47615112921E+02  0.47846514799E+02  0.47000000000E+01 0.  1.
         25    2    1    2    0    0  0.23234996971E+02  0.24310443595E+01  0.21018302765E+03  0.24565618990E+03  0.12499713384E+03 0.  0.
         25    2    1    2    0    0 -0.23234996971E+02 -0.24310443595E+01  0.10467546441E+03  0.16469439977E+03  0.12498606885E+03 0.  0.
          5    1    4    4  502    0 -0.14493002816E+02  0.49053493534E+02  0.99539237618E+02  0.11201090208E+03  0.47000000000E+01 0.  1.
         -5    1    4    4    0  502 -0.87419941550E+01 -0.51484537894E+02  0.51362267913E+01  0.52683497697E+02  0.47000000000E+01 0.  1.
          5    1    3    3  503    0 -0.48765165955E+02  0.15716165861E+02  0.11044184641E+03  0.12183813327E+03  0.47000000000E+01 0.  1.
         -5    1    3    3    0  503  0.72000162926E+02 -0.13285121502E+02  0.99741181238E+02  0.12381805664E+03  0.47000000000E+01 0.  1.
<mgrwt>
<rscale>  0 0.12715883E+03</rscale>
<asrwt>0</asrwt>
<pdfrwt beam="2">  1        5 0.73455459E-02 0.12716155E+03</pdfrwt>
<pdfrwt beam="1">  1       -5 0.55785315E-01 0.12716155E+03</pdfrwt>
<totfact> 0.28995420E+02</totfact>
</mgrwt>
</event>
<event>
 8    1  0.3488953E-007  0.1452698E+03  0.7546771E-02  0.1206410E+00
          5   -1    0    0  501    0  0.00000000000E+00  0.00000000000E+00  0.88616906289E+03  0.88618152656E+03  0.47000000000E+01 0. -1.
         -5   -1    0    0    0  501 -0.00000000000E+00 -0.00000000000E+00 -0.28640072362E+02  0.29023158768E+02  0.47000000000E+01 0. -1.
         25    2    1    2    0    0  0.54742481872E+02  0.49804675658E+02  0.23764958064E+03  0.27853068451E+03  0.12499909599E+03 0.  0.
         25    2    1    2    0    0 -0.54742481872E+02 -0.49804675658E+02  0.61987940989E+03  0.63667400082E+03  0.12500422182E+03 0.  0.
          5    1    3    3  502    0  0.51584653892E+02  0.90401515963E+02  0.17479962339E+03  0.20349547647E+03  0.47000000000E+01 0.  1.
         -5    1    3    3    0  502  0.31578279801E+01 -0.40596840306E+02  0.62849957252E+02  0.75035208049E+02  0.47000000000E+01 0.  1.
          5    1    4    4  503    0 -0.21987508096E+02 -0.50682532032E+02  0.58835738333E+03  0.59096418680E+03  0.47000000000E+01 0. -1.
         -5    1    4    4    0  503 -0.32754973776E+02  0.87785637399E+00  0.31522026561E+02  0.45709814016E+02  0.47000000000E+01 0. -1.
<mgrwt>
<rscale>  0 0.14526865E+03</rscale>
<asrwt>0</asrwt>
<pdfrwt beam="1">  1        5 0.13636412E+00 0.14526975E+03</pdfrwt>
<pdfrwt beam="2">  1       -5 0.44365922E-02 0.14526975E+03</pdfrwt>
<totfact> 0.84773637E+01</totfact>
</mgrwt>
</event>
<event>
 8    1  0.3488953E-007  0.1562110E+03  0.7546771E-02  0.1193043E+00
          5   -1    0    0  501    0  0.00000000000E+00  0.00000000000E+00  0.72198422543E+02  0.72351241991E+02  0.47000000000E+01 0. -1.
         -5   -1    0    0    0  501 -0.00000000000E+00 -0.00000000000E+00 -0.39577790861E+03  0.39580581469E+03  0.47000000000E+01 0. -1.
         25    2    1    2    0    0 -0.54424440335E+02  0.76239953337E+02 -0.25162955877E+03  0.29617444428E+03  0.12500926528E+03 0.  0.
         25    2    1    2    0    0  0.54424440335E+02 -0.76239953337E+02 -0.71949927297E+02  0.17198261241E+03  0.12500670678E+03 0.  0.
          5    1    4    4  502    0  0.51876494210E+02  0.22780014438E+02 -0.30349491486E+02  0.64445956760E+02  0.47000000000E+01 0. -1.
         -5    1    4    4    0  502  0.25479461252E+01 -0.99019967775E+02 -0.41600435811E+02  0.10753665565E+03  0.47000000000E+01 0. -1.
          5    1    3    3  503    0 -0.32327664112E+02 -0.31883192471E+02 -0.78597885663E+02  0.90891877854E+02  0.47000000000E+01 0. -1.
         -5    1    3    3    0  503 -0.22096776223E+02  0.10812314581E+03 -0.17303167311E+03  0.20528256642E+03  0.47000000000E+01 0. -1.
<mgrwt>
<rscale>  0 0.15621046E+03</rscale>
<asrwt>0</asrwt>
<pdfrwt beam="1">  1        5 0.11121352E-01 0.15621097E+03</pdfrwt>
<pdfrwt beam="2">  1       -5 0.60902810E-01 0.15621097E+03</pdfrwt>
<totfact> 0.12509285E+02</totfact>
</mgrwt>
</event>
<event>
 8    1  0.3488953E-007  0.1263141E+03  0.7546771E-02  0.1233033E+00
         -5   -1    0    0    0  501 -0.00000000000E+00  0.00000000000E+00  0.23037997874E+02  0.23512535934E+02  0.47000000000E+01 0.  1.
          5   -1    0    0  501    0  0.00000000000E+00 -0.00000000000E+00 -0.68772182761E+03  0.68773788769E+03  0.47000000000E+01 0.  1.
         25    2    1    2    0    0 -0.58401545399E+01  0.17205258583E+02 -0.30989227344E+03  0.33464679680E+03  0.12500051657E+03 0.  0.
         25    2    1    2    0    0  0.58401545399E+01 -0.17205258583E+02 -0.35479155629E+03  0.37660362682E+03  0.12499245975E+03 0.  0.
          5    1    3    3  502    0 -0.55029546278E+02  0.26511472646E+02 -0.24505619249E+03  0.25259797430E+03  0.47000000000E+01 0. -1.
         -5    1    3    3    0  502  0.49189391738E+02 -0.93062140628E+01 -0.64836080958E+02  0.82048822501E+02  0.47000000000E+01 0. -1.
          5    1    4    4  503    0  0.19797866003E+02 -0.54358361977E+02 -0.31465176111E+03  0.31996032221E+03  0.47000000000E+01 0.  1.
         -5    1    4    4    0  503 -0.13957711463E+02  0.37153103394E+02 -0.40139795175E+02  0.56643304615E+02  0.47000000000E+01 0.  1.
<mgrwt>
<rscale>  0 0.12631213E+03</rscale>
<asrwt>0</asrwt>
<pdfrwt beam="2">  1        5 0.10584108E+00 0.12631412E+03</pdfrwt>
<pdfrwt beam="1">  1       -5 0.35820462E-02 0.12631412E+03</pdfrwt>
<totfact> 0.21925303E+02</totfact>
</mgrwt>
</event>
<event>
 8    1  0.3488953E-007  0.1707144E+03  0.7546771E-02  0.1177105E+00
         -5   -1    0    0    0  501 -0.00000000000E+00  0.00000000000E+00  0.75646769571E+03  0.75648229633E+03  0.47000000000E+01 0.  1.
          5   -1    0    0  501    0  0.00000000000E+00 -0.00000000000E+00 -0.39341362255E+02  0.39621115381E+02  0.47000000000E+01 0.  1.
         25    2    1    2    0    0 -0.94253445044E+02 -0.68076349604E+02  0.42096825609E+03  0.45426570267E+03  0.12499981884E+03 0.  0.
         25    2    1    2    0    0  0.94253445044E+02  0.68076349604E+02  0.29615807737E+03  0.34183770904E+03  0.12500124500E+03 0.  0.
          5    1    3    3  502    0 -0.39038167636E+02 -0.26586854035E+02  0.27711186225E+02  0.54962161365E+02  0.47000000000E+01 0. -1.
         -5    1    3    3    0  502 -0.55215277408E+02 -0.41489495569E+02  0.39325706986E+03  0.39930354131E+03  0.47000000000E+01 0. -1.
          5    1    4    4  503    0  0.15659095125E+02 -0.32723702179E+02  0.33102826899E+02  0.49334927720E+02  0.47000000000E+01 0. -1.
         -5    1    4    4    0  503  0.78594349919E+02  0.10080005178E+03  0.26305525047E+03  0.29250278132E+03  0.47000000000E+01 0. -1.
<mgrwt>
<rscale>  0 0.17071416E+03</rscale>
<asrwt>0</asrwt>
<pdfrwt beam="2">  1        5 0.60751596E-02 0.17071442E+03</pdfrwt>
<pdfrwt beam="1">  1       -5 0.11640229E+00 0.17071442E+03</pdfrwt>
<totfact> 0.79267692E+01</totfact>
</mgrwt>
</event>
<event>
 8    1  0.3488953E-007  0.1563415E+03  0.7546771E-02  0.1192893E+00
          5   -1    0    0  501    0  0.00000000000E+00  0.00000000000E+00  0.92180297150E+03  0.92181495338E+03  0.47000000000E+01 0.  1.
         -5   -1    0    0    0  501 -0.00000000000E+00 -0.00000000000E+00 -0.34571898805E+02  0.34889915262E+02  0.47000000000E+01 0.  1.
         25    2    1    2    0    0 -0.19735511739E+02  0.91786390704E+02  0.21080683296E+03  0.26244812228E+03  0.12500105649E+03 0.  0.
         25    2    1    2    0    0  0.19735511739E+02 -0.91786390704E+02  0.67642423974E+03  0.69425674636E+03  0.12501378251E+03 0.  0.
          5    1    3    3  502    0 -0.48938080245E+02 -0.15541833874E+01  0.11669547737E+03  0.12663836553E+03  0.47000000000E+01 0. -1.
         -5    1    3    3    0  502  0.29202568506E+02  0.93340574091E+02  0.94111355583E+02  0.13580975675E+03  0.47000000000E+01 0. -1.
          5    1    4    4  503    0  0.59540626611E+02 -0.74026349790E+01  0.33079079640E+03  0.33622094849E+03  0.47000000000E+01 0.  1.
         -5    1    4    4    0  503 -0.39805114872E+02 -0.84383755725E+02  0.34563344334E+03  0.35803579787E+03  0.47000000000E+01 0.  1.
<mgrwt>
<rscale>  0 0.15633900E+03</rscale>
<asrwt>0</asrwt>
<pdfrwt beam="1">  1        5 0.14184121E+00 0.15634154E+03</pdfrwt>
<pdfrwt beam="2">  1       -5 0.53441387E-02 0.15634154E+03</pdfrwt>
<totfact> 0.57253983E+01</totfact>
</mgrwt>
</event>
<event>
 8    1  0.3488953E-007  0.1346056E+03  0.7546771E-02  0.1220780E+00
          5   -1    0    0  501    0  0.00000000000E+00  0.00000000000E+00  0.39900913356E+03  0.39903681367E+03  0.47000000000E+01 0.  1.
         -5   -1    0    0    0  501 -0.00000000000E+00 -0.00000000000E+00 -0.59088002961E+02  0.59274632803E+02  0.47000000000E+01 0.  1.
         25    2    1    2    0    0  0.38107739307E+02 -0.32247582683E+02  0.59312378085E+02  0.14708814644E+03  0.12499943298E+03 0.  0.
         25    2    1    2    0    0 -0.38107739307E+02  0.32247582683E+02  0.28060875251E+03  0.31122330003E+03  0.12500625629E+03 0.  0.
          5    1    4    4  502    0 -0.17142080423E+02  0.41285048456E+02  0.28411774460E+03  0.28765133224E+03  0.47000000000E+01 0.  1.
         -5    1    4    4    0  502 -0.20965658884E+02 -0.90374657729E+01 -0.35089920817E+01  0.23571967790E+02  0.47000000000E+01 0.  1.
          5    1    3    3  503    0  0.27881919601E+02 -0.60636624728E+02 -0.13390489975E+02  0.68231934758E+02  0.47000000000E+01 0. -1.
         -5    1    3    3    0  503  0.10225819707E+02  0.28389042045E+02  0.72702868059E+02  0.78856211683E+02  0.47000000000E+01 0. -1.
<mgrwt>
<rscale>  0 0.13460403E+03</rscale>
<asrwt>0</asrwt>
<pdfrwt beam="1">  1        5 0.61402505E-01 0.13460561E+03</pdfrwt>
<pdfrwt beam="2">  1       -5 0.91069476E-02 0.13460561E+03</pdfrwt>
<totfact> 0.16601539E+02</totfact>
</mgrwt>
</event>
<event>
 8    1  0.3488953E-007  0.1364069E+03  0.7546771E-02  0.1218248E+00
          5   -1    0    0  501    0  0.00000000000E+00  0.00000000000E+00  0.32261656657E+03  0.32265080044E+03  0.47000000000E+01 0.  1.
         -5   -1    0    0    0  501 -0.00000000000E+00 -0.00000000000E+00 -0.68008857193E+02  0.68171069059E+02  0.47000000000E+01 0.  1.
         25    2    1    2    0    0 -0.47431170095E+02  0.27056111887E+02  0.50757864420E+02  0.14554452584E+03  0.12500039646E+03 0.  0.
         25    2    1    2    0    0  0.47431170095E+02 -0.27056111887E+02  0.20384984495E+03  0.24527734366E+03  0.12499786773E+03 0.  0.
          5    1    3    3  502    0 -0.39434111939E+02 -0.58266989338E+01  0.86953507001E+02  0.95770569512E+02  0.47000000000E+01 0.  1.
         -5    1    3    3    0  502 -0.79970581561E+01  0.32882810821E+02 -0.36195642581E+02  0.49773956328E+02  0.47000000000E+01 0.  1.
          5    1    4    4  503    0  0.60190414451E+02 -0.18954090691E+02  0.28819376977E+02  0.69532654452E+02  0.47000000000E+01 0.  1.
         -5    1    4    4    0  503 -0.12759244356E+02 -0.81020211963E+01  0.17503046798E+03  0.17574468920E+03  0.47000000000E+01 0.  1.
<mgrwt>
<rscale>  0 0.13640634E+03</rscale>
<asrwt>0</asrwt>
<pdfrwt beam="1">  1        5 0.49648429E-01 0.13640692E+03</pdfrwt>
<pdfrwt beam="2">  1       -5 0.10478012E-01 0.13640692E+03</pdfrwt>
<totfact> 0.20650898E+02</totfact>
</mgrwt>
</event>
<event>
 8    1  0.3488953E-007  0.1380423E+03  0.7546771E-02  0.1215990E+00
         -5   -1    0    0    0  501 -0.00000000000E+00  0.00000000000E+00  0.24485171886E+02  0.24932180857E+02  0.47000000000E+01 0.  1.
          5   -1    0    0  501    0  0.00000000000E+00 -0.00000000000E+00 -0.79595456905E+03  0.79596844535E+03  0.47000000000E+01 0.  1.
         25    2    1    2    0    0 -0.17005031074E+01 -0.58532361939E+02 -0.31267690459E+03  0.34179310031E+03  0.12500699039E+03 0.  0.
         25    2    1    2    0    0  0.17005031074E+01  0.58532361939E+02 -0.45879249257E+03  0.47910752590E+03  0.12499816409E+03 0.  0.
          5    1    3    3  502    0  0.53991547406E+01 -0.95773451532E+02 -0.25619658407E+03  0.27360644104E+03  0.47000000000E+01 0.  1.
         -5    1    3    3    0  502 -0.70996578480E+01  0.37241089593E+02 -0.56480320526E+02  0.68186659270E+02  0.47000000000E+01 0.  1.
          5    1    4    4  503    0  0.32078581556E+02  0.35413189472E+02 -0.53068964705E+02  0.71564896409E+02  0.47000000000E+01 0. -1.
         -5    1    4    4    0  503 -0.30378078449E+02  0.23119172467E+02 -0.40572352786E+03  0.40754262949E+03  0.47000000000E+01 0. -1.
<mgrwt>
<rscale>  0 0.13804030E+03</rscale>
<asrwt>0</asrwt>
<pdfrwt beam="2">  1        5 0.12248998E+00 0.13804230E+03</pdfrwt>
<pdfrwt beam="1">  1       -5 0.38024028E-02 0.13804230E+03</pdfrwt>
<totfact> 0.14210061E+02</totfact>
</mgrwt>
</event>
<event>
 8    1  0.3488953E-007  0.1547652E+03  0.7546771E-02  0.1194737E+00
          5   -1    0    0  501    0  0.00000000000E+00  0.00000000000E+00  0.82560281763E+02  0.82693954584E+02  0.47000000000E+01 0. -1.
         -5   -1    0    0    0  501 -0.00000000000E+00 -0.00000000000E+00 -0.30631506606E+03  0.30635112158E+03  0.47000000000E+01 0. -1.
         25    2    1    2    0    0 -0.61609025414E+02 -0.67316070321E+02 -0.15713147157E+03  0.22055061961E+03  0.12500060446E+03 0.  0.
         25    2    1    2    0    0  0.61609025414E+02  0.67316070321E+02 -0.66623312727E+02  0.16849445656E+03  0.12499836302E+03 0.  0.
          5    1    4    4  502    0  0.98868177681E+02  0.38766147026E+02 -0.55957108184E+02  0.12012917493E+03  0.47000000000E+01 0. -1.
         -5    1    4    4    0  502 -0.37259152266E+02  0.28549923295E+02 -0.10666204544E+02  0.48365281630E+02  0.47000000000E+01 0. -1.
          5    1    3    3  503    0 -0.39738611966E+02 -0.10252549904E+03 -0.13195230978E+03  0.17182589238E+03  0.47000000000E+01 0. -1.
         -5    1    3    3    0  503 -0.21870413448E+02  0.35209428720E+02 -0.25179161788E+02  0.48724727229E+02  0.47000000000E+01 0. -1.
<mgrwt>
<rscale>  0 0.15476478E+03</rscale>
<asrwt>0</asrwt>
<pdfrwt beam="1">  1        5 0.12714638E-01 0.15476523E+03</pdfrwt>
<pdfrwt beam="2">  1       -5 0.47138450E-01 0.15476523E+03</pdfrwt>
<totfact> 0.17060471E+02</totfact>
</mgrwt>
</event>
<event>
 8    1  0.3488953E-007  0.1278155E+03  0.7546771E-02  0.1230760E+00
          5   -1    0    0  501    0  0.00000000000E+00  0.00000000000E+00  0.20765434890E+03  0.20770753144E+03  0.47000000000E+01 0.  1.
         -5   -1    0    0    0  501 -0.00000000000E+00 -0.00000000000E+00 -0.78910992998E+02  0.79050836908E+02  0.47000000000E+01 0.  1.
         25    2    1    2    0    0  0.24826686573E+02  0.97897044105E+01  0.54015070642E+02  0.13876034164E+03  0.12499840750E+03 0.  0.
         25    2    1    2    0    0 -0.24826686573E+02 -0.97897044105E+01  0.74728285258E+02  0.14799802670E+03  0.12492756546E+03 0.  0.
          5    1    3    3  502    0 -0.19013541651E+02 -0.35309002381E+02 -0.16974250465E+02  0.43800178015E+02  0.47000000000E+01 0. -1.
         -5    1    3    3    0  502  0.43840228224E+02  0.45098706791E+02  0.70989321108E+02  0.94960163628E+02  0.47000000000E+01 0. -1.
          5    1    4    4  503    0  0.50036178562E+02  0.24753854291E+01  0.40721434040E+02  0.64730764621E+02  0.47000000000E+01 0. -1.
         -5    1    4    4    0  503 -0.74862865135E+02 -0.12265089840E+02  0.34006851218E+02  0.83267262083E+02  0.47000000000E+01 0. -1.
<mgrwt>
<rscale>  0 0.12779819E+03</rscale>
<asrwt>0</asrwt>
<pdfrwt beam="1">  1        5 0.31961671E-01 0.12781551E+03</pdfrwt>
<pdfrwt beam="2">  1       -5 0.12155001E-01 0.12781551E+03</pdfrwt>
<totfact> 0.38216792E+02</totfact>
</mgrwt>
</event>
<event>
 8    1  0.3488953E-007  0.1473033E+03  0.7546771E-02  0.1203829E+00
          5   -1    0    0  501    0  0.00000000000E+00  0.00000000000E+00  0.10554048335E+03  0.10564508331E+03  0.47000000000E+01 0.  1.
         -5   -1    0    0    0  501 -0.00000000000E+00 -0.00000000000E+00 -0.22490586331E+03  0.22495496739E+03  0.47000000000E+01 0.  1.
         25    2    1    2    0    0  0.69306629718E+02  0.35664736445E+02 -0.10841273567E+03  0.18289772912E+03  0.12499150257E+03 0.  0.
         25    2    1    2    0    0 -0.69306629718E+02 -0.35664736445E+02 -0.10952644292E+02  0.14770232157E+03  0.12498253090E+03 0.  0.
          5    1    3    3  502    0  0.78421187257E+02  0.73814722304E+02 -0.79203117228E+02  0.13376740865E+03  0.47000000000E+01 0.  1.
         -5    1    3    3    0  502 -0.91145575382E+01 -0.38149985858E+02 -0.29209618438E+02  0.49130320469E+02  0.47000000000E+01 0.  1.
          5    1    4    4  503    0  0.61923052562E+01  0.28510208659E+02  0.28396497892E+02  0.40983261640E+02  0.47000000000E+01 0. -1.
         -5    1    4    4    0  503 -0.75498934975E+02 -0.64174945104E+02 -0.39349142184E+02  0.10671905993E+03  0.47000000000E+01 0. -1.
<mgrwt>
<rscale>  0 0.14730138E+03</rscale>
<asrwt>0</asrwt>
<pdfrwt beam="1">  1        5 0.16248821E-01 0.14730329E+03</pdfrwt>
<pdfrwt beam="2">  1       -5 0.34612726E-01 0.14730329E+03</pdfrwt>
<totfact> 0.20318792E+02</totfact>
</mgrwt>
</event>
<event>
 8    1  0.3488953E-007  0.1351091E+03  0.7546771E-02  0.1220069E+00
          5   -1    0    0  501    0  0.00000000000E+00  0.00000000000E+00  0.54662965968E+02  0.54864650263E+02  0.47000000000E+01 0. -1.
         -5   -1    0    0    0  501 -0.00000000000E+00 -0.00000000000E+00 -0.35588043804E+03  0.35591147239E+03  0.47000000000E+01 0. -1.
         25    2    1    2    0    0 -0.13892340535E+02  0.49338964666E+02 -0.20257448665E+03  0.24349723431E+03  0.12500859938E+03 0.  0.
         25    2    1    2    0    0  0.13892340535E+02 -0.49338964666E+02 -0.98642985429E+02  0.16727888834E+03  0.12499782939E+03 0.  0.
          5    1    3    3  502    0  0.48284497280E+02  0.53956681382E+02 -0.10646391678E+03  0.12883854904E+03  0.47000000000E+01 0. -1.
         -5    1    3    3    0  502 -0.62176837815E+02 -0.46177167161E+01 -0.96110569869E+02  0.11465868527E+03  0.47000000000E+01 0. -1.
          5    1    4    4  503    0  0.66284767769E+01 -0.89992781471E+02 -0.49904304211E+02  0.10322386836E+03  0.47000000000E+01 0. -1.
         -5    1    4    4    0  503  0.72638637582E+01  0.40653816806E+02 -0.48738681219E+02  0.64055019979E+02  0.47000000000E+01 0. -1.
<mgrwt>
<rscale>  0 0.13510665E+03</rscale>
<asrwt>0</asrwt>
<pdfrwt beam="1">  1        5 0.84275887E-02 0.13510914E+03</pdfrwt>
<pdfrwt beam="2">  1       -5 0.54768737E-01 0.13510914E+03</pdfrwt>
<totfact> 0.24364193E+02</totfact>
</mgrwt>
</event>
<event>
 8    1  0.3488953E-007  0.1323477E+03  0.7546771E-02  0.1224016E+00
         -5   -1    0    0    0  501 -0.00000000000E+00  0.00000000000E+00  0.13378765875E+02  0.14180316511E+02  0.47000000000E+01 0.  1.
          5   -1    0    0  501    0  0.00000000000E+00 -0.00000000000E+00 -0.12714881230E+04  0.12714968096E+04  0.47000000000E+01 0.  1.
         25    2    1    2    0    0 -0.30441072874E+02  0.31019310345E+02 -0.64905817938E+03  0.66241410407E+03  0.12500827383E+03 0.  0.
         25    2    1    2    0    0  0.30441072874E+02 -0.31019310345E+02 -0.60905117774E+03  0.62326302207E+03  0.12499840416E+03 0.  0.
          5    1    4    4  502    0  0.17499663811E+02 -0.32682895420E+02 -0.60822278555E+03  0.60936972090E+03  0.47000000000E+01 0.  1.
         -5    1    4    4    0  502  0.12941409063E+02  0.16635850754E+01 -0.82839218969E+00  0.13893301172E+02  0.47000000000E+01 0.  1.
          5    1    3    3  503    0 -0.31141059682E+02 -0.11693836494E+02 -0.41753312488E+02  0.53590489024E+02  0.47000000000E+01 0.  1.
         -5    1    3    3    0  503  0.69998680753E+00  0.42713146839E+02 -0.60730486689E+03  0.60882361505E+03  0.47000000000E+01 0.  1.
<mgrwt>
<rscale>  0 0.13234541E+03</rscale>
<asrwt>0</asrwt>
<pdfrwt beam="2">  1        5 0.19567579E+00 0.13234774E+03</pdfrwt>
<pdfrwt beam="1">  1       -5 0.21205986E-02 0.13234774E+03</pdfrwt>
<totfact> 0.97761269E+01</totfact>
</mgrwt>
</event>
<event>
 8    1  0.3488953E-007  0.1304994E+03  0.7546771E-02  0.1226738E+00
         -5   -1    0    0    0  501 -0.00000000000E+00  0.00000000000E+00  0.30928097585E+03  0.30931668565E+03  0.47000000000E+01 0.  1.
          5   -1    0    0  501    0  0.00000000000E+00 -0.00000000000E+00 -0.55183867583E+02  0.55383655003E+02  0.47000000000E+01 0.  1.
         25    2    1    2    0    0  0.37203914952E+02  0.36164894538E+01  0.14006888724E+03  0.19140139790E+03  0.12497196351E+03 0.  0.
         25    2    1    2    0    0 -0.37203914952E+02 -0.36164894538E+01  0.11402822103E+03  0.17329894275E+03  0.12503150837E+03 0.  0.
          5    1    4    4  502    0 -0.39202052223E+02 -0.51473898905E+02  0.10633103971E+03  0.12455819192E+03  0.47000000000E+01 0.  1.
         -5    1    4    4    0  502  0.19981372709E+01  0.47857409451E+02  0.76971813166E+01  0.48740750837E+02  0.47000000000E+01 0.  1.
          5    1    3    3  503    0 -0.42581930815E+02  0.10573436467E+02  0.79328248349E+02  0.90774882963E+02  0.47000000000E+01 0. -1.
         -5    1    3    3    0  503  0.79785845768E+02 -0.69569470133E+01  0.60740638889E+02  0.10062651494E+03  0.47000000000E+01 0. -1.
<mgrwt>
<rscale>  0 0.13048512E+03</rscale>
<asrwt>0</asrwt>
<pdfrwt beam="2">  1        5 0.85079411E-02 0.13049938E+03</pdfrwt>
<pdfrwt beam="1">  1       -5 0.47599803E-01 0.13049938E+03</pdfrwt>
<totfact> 0.31907068E+02</totfact>
</mgrwt>
</event>
<event>
 8    1  0.3488953E-007  0.1368003E+03  0.7546771E-02  0.1217701E+00
          5   -1    0    0  501    0  0.00000000000E+00  0.00000000000E+00  0.26496276211E+02  0.26909898793E+02  0.47000000000E+01 0. -1.
         -5   -1    0    0    0  501 -0.00000000000E+00 -0.00000000000E+00 -0.73539743125E+03  0.73541245019E+03  0.47000000000E+01 0. -1.
         25    2    1    2    0    0 -0.54100021172E+02 -0.12838550252E+02 -0.43757410640E+03  0.45845939544E+03  0.12498911155E+03 0.  0.
         25    2    1    2    0    0  0.54100021172E+02  0.12838550252E+02 -0.27132704864E+03  0.30386295355E+03  0.12499074586E+03 0.  0.
          5    1    4    4  502    0  0.53298578817E+02 -0.82507708582E+01 -0.30640644782E+02  0.62207337480E+02  0.47000000000E+01 0.  1.
         -5    1    4    4    0  502  0.80144235466E+00  0.21089321111E+02 -0.24068640386E+03  0.24165561607E+03  0.47000000000E+01 0.  1.
          5    1    3    3  503    0  0.12123967041E+02  0.22228249563E+02 -0.30511946102E+03  0.30620428010E+03  0.47000000000E+01 0. -1.
         -5    1    3    3    0  503 -0.66223988213E+02 -0.35066799816E+02 -0.13245464538E+03  0.15225511534E+03  0.47000000000E+01 0. -1.
<mgrwt>
<rscale>  0 0.13679995E+03</rscale>
<asrwt>0</asrwt>
<pdfrwt beam="1">  1        5 0.41093232E-02 0.13680032E+03</pdfrwt>
<pdfrwt beam="2">  1       -5 0.11317102E+00 0.13680032E+03</pdfrwt>
<totfact> 0.15242252E+02</totfact>
</mgrwt>
</event>
<event>
 8    1  0.3488953E-007  0.1909175E+03  0.7546771E-02  0.1157637E+00
         -5   -1    0    0    0  501 -0.00000000000E+00  0.00000000000E+00  0.17380188060E+04  0.17380251609E+04  0.47000000000E+01 0.  1.
          5   -1    0    0  501    0  0.00000000000E+00 -0.00000000000E+00 -0.32381203609E+02  0.32720518749E+02  0.47000000000E+01 0.  1.
         25    2    1    2    0    0 -0.14295816864E+03 -0.19691359301E+02  0.13809807155E+04  0.13941152118E+04  0.12499879836E+03 0.  0.
         25    2    1    2    0    0  0.14295816864E+03  0.19691359301E+02  0.32465688688E+03  0.37663046786E+03  0.12499450991E+03 0.  0.
          5    1    4    4  502    0  0.44177929829E+02  0.12510220349E+02  0.24537588543E+03  0.24967901443E+03  0.47000000000E+01 0. -1.
         -5    1    4    4    0  502  0.98780238812E+02  0.71811389518E+01  0.79281001451E+02  0.12695145343E+03  0.47000000000E+01 0.  1.
          5    1    3    3  503    0 -0.61151596428E+02 -0.19285900751E+02  0.10878071068E+04  0.10897053984E+04  0.47000000000E+01 0. -1.
         -5    1    3    3    0  503 -0.81806572213E+02 -0.40545855043E+00  0.29317360866E+03  0.30440981335E+03  0.47000000000E+01 0. -1.
<mgrwt>
<rscale>  0 0.19091679E+03</rscale>
<asrwt>0</asrwt>
<pdfrwt beam="2">  1        5 0.50083121E-02 0.19091749E+03</pdfrwt>
<pdfrwt beam="1">  1       -5 0.26741418E+00 0.19091749E+03</pdfrwt>
<totfact> 0.90379455E+00</totfact>
</mgrwt>
</event>
<event>
 8    1  0.3488953E-007  0.1257778E+03  0.7546771E-02  0.1233859E+00
         -5   -1    0    0    0  501 -0.00000000000E+00  0.00000000000E+00  0.45060040594E+02  0.45304494902E+02  0.47000000000E+01 0.  1.
          5   -1    0    0  501    0  0.00000000000E+00 -0.00000000000E+00 -0.41819318893E+03  0.41821959933E+03  0.47000000000E+01 0.  1.
         25    2    1    2    0    0 -0.61960562864E+01  0.12506803536E+02 -0.92919657601E+02  0.15637647523E+03  0.12499891195E+03 0.  0.
         25    2    1    2    0    0  0.61960562864E+01 -0.12506803536E+02 -0.28021349073E+03  0.30714761900E+03  0.12500099288E+03 0.  0.
          5    1    4    4  502    0 -0.14858335967E+02 -0.64840207887E+02 -0.18139834317E+03  0.19326787527E+03  0.47000000000E+01 0.  1.
         -5    1    4    4    0  502  0.21054392254E+02  0.52333404351E+02 -0.98815147560E+02  0.11387974373E+03  0.47000000000E+01 0.  1.
          5    1    3    3  503    0 -0.24009132850E+02  0.52926796788E+02 -0.95487143376E+02  0.11188194148E+03  0.47000000000E+01 0. -1.
         -5    1    3    3    0  503  0.17813076564E+02 -0.40419993252E+02  0.25674857744E+01  0.44494533758E+02  0.47000000000E+01 0. -1.
<mgrwt>
<rscale>  0 0.12577730E+03</rscale>
<asrwt>0</asrwt>
<pdfrwt beam="2">  1        5 0.64358247E-01 0.12577782E+03</pdfrwt>
<pdfrwt beam="1">  1       -5 0.69531500E-02 0.12577782E+03</pdfrwt>
<totfact> 0.23200095E+02</totfact>
</mgrwt>
</event>
<event>
 8    1  0.3488953E-007  0.1335965E+03  0.7546771E-02  0.1222234E+00
          5   -1    0    0  501    0  0.00000000000E+00  0.00000000000E+00  0.45995036050E+03  0.45997437333E+03  0.47000000000E+01 0. -1.
         -5   -1    0    0    0  501 -0.00000000000E+00 -0.00000000000E+00 -0.40505834004E+02  0.40777599100E+02  0.47000000000E+01 0. -1.
         25    2    1    2    0    0  0.18625634715E+02  0.43145844354E+02  0.15595183053E+03  0.20535090733E+03  0.12505816064E+03 0.  0.
         25    2    1    2    0    0 -0.18625634715E+02 -0.43145844354E+02  0.26349269597E+03  0.29540106510E+03  0.12499964114E+03 0.  0.
          5    1    3    3  502    0  0.34514073496E+02  0.31888400291E+02 -0.89185470669E+00  0.47233216567E+02  0.47000000000E+01 0.  1.
         -5    1    3    3    0  502 -0.15888438781E+02  0.11257444063E+02  0.15684368523E+03  0.15811769076E+03  0.47000000000E+01 0.  1.
          5    1    4    4  503    0 -0.27284840103E+02  0.39857719814E+02  0.11829671313E+03  0.12786439170E+03  0.47000000000E+01 0.  1.
         -5    1    4    4    0  503  0.86592053885E+01 -0.83003564169E+02  0.14519598284E+03  0.16753667340E+03  0.47000000000E+01 0.  1.
<mgrwt>
<rscale>  0 0.13358279E+03</rscale>
<asrwt>0</asrwt>
<pdfrwt beam="1">  1        5 0.70784344E-01 0.13359649E+03</pdfrwt>
<pdfrwt beam="2">  1       -5 0.62544191E-02 0.13359649E+03</pdfrwt>
<totfact> 0.22916344E+02</totfact>
</mgrwt>
</event>
<event>
 8    1  0.3488953E-007  0.1369870E+03  0.7546771E-02  0.1217448E+00
          5   -1    0    0  501    0  0.00000000000E+00  0.00000000000E+00  0.10240966978E+03  0.10251746420E+03  0.47000000000E+01 0. -1.
         -5   -1    0    0    0  501 -0.00000000000E+00 -0.00000000000E+00 -0.24134255220E+03  0.24138831269E+03  0.47000000000E+01 0. -1.
         25    2    1    2    0    0 -0.39531304808E+02  0.39683251775E+02 -0.15399273394E+03  0.20609346997E+03  0.12499308671E+03 0.  0.
         25    2    1    2    0    0  0.39531304808E+02 -0.39683251775E+02  0.15059851525E+02  0.13781230692E+03  0.12501179256E+03 0.  0.
          5    1    3    3  502    0 -0.36269562393E+02  0.59201199998E+02 -0.22642892253E+02  0.73178233150E+02  0.47000000000E+01 0.  1.
         -5    1    3    3    0  502 -0.32617424157E+01 -0.19517948222E+02 -0.13134984169E+03  0.13291523682E+03  0.47000000000E+01 0.  1.
          5    1    4    4  503    0 -0.18373626541E+02 -0.68097132923E+02 -0.27202175374E+01  0.70741071861E+02  0.47000000000E+01 0.  1.
         -5    1    4    4    0  503  0.57904931349E+02  0.28413881148E+02  0.17780069063E+02  0.67071235059E+02  0.47000000000E+01 0.  1.
<mgrwt>
<rscale>  0 0.13698271E+03</rscale>
<asrwt>0</asrwt>
<pdfrwt beam="1">  1        5 0.15767146E-01 0.13698698E+03</pdfrwt>
<pdfrwt beam="2">  1       -5 0.37141435E-01 0.13698698E+03</pdfrwt>
<totfact> 0.18180622E+02</totfact>
</mgrwt>
</event>
<event>
 8    1  0.3488953E-007  0.1490761E+03  0.7546771E-02  0.1201616E+00
          5   -1    0    0  501    0  0.00000000000E+00  0.00000000000E+00  0.74201681548E+02  0.74350383620E+02  0.47000000000E+01 0. -1.
         -5   -1    0    0    0  501 -0.00000000000E+00 -0.00000000000E+00 -0.33585133632E+03  0.33588422129E+03  0.47000000000E+01 0. -1.
         25    2    1    2    0    0  0.76140895762E+02 -0.28295363470E+02 -0.19873291781E+03  0.24842545502E+03  0.12498948147E+03 0.  0.
         25    2    1    2    0    0 -0.76140895762E+02  0.28295363470E+02 -0.62916736963E+02  0.16180914989E+03  0.12500248636E+03 0.  0.
          5    1    4    4  502    0 -0.51067517717E+02  0.36067363565E+01  0.31941989843E+02  0.60525041331E+02  0.47000000000E+01 0.  1.
         -5    1    4    4    0  502 -0.25073378045E+02  0.24688627114E+02 -0.94858726806E+02  0.10128410856E+03  0.47000000000E+01 0.  1.
          5    1    3    3  503    0 -0.22317652222E+02 -0.71277746782E+01 -0.11474695938E+03  0.11720852128E+03  0.47000000000E+01 0. -1.
         -5    1    3    3    0  503  0.98458547984E+02 -0.21167588792E+02 -0.83985958427E+02  0.13121693374E+03  0.47000000000E+01 0. -1.
<mgrwt>
<rscale>  0 0.14907338E+03</rscale>
<asrwt>0</asrwt>
<pdfrwt beam="1">  1        5 0.11429612E-01 0.14907611E+03</pdfrwt>
<pdfrwt beam="2">  1       -5 0.51683404E-01 0.14907611E+03</pdfrwt>
<totfact> 0.16756533E+02</totfact>
</mgrwt>
</event>
<event>
 8    1  0.3488953E-007  0.1327450E+03  0.7546771E-02  0.1223445E+00
          5   -1    0    0  501    0  0.00000000000E+00  0.00000000000E+00  0.51682202787E+02  0.51895472683E+02  0.47000000000E+01 0. -1.
         -5   -1    0    0    0  501 -0.00000000000E+00 -0.00000000000E+00 -0.35268215538E+03  0.35271347114E+03  0.47000000000E+01 0. -1.
         25    2    1    2    0    0  0.39778911310E+02 -0.20268467647E+02 -0.18887382225E+03  0.23084616548E+03  0.12499383512E+03 0.  0.
         25    2    1    2    0    0 -0.39778911310E+02  0.20268467647E+02 -0.11212613034E+03  0.17376277835E+03  0.12501224527E+03 0.  0.
          5    1    3    3  502    0 -0.21307263574E+02  0.40629895532E+02 -0.59428604208E+02  0.75223911691E+02  0.47000000000E+01 0. -1.
         -5    1    3    3    0  502  0.61086174884E+02 -0.60898363180E+02 -0.12944521804E+03  0.15562225379E+03  0.47000000000E+01 0. -1.
          5    1    4    4  503    0 -0.51744119994E+02  0.58524303643E+02 -0.32988849108E+02  0.84928806870E+02  0.47000000000E+01 0. -1.
         -5    1    4    4    0  503  0.11965208685E+02 -0.38255835996E+02 -0.79137281236E+02  0.88833971475E+02  0.47000000000E+01 0. -1.
<mgrwt>
<rscale>  0 0.13274066E+03</rscale>
<asrwt>0</asrwt>
<pdfrwt beam="1">  1        5 0.79699226E-02 0.13274500E+03</pdfrwt>
<pdfrwt beam="2">  1       -5 0.54277606E-01 0.13274500E+03</pdfrwt>
<totfact> 0.27175973E+02</totfact>
</mgrwt>
</event>
<event>
 8    1  0.3488953E-007  0.1586545E+03  0.7546771E-02  0.1190225E+00
          5   -1    0    0  501    0  0.00000000000E+00  0.00000000000E+00  0.13012924500E+03  0.13021409449E+03  0.47000000000E+01 0. -1.
         -5   -1    0    0    0  501 -0.00000000000E+00 -0.00000000000E+00 -0.19814690656E+03  0.19820264019E+03  0.47000000000E+01 0. -1.
         25    2    1    2    0    0 -0.94460140620E+02  0.24955413026E+02 -0.59801817830E+02  0.16955091932E+03  0.12500306405E+03 0.  0.
         25    2    1    2    0    0  0.94460140620E+02 -0.24955413026E+02 -0.82158437250E+01  0.15886581536E+03  0.12500142558E+03 0.  0.
          5    1    4    4  502    0  0.97904248637E+02 -0.13233063701E+02 -0.52997221431E+02  0.11221029969E+03  0.47000000000E+01 0. -1.
         -5    1    4    4    0  502 -0.34441080164E+01 -0.11722349325E+02  0.44781377706E+02  0.46655515676E+02  0.47000000000E+01 0. -1.
          5    1    3    3  503    0 -0.61910427536E+02  0.70061875289E+02 -0.64264916368E+02  0.11355015140E+03  0.47000000000E+01 0. -1.
         -5    1    3    3    0  503 -0.32549713084E+02 -0.45106462263E+02  0.44630985375E+01  0.56000767926E+02  0.47000000000E+01 0. -1.
<mgrwt>
<rscale>  0 0.15865420E+03</rscale>
<asrwt>0</asrwt>
<pdfrwt beam="1">  1        5 0.20030698E-01 0.15865452E+03</pdfrwt>
<pdfrwt beam="2">  1       -5 0.30494954E-01 0.15865452E+03</pdfrwt>
<totfact> 0.18189070E+02</totfact>
</mgrwt>
</event>
<event>
 8    1  0.3488953E-007  0.1605695E+03  0.7546771E-02  0.1188059E+00
         -5   -1    0    0    0  501 -0.00000000000E+00  0.00000000000E+00  0.37624179116E+03  0.37627114614E+03  0.47000000000E+01 0. -1.
          5   -1    0    0  501    0  0.00000000000E+00 -0.00000000000E+00 -0.72442754489E+02  0.72595059597E+02  0.47000000000E+01 0. -1.
         25    2    1    2    0    0 -0.19160976225E+01 -0.10077225388E+03  0.20478600655E+03  0.26022329440E+03  0.12498054204E+03 0.  0.
         25    2    1    2    0    0  0.19160976225E+01  0.10077225388E+03  0.99013030122E+02  0.18864291133E+03  0.12499539703E+03 0.  0.
          5    1    3    3  502    0  0.59067926542E+02 -0.28125193608E+02  0.83882218783E+02  0.10648175003E+03  0.47000000000E+01 0. -1.
         -5    1    3    3    0  502 -0.60984024164E+02 -0.72647060274E+02  0.12090378777E+03  0.15374154437E+03  0.47000000000E+01 0. -1.
          5    1    4    4  503    0 -0.35750729401E+02  0.53815700204E+02 -0.85005614497E+01  0.65334476245E+02  0.47000000000E+01 0. -1.
         -5    1    4    4    0  503  0.37666827024E+02  0.46956553677E+02  0.10751359157E+03  0.12330843509E+03  0.47000000000E+01 0. -1.
<mgrwt>
<rscale>  0 0.16056662E+03</rscale>
<asrwt>0</asrwt>
<pdfrwt beam="2">  1        5 0.11159013E-01 0.16056951E+03</pdfrwt>
<pdfrwt beam="1">  1       -5 0.57897327E-01 0.16056951E+03</pdfrwt>
<totfact> 0.14013752E+02</totfact>
</mgrwt>
</event>
<event>
 8    1  0.3488953E-007  0.1513413E+03  0.7546771E-02  0.1198839E+00
         -5   -1    0    0    0  501 -0.00000000000E+00  0.00000000000E+00  0.66136692514E+02  0.66303484800E+02  0.47000000000E+01 0.  1.
          5   -1    0    0  501    0  0.00000000000E+00 -0.00000000000E+00 -0.35356713976E+03  0.35359837714E+03  0.47000000000E+01 0.  1.
         25    2    1    2    0    0 -0.95014739191E+01 -0.84786541445E+02 -0.11233337321E+03  0.18846469174E+03  0.12498446975E+03 0.  0.
         25    2    1    2    0    0  0.95014739191E+01  0.84786541445E+02 -0.17509707404E+03  0.23143717020E+03  0.12500057119E+03 0.  0.
          5    1    4    4  502    0 -0.19209354404E+01  0.11383803680E+03 -0.10670757342E+03  0.15611337176E+03  0.47000000000E+01 0.  1.
         -5    1    4    4    0  502  0.11422409359E+02 -0.29051495355E+02 -0.68389500616E+02  0.75323798447E+02  0.47000000000E+01 0.  1.
          5    1    3    3  503    0 -0.14770103907E+02 -0.11137377782E+03 -0.55661888610E+02  0.12546955886E+03  0.47000000000E+01 0.  1.
         -5    1    3    3    0  503  0.52686299882E+01  0.26587236380E+02 -0.56671484596E+02  0.62995132880E+02  0.47000000000E+01 0.  1.
<mgrwt>
<rscale>  0 0.15133794E+03</rscale>
<asrwt>0</asrwt>
<pdfrwt beam="2">  1        5 0.54410177E-01 0.15134126E+03</pdfrwt>
<pdfrwt beam="1">  1       -5 0.10190109E-01 0.15134126E+03</pdfrwt>
<totfact> 0.18455664E+02</totfact>
</mgrwt>
</event>
<event>
 8    1  0.3488953E-007  0.1256062E+03  0.7546771E-02  0.1234128E+00
         -5   -1    0    0    0  501 -0.00000000000E+00  0.00000000000E+00  0.23532128504E+03  0.23536821619E+03  0.47000000000E+01 0. -1.
          5   -1    0    0  501    0  0.00000000000E+00 -0.00000000000E+00 -0.67522692336E+02  0.67686069322E+02  0.47000000000E+01 0. -1.
         25    2    1    2    0    0  0.68150319395E+01  0.10284089480E+02  0.98372672696E+02  0.15953819164E+03  0.12499217857E+03 0.  0.
         25    2    1    2    0    0 -0.68150319395E+01 -0.10284089480E+02  0.69425920004E+02  0.14351609387E+03  0.12499881469E+03 0.  0.
          5    1    3    3  502    0  0.30875063525E+02 -0.37179454847E+02  0.94171592030E+02  0.10595263166E+03  0.47000000000E+01 0.  1.
         -5    1    3    3    0  502 -0.24060031585E+02  0.47463544327E+02  0.42010806656E+01  0.53585559984E+02  0.47000000000E+01 0.  1.
          5    1    4    4  503    0 -0.14361126954E+02 -0.47348172157E+02  0.88038702326E+02  0.10109893413E+03  0.47000000000E+01 0. -1.
         -5    1    4    4    0  503  0.75460950150E+01  0.37064082677E+02 -0.18612782322E+02  0.42417159740E+02  0.47000000000E+01 0. -1.
<mgrwt>
<rscale>  0 0.12560452E+03</rscale>
<asrwt>0</asrwt>
<pdfrwt beam="2">  1        5 0.10404284E-01 0.12560617E+03</pdfrwt>
<pdfrwt beam="1">  1       -5 0.36219452E-01 0.12560617E+03</pdfrwt>
<totfact> 0.38907265E+02</totfact>
</mgrwt>
</event>
<event>
 8    1  0.3488953E-007  0.1291499E+03  0.7546771E-02  0.1228724E+00
         -5   -1    0    0    0  501 -0.00000000000E+00  0.00000000000E+00  0.15536843952E+03  0.15543951235E+03  0.47000000000E+01 0.  1.
          5   -1    0    0  501    0  0.00000000000E+00 -0.00000000000E+00 -0.19169588629E+03  0.19175349494E+03  0.47000000000E+01 0.  1.
         25    2    1    2    0    0 -0.80125483311E+01  0.31455353063E+02  0.97040211985E+02  0.16154409979E+03  0.12500421300E+03 0.  0.
         25    2    1    2    0    0  0.80125483311E+01 -0.31455353063E+02 -0.13336765876E+03  0.18564890750E+03  0.12499977714E+03 0.  0.
          5    1    3    3  502    0 -0.40676863397E+01 -0.44753699093E+00  0.12101032424E+03  0.12117068513E+03  0.47000000000E+01 0.  1.
         -5    1    3    3    0  502 -0.39448619915E+01  0.31902890054E+02 -0.23970112254E+02  0.40373414661E+02  0.47000000000E+01 0.  1.
          5    1    4    4  503    0  0.48743292145E+02  0.28360696494E+02 -0.60672125633E+02  0.82966465898E+02  0.47000000000E+01 0.  1.
         -5    1    4    4    0  503 -0.40730743814E+02 -0.59816049558E+02 -0.72695533124E+02  0.10268244160E+03  0.47000000000E+01 0.  1.
<mgrwt>
<rscale>  0 0.12914881E+03</rscale>
<asrwt>0</asrwt>
<pdfrwt beam="2">  1        5 0.29501573E-01 0.12914989E+03</pdfrwt>
<pdfrwt beam="1">  1       -5 0.23912735E-01 0.12914989E+03</pdfrwt>
<totfact> 0.12982893E+02</totfact>
</mgrwt>
</event>
<event>
 8    1  0.3488953E-007  0.1329004E+03  0.7546771E-02  0.1223219E+00
          5   -1    0    0  501    0  0.00000000000E+00  0.00000000000E+00  0.67558266226E+03  0.67559901091E+03  0.47000000000E+01 0.  1.
         -5   -1    0    0    0  501 -0.00000000000E+00 -0.00000000000E+00 -0.28857683591E+02  0.29237918911E+02  0.47000000000E+01 0.  1.
         25    2    1    2    0    0 -0.32271350787E+01 -0.44992594750E+02  0.21161693778E+03  0.24988845851E+03  0.12501106094E+03 0.  0.
         25    2    1    2    0    0  0.32271350787E+01  0.44992594750E+02  0.43510804089E+03  0.45494847132E+03  0.12499742526E+03 0.  0.
          5    1    3    3  502    0  0.31144033813E+02 -0.78411886790E+02  0.14174321810E+03  0.16502001306E+03  0.47000000000E+01 0.  1.
         -5    1    3    3    0  502 -0.34371168892E+02  0.33419292041E+02  0.69873719675E+02  0.84868445447E+02  0.47000000000E+01 0.  1.
          5    1    4    4  503    0 -0.31451085971E+01  0.88461083271E+02  0.29685778689E+03  0.30980944240E+03  0.47000000000E+01 0.  1.
         -5    1    4    4    0  503  0.63722436758E+01 -0.43468488521E+02  0.13825025400E+03  0.14513902892E+03  0.47000000000E+01 0.  1.
<mgrwt>
<rscale>  0 0.13289718E+03</rscale>
<asrwt>0</asrwt>
<pdfrwt beam="1">  1        5 0.10396630E+00 0.13290039E+03</pdfrwt>
<pdfrwt beam="2">  1       -5 0.44701500E-02 0.13290039E+03</pdfrwt>
<totfact> 0.16224956E+02</totfact>
</mgrwt>
</event>
<event>
 8    1  0.3488953E-007  0.1354711E+03  0.7546771E-02  0.1219557E+00
         -5   -1    0    0    0  501 -0.00000000000E+00  0.00000000000E+00  0.50338525163E+02  0.50557463500E+02  0.47000000000E+01 0. -1.
          5   -1    0    0  501    0  0.00000000000E+00 -0.00000000000E+00 -0.36713756557E+03  0.36716764843E+03  0.47000000000E+01 0. -1.
         25    2    1    2    0    0  0.21475989060E+02 -0.47606133454E+02 -0.13776517966E+03  0.19321333001E+03  0.12499833647E+03 0.  0.
         25    2    1    2    0    0 -0.21475989060E+02  0.47606133454E+02 -0.17903386075E+03  0.22451178192E+03  0.12499941951E+03 0.  0.
          5    1    4    4  502    0 -0.13204014372E+02  0.46827765824E+02 -0.38104120861E+01  0.49028510969E+02  0.47000000000E+01 0. -1.
         -5    1    4    4    0  502 -0.82719746880E+01  0.77836762936E+00 -0.17522344866E+03  0.17548327095E+03  0.47000000000E+01 0. -1.
          5    1    3    3  503    0 -0.49143692814E+01 -0.71507571955E+02 -0.26942870844E+02  0.76716961368E+02  0.47000000000E+01 0.  1.
         -5    1    3    3    0  503  0.26390358341E+02  0.23901438501E+02 -0.11082230881E+03  0.11649636864E+03  0.47000000000E+01 0.  1.
<mgrwt>
<rscale>  0 0.13547084E+03</rscale>
<asrwt>0</asrwt>
<pdfrwt beam="2">  1        5 0.56501856E-01 0.13547109E+03</pdfrwt>
<pdfrwt beam="1">  1       -5 0.77635442E-02 0.13547109E+03</pdfrwt>
<totfact> 0.26247956E+02</totfact>
</mgrwt>
</event>
<event>
 8    1  0.3488953E-007  0.1545680E+03  0.7546771E-02  0.1194970E+00
         -5   -1    0    0    0  501 -0.00000000000E+00  0.00000000000E+00  0.96601138234E+02  0.96715406777E+02  0.47000000000E+01 0. -1.
          5   -1    0    0  501    0  0.00000000000E+00 -0.00000000000E+00 -0.53498591425E+03  0.53500655926E+03  0.47000000000E+01 0. -1.
         25    2    1    2    0    0  0.16834524095E+02  0.89349437546E+02  0.12507512882E+02  0.15507206514E+03  0.12499673722E+03 0.  0.
         25    2    1    2    0    0 -0.16834524095E+02 -0.89349437546E+02 -0.45089228890E+03  0.47664990090E+03  0.12499819457E+03 0.  0.
          5    1    3    3  502    0  0.34854649663E+02 -0.12693688749E+02  0.32373637266E+02  0.49458252366E+02  0.47000000000E+01 0. -1.
         -5    1    3    3    0  502 -0.18020125568E+02  0.10204312630E+03 -0.19866124384E+02  0.10561381277E+03  0.47000000000E+01 0. -1.
          5    1    4    4  503    0 -0.10822546296E+02 -0.39280216869E+02 -0.25590002884E+02  0.48342540202E+02  0.47000000000E+01 0.  1.
         -5    1    4    4    0  503 -0.60119777984E+01 -0.50069220678E+02 -0.42530228602E+03  0.42830736070E+03  0.47000000000E+01 0.  1.
<mgrwt>
<rscale>  0 0.15456772E+03</rscale>
<asrwt>0</asrwt>
<pdfrwt beam="2">  1        5 0.82315901E-01 0.15456802E+03</pdfrwt>
<pdfrwt beam="1">  1       -5 0.14872092E-01 0.15456802E+03</pdfrwt>
<totfact> 0.37486967E+01</totfact>
</mgrwt>
</event>
<event>
 8    1  0.3488953E-007  0.1733325E+03  0.7546771E-02  0.1174417E+00
          5   -1    0    0  501    0  0.00000000000E+00  0.00000000000E+00  0.39660129728E+02  0.39937650032E+02  0.47000000000E+01 0.  1.
         -5   -1    0    0    0  501 -0.00000000000E+00 -0.00000000000E+00 -0.75692717889E+03  0.75694177065E+03  0.47000000000E+01 0.  1.
         25    2    1    2    0    0  0.11805495886E+03 -0.21948511144E+02 -0.38069572180E+03  0.41829820072E+03  0.12500176669E+03 0.  0.
         25    2    1    2    0    0 -0.11805495886E+03  0.21948511144E+02 -0.33657132737E+03  0.37858121996E+03  0.12499908498E+03 0.  0.
          5    1    4    4  502    0 -0.55920518397E+02  0.64576538272E+01 -0.27344282749E+02  0.62758309967E+02  0.47000000000E+01 0.  1.
         -5    1    4    4    0  502 -0.62134440466E+02  0.15490857317E+02 -0.30922704462E+03  0.31582290999E+03  0.47000000000E+01 0.  1.
          5    1    3    3  503    0 -0.24473841240E+02 -0.11917945356E+02 -0.38001445031E+02  0.46980912624E+02  0.47000000000E+01 0.  1.
         -5    1    3    3    0  503  0.14252880010E+03 -0.10030565789E+02 -0.34269427676E+03  0.37131728809E+03  0.47000000000E+01 0.  1.
<mgrwt>
<rscale>  0 0.17333201E+03</rscale>
<asrwt>0</asrwt>
<pdfrwt beam="1">  1        5 0.61240291E-02 0.17333249E+03</pdfrwt>
<pdfrwt beam="2">  1       -5 0.11647279E+00 0.17333249E+03</pdfrwt>
<totfact> 0.78417916E+01</totfact>
</mgrwt>
</event>
<event>
 8    1  0.3488953E-007  0.1274072E+03  0.7546771E-02  0.1231355E+00
         -5   -1    0    0    0  501 -0.00000000000E+00  0.00000000000E+00  0.77886378084E+02  0.78028058357E+02  0.47000000000E+01 0.  1.
          5   -1    0    0  501    0  0.00000000000E+00 -0.00000000000E+00 -0.20854076904E+03  0.20859372559E+03  0.47000000000E+01 0.  1.
         25    2    1    2    0    0 -0.18331662335E+02  0.16500068202E+02 -0.72236419120E+02  0.14646022767E+03  0.12499678375E+03 0.  0.
         25    2    1    2    0    0  0.18331662335E+02 -0.16500068202E+02 -0.58417971840E+02  0.14016155627E+03  0.12499720128E+03 0.  0.
          5    1    4    4  502    0  0.71678632950E+02 -0.96722479614E+01 -0.41821673939E+02  0.83681068428E+02  0.47000000000E+01 0.  1.
         -5    1    4    4    0  502 -0.53346970615E+02 -0.68278202411E+01 -0.16596297901E+02  0.56480487844E+02  0.47000000000E+01 0.  1.
          5    1    3    3  503    0 -0.45097361546E+02  0.13761547671E+02 -0.98037377392E+02  0.10888787618E+03  0.47000000000E+01 0. -1.
         -5    1    3    3    0  503  0.26765699211E+02  0.27385205319E+01  0.25800958272E+02  0.37572351493E+02  0.47000000000E+01 0. -1.
<mgrwt>
<rscale>  0 0.12740713E+03</rscale>
<asrwt>0</asrwt>
<pdfrwt beam="2">  1        5 0.32098167E-01 0.12740723E+03</pdfrwt>
<pdfrwt beam="1">  1       -5 0.11997492E-01 0.12740723E+03</pdfrwt>
<totfact> 0.38735790E+02</totfact>
</mgrwt>
</event>
<event>
 8    1  0.3488953E-007  0.1338348E+03  0.7546771E-02  0.1221875E+00
          5   -1    0    0  501    0  0.00000000000E+00  0.00000000000E+00  0.49893222139E+02  0.50114105952E+02  0.47000000000E+01 0.  1.
         -5   -1    0    0    0  501 -0.00000000000E+00 -0.00000000000E+00 -0.36054989236E+03  0.36058052482E+03  0.47000000000E+01 0.  1.
         25    2    1    2    0    0 -0.43836271983E+02  0.19115039459E+02 -0.17270232617E+03  0.21848989473E+03  0.12499894863E+03 0.  0.
         25    2    1    2    0    0  0.43836271983E+02 -0.19115039459E+02 -0.13795434405E+03  0.19220473605E+03  0.12499702413E+03 0.  0.
          5    1    3    3  502    0 -0.22729733653E+02  0.32058354382E+02  0.42005896904E+01  0.39800927519E+02  0.47000000000E+01 0.  1.
         -5    1    3    3    0  502 -0.21106538329E+02 -0.12943314923E+02 -0.17690291586E+03  0.17868896721E+03  0.47000000000E+01 0.  1.
          5    1    4    4  503    0  0.20543941624E+01  0.16193351836E+02 -0.13621782997E+03  0.13727283920E+03  0.47000000000E+01 0.  1.
         -5    1    4    4    0  503  0.41781877820E+02 -0.35308391295E+02 -0.17365140750E+01  0.54931896847E+02  0.47000000000E+01 0.  1.
<mgrwt>
<rscale>  0 0.13383430E+03</rscale>
<asrwt>0</asrwt>
<pdfrwt beam="1">  1        5 0.76952280E-02 0.13383475E+03</pdfrwt>
<pdfrwt beam="2">  1       -5 0.55488560E-01 0.13383475E+03</pdfrwt>
<totfact> 0.27595419E+02</totfact>
</mgrwt>
</event>
<event>
 8    1  0.3488953E-007  0.1348580E+03  0.7546771E-02  0.1220421E+00
          5   -1    0    0  501    0  0.00000000000E+00  0.00000000000E+00  0.10716590632E+03  0.10726892130E+03  0.47000000000E+01 0. -1.
         -5   -1    0    0    0  501 -0.00000000000E+00 -0.00000000000E+00 -0.17278937618E+03  0.17285328612E+03  0.47000000000E+01 0. -1.
         25    2    1    2    0    0  0.42069939656E+02  0.28129046957E+02 -0.52164031341E+02  0.14459423308E+03  0.12500113187E+03 0.  0.
         25    2    1    2    0    0 -0.42069939656E+02 -0.28129046957E+02 -0.13459438522E+02  0.13552797434E+03  0.12500220894E+03 0.  0.
          5    1    3    3  502    0 -0.25992314282E+02  0.92820224828E+01 -0.66699679253E+02  0.72337359335E+02  0.47000000000E+01 0. -1.
         -5    1    3    3    0  502  0.68062253938E+02  0.18847024474E+02  0.14535647912E+02  0.72256873741E+02  0.47000000000E+01 0. -1.
          5    1    4    4  503    0 -0.66330096647E+02  0.21584402413E+02  0.17354140967E+02  0.72033494691E+02  0.47000000000E+01 0.  1.
         -5    1    4    4    0  503  0.24260156991E+02 -0.49713449370E+02 -0.30813579489E+02  0.63494479653E+02  0.47000000000E+01 0.  1.
<mgrwt>
<rscale>  0 0.13485773E+03</rscale>
<asrwt>0</asrwt>
<pdfrwt beam="1">  1        5 0.16499903E-01 0.13485798E+03</pdfrwt>
<pdfrwt beam="2">  1       -5 0.26595821E-01 0.13485798E+03</pdfrwt>
<totfact> 0.32195248E+02</totfact>
</mgrwt>
</event>
<event>
 8    1  0.3488953E-007  0.1661985E+03  0.7546771E-02  0.1181884E+00
          5   -1    0    0  501    0  0.00000000000E+00  0.00000000000E+00  0.31582942732E+03  0.31586439679E+03  0.47000000000E+01 0. -1.
         -5   -1    0    0    0  501 -0.00000000000E+00 -0.00000000000E+00 -0.94289827200E+02  0.94406893357E+02  0.47000000000E+01 0. -1.
         25    2    1    2    0    0 -0.34629837620E+02 -0.10389801479E+03  0.55066206412E+02  0.17503663476E+03  0.12494604151E+03 0.  0.
         25    2    1    2    0    0  0.34629837620E+02  0.10389801479E+03  0.16647339371E+03  0.23523465539E+03  0.12501171607E+03 0.  0.
          5    1    3    3  502    0  0.13671668032E+02  0.24629311547E+02  0.62282134964E+01  0.29230089590E+02  0.47000000000E+01 0. -1.
         -5    1    3    3    0  502 -0.48301505653E+02 -0.12852732633E+03  0.48837992915E+02  0.14580654517E+03  0.47000000000E+01 0. -1.
          5    1    4    4  503    0 -0.26779769977E+02  0.99980661834E+02  0.11576210449E+03  0.15535843606E+03  0.47000000000E+01 0. -1.
         -5    1    4    4    0  503  0.61409607597E+02  0.39173529514E+01  0.50711289219E+02  0.79876219325E+02  0.47000000000E+01 0. -1.
<mgrwt>
<rscale>  0 0.16618618E+03</rscale>
<asrwt>0</asrwt>
<pdfrwt beam="1">  1        5 0.48600836E-01 0.16619853E+03</pdfrwt>
<pdfrwt beam="2">  1       -5 0.14517823E-01 0.16619853E+03</pdfrwt>
<totfact> 0.12883938E+02</totfact>
</mgrwt>
</event>
<event>
 8    1  0.3488953E-007  0.1386010E+03  0.7546771E-02  0.1215227E+00
          5   -1    0    0  501    0  0.00000000000E+00  0.00000000000E+00  0.11166583509E+03  0.11176470251E+03  0.47000000000E+01 0. -1.
         -5   -1    0    0    0  501 -0.00000000000E+00 -0.00000000000E+00 -0.17265483281E+03  0.17271879253E+03  0.47000000000E+01 0. -1.
         25    2    1    2    0    0 -0.41570251601E+02 -0.43092676836E+02 -0.40409576730E+02  0.14436298116E+03  0.12499068695E+03 0.  0.
         25    2    1    2    0    0  0.41570251601E+02  0.43092676836E+02 -0.20579420985E+02  0.14012051387E+03  0.12500072490E+03 0.  0.
          5    1    4    4  502    0 -0.61992824796E+01  0.53571347880E+02 -0.57267201568E+02  0.78803190242E+02  0.47000000000E+01 0.  1.
         -5    1    4    4    0  502  0.47769534081E+02 -0.10478671043E+02  0.36687780583E+02  0.61317323631E+02  0.47000000000E+01 0.  1.
          5    1    3    3  503    0  0.11214817424E+02 -0.47094978263E+02  0.29241168688E+02  0.56752489406E+02  0.47000000000E+01 0. -1.
         -5    1    3    3    0  503 -0.52785069025E+02  0.40023014269E+01 -0.69650745419E+02  0.87610491758E+02  0.47000000000E+01 0. -1.
<mgrwt>
<rscale>  0 0.13859877E+03</rscale>
<asrwt>0</asrwt>
<pdfrwt beam="1">  1        5 0.17191884E-01 0.13860103E+03</pdfrwt>
<pdfrwt beam="2">  1       -5 0.26574807E-01 0.13860103E+03</pdfrwt>
<totfact> 0.30190288E+02</totfact>
</mgrwt>
</event>
<event>
 8    1  0.3488953E-007  0.1746352E+03  0.7546771E-02  0.1173099E+00
         -5   -1    0    0    0  501 -0.00000000000E+00  0.00000000000E+00  0.38241680704E+03  0.38244568805E+03  0.47000000000E+01 0. -1.
          5   -1    0    0  501    0  0.00000000000E+00 -0.00000000000E+00 -0.91721558698E+02  0.91841898554E+02  0.47000000000E+01 0. -1.
         25    2    1    2    0    0 -0.83542134064E+02  0.88845328398E+02  0.23131386945E+03  0.28983271155E+03  0.12499645571E+03 0.  0.
         25    2    1    2    0    0  0.83542134064E+02 -0.88845328398E+02  0.59381378892E+02  0.18445487505E+03  0.12499868891E+03 0.  0.
          5    1    4    4  502    0  0.92015177246E+02 -0.77371410169E+01  0.24620304834E+02  0.95681270920E+02  0.47000000000E+01 0. -1.
         -5    1    4    4    0  502 -0.84730431818E+01 -0.81108187382E+02  0.34761074058E+02  0.88773604133E+02  0.47000000000E+01 0. -1.
          5    1    3    3  503    0 -0.92871945296E+02  0.10915650276E+03  0.22378047902E+03  0.26578211586E+03  0.47000000000E+01 0. -1.
         -5    1    3    3    0  503  0.93298112311E+01 -0.20311174366E+02  0.75333904292E+01  0.24050595691E+02  0.47000000000E+01 0. -1.
<mgrwt>
<rscale>  0 0.17463480E+03</rscale>
<asrwt>0</asrwt>
<pdfrwt beam="2">  1        5 0.14122488E-01 0.17463520E+03</pdfrwt>
<pdfrwt beam="1">  1       -5 0.58844834E-01 0.17463520E+03</pdfrwt>
<totfact> 0.91038022E+01</totfact>
</mgrwt>
</event>
<event>
 8    1  0.3488953E-007  0.1414777E+03  0.7546771E-02  0.1211355E+00
         -5   -1    0    0    0  501 -0.00000000000E+00  0.00000000000E+00  0.36849063582E+03  0.36852060822E+03  0.47000000000E+01 0. -1.
          5   -1    0    0  501    0  0.00000000000E+00 -0.00000000000E+00 -0.54750326332E+02  0.54951689996E+02  0.47000000000E+01 0. -1.
         25    2    1    2    0    0  0.10691655323E+02 -0.65397815853E+02  0.17835592412E+03  0.22765493785E+03  0.12499899698E+03 0.  0.
         25    2    1    2    0    0 -0.10691655323E+02  0.65397815853E+02  0.13538438537E+03  0.19581736037E+03  0.12499728401E+03 0.  0.
          5    1    4    4  502    0 -0.10578195131E+02  0.23051311889E+02 -0.21294540902E+02  0.33448597343E+02  0.47000000000E+01 0. -1.
         -5    1    4    4    0  502 -0.11346019213E+00  0.42346503964E+02  0.15667892627E+03  0.16236876303E+03  0.47000000000E+01 0. -1.
          5    1    3    3  503    0  0.56751951222E+02 -0.81345457987E+01  0.37373285290E+02  0.68598886698E+02  0.47000000000E+01 0. -1.
         -5    1    3    3    0  503 -0.46060295899E+02 -0.57263270054E+02  0.14098263883E+03  0.15905605115E+03  0.47000000000E+01 0. -1.
<mgrwt>
<rscale>  0 0.14147731E+03</rscale>
<asrwt>0</asrwt>
<pdfrwt beam="2">  1        5 0.84409223E-02 0.14147768E+03</pdfrwt>
<pdfrwt beam="1">  1       -5 0.56708662E-01 0.14147768E+03</pdfrwt>
<totfact> 0.22890617E+02</totfact>
</mgrwt>
</event>
<event>
 8    1  0.3488953E-007  0.1387932E+03  0.7546771E-02  0.1214964E+00
          5   -1    0    0  501    0  0.00000000000E+00  0.00000000000E+00  0.48828407686E+02  0.49054086447E+02  0.47000000000E+01 0. -1.
         -5   -1    0    0    0  501 -0.00000000000E+00 -0.00000000000E+00 -0.39536356457E+03  0.39539149990E+03  0.47000000000E+01 0. -1.
         25    2    1    2    0    0 -0.23540027547E+02 -0.55534160242E+02 -0.18912185631E+03  0.23458609036E+03  0.12500152561E+03 0.  0.
         25    2    1    2    0    0  0.23540027547E+02  0.55534160242E+02 -0.15741330057E+03  0.20985949598E+03  0.12499553994E+03 0.  0.
          5    1    3    3  502    0 -0.19290995753E+02  0.28258590402E+02 -0.12271458476E+03  0.12748195857E+03  0.47000000000E+01 0.  1.
         -5    1    3    3    0  502 -0.42490317939E+01 -0.83792750644E+02 -0.66407271554E+02  0.10710413179E+03  0.47000000000E+01 0.  1.
          5    1    4    4  503    0 -0.18673258100E+02 -0.32810581583E+02 -0.26717646580E+02  0.46488143334E+02  0.47000000000E+01 0.  1.
         -5    1    4    4    0  503  0.42213285647E+02  0.88344741825E+02 -0.13069565399E+03  0.16337135265E+03  0.47000000000E+01 0.  1.
<mgrwt>
<rscale>  0 0.13879187E+03</rscale>
<asrwt>0</asrwt>
<pdfrwt beam="1">  1        5 0.75315717E-02 0.13879322E+03</pdfrwt>
<pdfrwt beam="2">  1       -5 0.60844671E-01 0.13879322E+03</pdfrwt>
<totfact> 0.23718197E+02</totfact>
</mgrwt>
</event>
<event>
 8    1  0.3488953E-007  0.1531221E+03  0.7546771E-02  0.1196690E+00
          5   -1    0    0  501    0  0.00000000000E+00  0.00000000000E+00  0.12937232180E+03  0.12945766740E+03  0.47000000000E+01 0.  1.
         -5   -1    0    0    0  501 -0.00000000000E+00 -0.00000000000E+00 -0.18411887798E+03  0.18417885663E+03  0.47000000000E+01 0.  1.
         25    2    1    2    0    0 -0.69620267329E+02  0.54533702355E+02 -0.47611093730E+02  0.16035330467E+03  0.12500183901E+03 0.  0.
         25    2    1    2    0    0  0.69620267329E+02 -0.54533702355E+02 -0.71354624544E+01  0.15328321936E+03  0.12499569672E+03 0.  0.
          5    1    3    3  502    0 -0.40081185463E+02 -0.33516619431E+02  0.63453117627E+01  0.52841443844E+02  0.47000000000E+01 0. -1.
         -5    1    3    3    0  502 -0.29539081866E+02  0.88050321786E+02 -0.53956405492E+02  0.10751186082E+03  0.47000000000E+01 0. -1.
          5    1    4    4  503    0  0.70248688311E+02  0.19075316504E+02 -0.25494875604E+02  0.77271110974E+02  0.47000000000E+01 0. -1.
         -5    1    4    4    0  503 -0.62842098154E+00 -0.73609018859E+02  0.18359413149E+02  0.76012108388E+02  0.47000000000E+01 0. -1.
<mgrwt>
<rscale>  0 0.15312081E+03</rscale>
<asrwt>0</asrwt>
<pdfrwt beam="1">  1        5 0.19914613E-01 0.15312206E+03</pdfrwt>
<pdfrwt beam="2">  1       -5 0.28337160E-01 0.15312206E+03</pdfrwt>
<totfact> 0.20989830E+02</totfact>
</mgrwt>
</event>
<event>
 8    1  0.3488953E-007  0.1375482E+03  0.7546771E-02  0.1216688E+00
         -5   -1    0    0    0  501 -0.00000000000E+00  0.00000000000E+00  0.15737716575E+04  0.15737786757E+04  0.47000000000E+01 0. -1.
          5   -1    0    0  501    0  0.00000000000E+00 -0.00000000000E+00 -0.11953606116E+02  0.12844403418E+02  0.47000000000E+01 0. -1.
         25    2    1    2    0    0 -0.55594708027E+02 -0.14238342286E+02  0.64049340595E+03  0.65509640283E+03  0.12500396788E+03 0.  0.
         25    2    1    2    0    0  0.55594708027E+02  0.14238342286E+02  0.92132464545E+03  0.93152667626E+03  0.12493736157E+03 0.  0.
          5    1    4    4  502    0  0.84173166179E+02 -0.21866453994E+02  0.70121820790E+03  0.70660620490E+03  0.47000000000E+01 0. -1.
         -5    1    4    4    0  502 -0.28578458152E+02  0.36104796280E+02  0.22010643755E+03  0.22492047136E+03  0.47000000000E+01 0. -1.
          5    1    3    3  503    0 -0.86381591597E+02  0.14562038520E+02  0.52014670791E+03  0.52749267301E+03  0.47000000000E+01 0. -1.
         -5    1    3    3    0  503  0.30786883569E+02 -0.28800380806E+02  0.12034669804E+03  0.12760372982E+03  0.47000000000E+01 0. -1.
<mgrwt>
<rscale>  0 0.13753302E+03</rscale>
<asrwt>0</asrwt>
<pdfrwt beam="2">  1        5 0.19080795E-02 0.13754815E+03</pdfrwt>
<pdfrwt beam="1">  1       -5 0.24218772E+00 0.13754815E+03</pdfrwt>
<totfact> 0.57980932E+01</totfact>
</mgrwt>
</event>
<event>
 8    1  0.3488953E-007  0.1757187E+03  0.7546771E-02  0.1172012E+00
          5   -1    0    0  501    0  0.00000000000E+00  0.00000000000E+00  0.92890479821E+02  0.93009307283E+02  0.47000000000E+01 0. -1.
         -5   -1    0    0    0  501 -0.00000000000E+00 -0.00000000000E+00 -0.38001160587E+03  0.38004066966E+03  0.47000000000E+01 0. -1.
         25    2    1    2    0    0 -0.52397636498E+02 -0.11183140020E+03 -0.22756997225E+03  0.28751546327E+03  0.12500109988E+03 0.  0.
         25    2    1    2    0    0  0.52397636498E+02  0.11183140020E+03 -0.59551153797E+02  0.18553451367E+03  0.12499976585E+03 0.  0.
          5    1    4    4  502    0  0.50170468710E+01 -0.20054790249E+02 -0.38216598446E+02  0.43703132245E+02  0.47000000000E+01 0.  1.
         -5    1    4    4    0  502  0.47380589627E+02  0.13188619045E+03 -0.21334555350E+02  0.14183138142E+03  0.47000000000E+01 0.  1.
          5    1    3    3  503    0  0.35786818391E+02 -0.62199487438E+02 -0.11886836946E+03  0.13892894539E+03  0.47000000000E+01 0. -1.
         -5    1    3    3    0  503 -0.88184454889E+02 -0.49631912762E+02 -0.10870160279E+03  0.14858651788E+03  0.47000000000E+01 0. -1.
<mgrwt>
<rscale>  0 0.17571843E+03</rscale>
<asrwt>0</asrwt>
<pdfrwt beam="1">  1        5 0.14302220E-01 0.17571867E+03</pdfrwt>
<pdfrwt beam="2">  1       -5 0.58474699E-01 0.17571867E+03</pdfrwt>
<totfact> 0.90379091E+01</totfact>
</mgrwt>
</event>
<event>
 8    1  0.3488953E-007  0.1252776E+03  0.7546771E-02  0.1234644E+00
          5   -1    0    0  501    0  0.00000000000E+00  0.00000000000E+00  0.10071514100E+04  0.10071623765E+04  0.47000000000E+01 0. -1.
         -5   -1    0    0    0  501 -0.00000000000E+00 -0.00000000000E+00 -0.33589802611E+02  0.33917028753E+02  0.47000000000E+01 0. -1.
         25    2    1    2    0    0 -0.38931678888E+01  0.70609381532E+01  0.10475944792E+03  0.16329146859E+03  0.12499819271E+03 0.  0.
         25    2    1    2    0    0  0.38931678888E+01 -0.70609381532E+01  0.86880215946E+03  0.87778793667E+03  0.12501782222E+03 0.  0.
          5    1    3    3  502    0 -0.36245464469E+02 -0.31126257978E+02  0.10225045871E+03  0.11295939065E+03  0.47000000000E+01 0. -1.
         -5    1    3    3    0  502  0.32352296580E+02  0.38187196131E+02  0.25089892071E+01  0.50332077935E+02  0.47000000000E+01 0. -1.
          5    1    4    4  503    0 -0.53832233943E+02  0.17054934855E+01  0.61231005729E+03  0.61469221109E+03  0.47000000000E+01 0. -1.
         -5    1    4    4    0  503  0.57725401831E+02 -0.87664316387E+01  0.25649210217E+03  0.26309572558E+03  0.47000000000E+01 0. -1.
<mgrwt>
<rscale>  0 0.12527267E+03</rscale>
<asrwt>0</asrwt>
<pdfrwt beam="1">  1        5 0.15497239E+00 0.12527757E+03</pdfrwt>
<pdfrwt beam="2">  1       -5 0.51936765E-02 0.12527757E+03</pdfrwt>
<totfact> 0.44174388E+01</totfact>
</mgrwt>
</event>
<event>
 8    1  0.3488953E-007  0.1332959E+03  0.7546771E-02  0.1222647E+00
         -5   -1    0    0    0  501 -0.00000000000E+00  0.00000000000E+00  0.12402743935E+03  0.12411646028E+03  0.47000000000E+01 0. -1.
          5   -1    0    0  501    0  0.00000000000E+00 -0.00000000000E+00 -0.15424060509E+03  0.15431219738E+03  0.47000000000E+01 0. -1.
         25    2    1    2    0    0  0.42024363588E+02 -0.19421754244E+02  0.22331631049E+02  0.13515360428E+03  0.12499817331E+03 0.  0.
         25    2    1    2    0    0 -0.42024363588E+02  0.19421754244E+02 -0.52544796789E+02  0.14327505338E+03  0.12499413418E+03 0.  0.
          5    1    4    4  502    0 -0.27453467235E+02 -0.51077435357E+02 -0.86218809330E+01  0.58813468667E+02  0.47000000000E+01 0.  1.
         -5    1    4    4    0  502 -0.14570896354E+02  0.70499189601E+02 -0.43922915856E+02  0.84461584713E+02  0.47000000000E+01 0.  1.
          5    1    3    3  503    0 -0.20891811016E+02  0.27385807000E+02 -0.25558625639E+02  0.43148389739E+02  0.47000000000E+01 0.  1.
         -5    1    3    3    0  503  0.62916174604E+02 -0.46807561244E+02  0.47890256688E+02  0.92005214537E+02  0.47000000000E+01 0.  1.
<mgrwt>
<rscale>  0 0.13329495E+03</rscale>
<asrwt>0</asrwt>
<pdfrwt beam="2">  1        5 0.23741679E-01 0.13329589E+03</pdfrwt>
<pdfrwt beam="1">  1       -5 0.19093499E-01 0.13329589E+03</pdfrwt>
<totfact> 0.30465460E+02</totfact>
</mgrwt>
</event>
<event>
 8    1  0.3488953E-007  0.1324669E+03  0.7546771E-02  0.1223846E+00
          5   -1    0    0  501    0  0.00000000000E+00  0.00000000000E+00  0.22684654050E+02  0.23166431089E+02  0.47000000000E+01 0. -1.
         -5   -1    0    0    0  501 -0.00000000000E+00 -0.00000000000E+00 -0.84665201095E+03  0.84666505635E+03  0.47000000000E+01 0. -1.
         25    2    1    2    0    0  0.21103490027E+02 -0.38395838519E+02 -0.54715973732E+03  0.56296648100E+03  0.12501153100E+03 0.  0.
         25    2    1    2    0    0 -0.21103490027E+02  0.38395838519E+02 -0.27680761958E+03  0.30686500644E+03  0.12499630479E+03 0.  0.
          5    1    3    3  502    0 -0.81161499462E+01  0.21645620594E+02 -0.18217965554E+02  0.29805855964E+02  0.47000000000E+01 0. -1.
         -5    1    3    3    0  502  0.29219639974E+02 -0.60041459113E+02 -0.52894177177E+03  0.53316062504E+03  0.47000000000E+01 0. -1.
          5    1    4    4  503    0  0.20141336351E+02 -0.36809041104E+02 -0.57520871980E+02  0.71353483799E+02  0.47000000000E+01 0.  1.
         -5    1    4    4    0  503 -0.41244826378E+02  0.75204879623E+02 -0.21928674760E+03  0.23551152264E+03  0.47000000000E+01 0.  1.
<mgrwt>
<rscale>  0 0.13246331E+03</rscale>
<asrwt>0</asrwt>
<pdfrwt beam="1">  1        5 0.35280107E-02 0.13246690E+03</pdfrwt>
<pdfrwt beam="2">  1       -5 0.13029219E+00 0.13246690E+03</pdfrwt>
<totfact> 0.13509762E+02</totfact>
</mgrwt>
</event>
<event>
 8    1  0.3488953E-007  0.1549076E+03  0.7546771E-02  0.1194570E+00
         -5   -1    0    0    0  501 -0.00000000000E+00  0.00000000000E+00  0.39668683170E+02  0.39946144050E+02  0.47000000000E+01 0.  1.
          5   -1    0    0  501    0  0.00000000000E+00 -0.00000000000E+00 -0.65929685670E+03  0.65931360918E+03  0.47000000000E+01 0.  1.
         25    2    1    2    0    0 -0.64291638165E+02 -0.65101138883E+02 -0.20722871076E+03  0.25872635547E+03  0.12499606165E+03 0.  0.
         25    2    1    2    0    0  0.64291638165E+02  0.65101138883E+02 -0.41239946277E+03  0.44053339777E+03  0.12499913853E+03 0.  0.
          5    1    3    3  502    0 -0.19540409019E+02 -0.35742404188E+02 -0.20041634155E+03  0.20456819646E+03  0.47000000000E+01 0.  1.
         -5    1    3    3    0  502 -0.44751229146E+02 -0.29358734695E+02 -0.68123692093E+01  0.54158159009E+02  0.47000000000E+01 0.  1.
          5    1    4    4  503    0  0.91440353987E+02  0.75585423667E+02 -0.26749336239E+03  0.29265898847E+03  0.47000000000E+01 0.  1.
         -5    1    4    4    0  503 -0.27148715822E+02 -0.10484284784E+02 -0.14490610038E+03  0.14787440930E+03  0.47000000000E+01 0.  1.
<mgrwt>
<rscale>  0 0.15490696E+03</rscale>
<asrwt>0</asrwt>
<pdfrwt beam="2">  1        5 0.10145291E+00 0.15490758E+03</pdfrwt>
<pdfrwt beam="1">  1       -5 0.61255066E-02 0.15490758E+03</pdfrwt>
<totfact> 0.10700804E+02</totfact>
</mgrwt>
</event>
<event>
 8    1  0.3488953E-007  0.1420891E+03  0.7546771E-02  0.1210548E+00
         -5   -1    0    0    0  501 -0.00000000000E+00  0.00000000000E+00  0.17608829531E+03  0.17615100836E+03  0.47000000000E+01 0. -1.
          5   -1    0    0  501    0  0.00000000000E+00 -0.00000000000E+00 -0.14538310163E+03  0.14545905348E+03  0.47000000000E+01 0. -1.
         25    2    1    2    0    0  0.53179043754E+02  0.41645816448E+02  0.89409286128E+02  0.16787895268E+03  0.12500775009E+03 0.  0.
         25    2    1    2    0    0 -0.53179043754E+02 -0.41645816448E+02 -0.58704092446E+02  0.15373110916E+03  0.12499879492E+03 0.  0.
          5    1    4    4  502    0 -0.17466135158E+02 -0.76078389159E+02 -0.67291295437E+02  0.10316586459E+03  0.47000000000E+01 0.  1.
         -5    1    4    4    0  502 -0.35712908596E+02  0.34432572711E+02  0.85872029913E+01  0.50565244576E+02  0.47000000000E+01 0.  1.
          5    1    3    3  503    0  0.54082935855E+02 -0.28388721020E+02  0.73895766337E+02  0.95987278920E+02  0.47000000000E+01 0.  1.
         -5    1    3    3    0  503 -0.90389210068E+00  0.70034537468E+02  0.15513519791E+02  0.71891673757E+02  0.47000000000E+01 0.  1.
<mgrwt>
<rscale>  0 0.14208717E+03</rscale>
<asrwt>0</asrwt>
<pdfrwt beam="2">  1        5 0.22377297E-01 0.14208914E+03</pdfrwt>
<pdfrwt beam="1">  1       -5 0.27101174E-01 0.14208914E+03</pdfrwt>
<totfact> 0.17936275E+02</totfact>
</mgrwt>
</event>
<event>
 8    1  0.3488953E-007  0.1819243E+03  0.7546771E-02  0.1165955E+00
          5   -1    0    0  501    0  0.00000000000E+00  0.00000000000E+00  0.34503834854E+03  0.34507035799E+03  0.47000000000E+01 0. -1.
         -5   -1    0    0    0  501 -0.00000000000E+00 -0.00000000000E+00 -0.96811525963E+02  0.96925546474E+02  0.47000000000E+01 0. -1.
         25    2    1    2    0    0  0.10294705885E+03 -0.82919475892E+02  0.14641841641E+03  0.23352684103E+03  0.12499078529E+03 0.  0.
         25    2    1    2    0    0 -0.10294705885E+03  0.82919475892E+02  0.10180840617E+03  0.20846906343E+03  0.12498264854E+03 0.  0.
          5    1    3    3  502    0  0.29274795576E+02  0.49720170982E+01 -0.16455017613E+02  0.34272324325E+02  0.47000000000E+01 0. -1.
         -5    1    3    3    0  502  0.73672263275E+02 -0.87891492991E+02  0.16287343402E+03  0.19925451670E+03  0.47000000000E+01 0. -1.
          5    1    4    4  503    0  0.66768482049E+01  0.71067842063E+02  0.38513037546E+02  0.81243846157E+02  0.47000000000E+01 0. -1.
         -5    1    4    4    0  503 -0.10962390706E+03  0.11851633830E+02  0.63295368620E+02  0.12722521728E+03  0.47000000000E+01 0. -1.
<mgrwt>
<rscale>  0 0.18192285E+03</rscale>
<asrwt>0</asrwt>
<pdfrwt beam="1">  1        5 0.53094057E-01 0.18192425E+03</pdfrwt>
<pdfrwt beam="2">  1       -5 0.14905314E-01 0.18192425E+03</pdfrwt>
<totfact> 0.10444363E+02</totfact>
</mgrwt>
</event>
<event>
 8    1  0.3488953E-007  0.1370694E+03  0.7546771E-02  0.1217329E+00
         -5   -1    0    0    0  501 -0.00000000000E+00  0.00000000000E+00  0.92539906451E+02  0.92659183495E+02  0.47000000000E+01 0.  1.
          5   -1    0    0  501    0  0.00000000000E+00 -0.00000000000E+00 -0.22002601290E+03  0.22007620578E+03  0.47000000000E+01 0.  1.
         25    2    1    2    0    0  0.56038923222E+02  0.46701151779E+01 -0.19936429921E+02  0.13851163614E+03  0.12500336482E+03 0.  0.
         25    2    1    2    0    0 -0.56038923222E+02 -0.46701151779E+01 -0.10754967653E+03  0.17422375314E+03  0.12499924938E+03 0.  0.
          5    1    3    3  502    0  0.82671787468E+02  0.40464442743E+02 -0.15046848801E+02  0.93383581151E+02  0.47000000000E+01 0.  1.
         -5    1    3    3    0  502 -0.26632864246E+02 -0.35794327565E+02 -0.48895811199E+01  0.45128054991E+02  0.47000000000E+01 0.  1.
          5    1    4    4  503    0  0.17462575975E+02 -0.44231558819E+01 -0.98236749090E+02  0.99985272612E+02  0.47000000000E+01 0. -1.
         -5    1    4    4    0  503 -0.73501499198E+02 -0.24695929606E+00 -0.93129274377E+01  0.74238480525E+02  0.47000000000E+01 0. -1.
<mgrwt>
<rscale>  0 0.13706843E+03</rscale>
<asrwt>0</asrwt>
<pdfrwt beam="2">  1        5 0.33863192E-01 0.13706937E+03</pdfrwt>
<pdfrwt beam="1">  1       -5 0.14249945E-01 0.13706937E+03</pdfrwt>
<totfact> 0.26292394E+02</totfact>
</mgrwt>
</event>
<event>
 8    1  0.3488953E-007  0.1271619E+03  0.7546771E-02  0.1231736E+00
          5   -1    0    0  501    0  0.00000000000E+00  0.00000000000E+00  0.11513486824E+03  0.11523075928E+03  0.47000000000E+01 0.  1.
         -5   -1    0    0    0  501 -0.00000000000E+00 -0.00000000000E+00 -0.14193722325E+03  0.14201501802E+03  0.47000000000E+01 0.  1.
         25    2    1    2    0    0  0.20066103403E+02  0.11944863239E+02 -0.27490889369E+02  0.13008198131E+03  0.12498097695E+03 0.  0.
         25    2    1    2    0    0 -0.20066103403E+02 -0.11944863239E+02  0.68853435522E+00  0.12716379599E+03  0.12499931467E+03 0.  0.
          5    1    4    4  502    0  0.47184689932E+02 -0.30614040344E+02  0.72448304336E+01  0.56905113989E+02  0.47000000000E+01 0. -1.
         -5    1    4    4    0  502 -0.67250793334E+02  0.18669177105E+02 -0.65562960784E+01  0.70258681998E+02  0.47000000000E+01 0. -1.
          5    1    3    3  503    0  0.69333127138E+02  0.24865731383E+02 -0.43325565671E+01  0.73934079844E+02  0.47000000000E+01 0. -1.
         -5    1    3    3    0  503 -0.49267023735E+02 -0.12920868144E+02 -0.23158332802E+02  0.56147901470E+02  0.47000000000E+01 0. -1.
<mgrwt>
<rscale>  0 0.12715743E+03</rscale>
<asrwt>0</asrwt>
<pdfrwt beam="1">  1        5 0.17726417E-01 0.12716193E+03</pdfrwt>
<pdfrwt beam="2">  1       -5 0.21849856E-01 0.12716193E+03</pdfrwt>
<totfact> 0.40196009E+02</totfact>
</mgrwt>
</event>
<event>
 8    1  0.3488953E-007  0.1344276E+03  0.7546771E-02  0.1221030E+00
          5   -1    0    0  501    0  0.00000000000E+00  0.00000000000E+00  0.19379308474E+02  0.19941103202E+02  0.47000000000E+01 0.  1.
         -5   -1    0    0    0  501 -0.00000000000E+00 -0.00000000000E+00 -0.91865279330E+03  0.91866481626E+03  0.47000000000E+01 0.  1.
         25    2    1    2    0    0 -0.33976963142E+02 -0.35935623797E+02 -0.45366776304E+03  0.47316502398E+03  0.12499959046E+03 0.  0.
         25    2    1    2    0    0  0.33976963142E+02  0.35935623797E+02 -0.44560572179E+03  0.46544089548E+03  0.12499985927E+03 0.  0.
          5    1    4    4  502    0  0.81486533027E+02  0.19461155558E+02 -0.28136685967E+03  0.29361231473E+03  0.47000000000E+01 0.  1.
         -5    1    4    4    0  502 -0.47509569886E+02  0.16474468238E+02 -0.16423886211E+03  0.17182858075E+03  0.47000000000E+01 0.  1.
          5    1    3    3  503    0 -0.20338366463E+01 -0.76609930197E+02 -0.33405649777E+03  0.34276675977E+03  0.47000000000E+01 0. -1.
         -5    1    3    3    0  503 -0.31943126496E+02  0.40674306401E+02 -0.11961126526E+03  0.13039826421E+03  0.47000000000E+01 0. -1.
<mgrwt>
<rscale>  0 0.13442749E+03</rscale>
<asrwt>0</asrwt>
<pdfrwt beam="1">  1        5 0.30255726E-02 0.13442756E+03</pdfrwt>
<pdfrwt beam="2">  1       -5 0.14137531E+00 0.13442756E+03</pdfrwt>
<totfact> 0.14041445E+02</totfact>
</mgrwt>
</event>
<event>
 8    1  0.3488953E-007  0.1314524E+03  0.7546771E-02  0.1225320E+00
         -5   -1    0    0    0  501 -0.00000000000E+00  0.00000000000E+00  0.13457770163E+03  0.13465974817E+03  0.47000000000E+01 0. -1.
          5   -1    0    0  501    0  0.00000000000E+00 -0.00000000000E+00 -0.14243496126E+03  0.14251248433E+03  0.47000000000E+01 0. -1.
         25    2    1    2    0    0  0.34220586178E+02 -0.21949214205E+02  0.39817140301E+02  0.13735043775E+03  0.12500768603E+03 0.  0.
         25    2    1    2    0    0 -0.34220586178E+02  0.21949214205E+02 -0.47674399929E+02  0.13982179474E+03  0.12499787739E+03 0.  0.
          5    1    4    4  502    0 -0.21242454285E+02 -0.22977575448E+02 -0.77804999419E+02  0.83993563873E+02  0.47000000000E+01 0.  1.
         -5    1    4    4    0  502 -0.12978131893E+02  0.44926789654E+02  0.30130599490E+02  0.55828230866E+02  0.47000000000E+01 0.  1.
          5    1    3    3  503    0 -0.15624228168E+02 -0.44930016847E+02  0.61721588813E+02  0.78067070172E+02  0.47000000000E+01 0.  1.
         -5    1    3    3    0  503  0.49844814346E+02  0.22980802642E+02 -0.21904448512E+02  0.59283367582E+02  0.47000000000E+01 0.  1.
<mgrwt>
<rscale>  0 0.13145009E+03</rscale>
<asrwt>0</asrwt>
<pdfrwt beam="2">  1        5 0.21925346E-01 0.13145242E+03</pdfrwt>
<pdfrwt beam="1">  1       -5 0.20716536E-01 0.13145242E+03</pdfrwt>
<totfact> 0.30273537E+02</totfact>
</mgrwt>
</event>
<event>
 8    1  0.3488953E-007  0.1354542E+03  0.7546771E-02  0.1219583E+00
         -5   -1    0    0    0  501 -0.00000000000E+00  0.00000000000E+00  0.26400825324E+02  0.26815920230E+02  0.47000000000E+01 0.  1.
          5   -1    0    0  501    0  0.00000000000E+00 -0.00000000000E+00 -0.68948419739E+03  0.68950021643E+03  0.47000000000E+01 0.  1.
         25    2    1    2    0    0  0.51608668916E+02  0.75207393222E+01 -0.34022732284E+03  0.36619635819E+03  0.12500050126E+03 0.  0.
         25    2    1    2    0    0 -0.51608668916E+02 -0.75207393222E+01 -0.32285604923E+03  0.35011977847E+03  0.12501125759E+03 0.  0.
          5    1    4    4  502    0 -0.73223419238E+02 -0.35801559670E+02 -0.12684925984E+03  0.15085173357E+03  0.47000000000E+01 0.  1.
         -5    1    4    4    0  502  0.21614750322E+02  0.28280820348E+02 -0.19600678939E+03  0.19926804490E+03  0.47000000000E+01 0.  1.
          5    1    3    3  503    0  0.56764101591E+01 -0.42831273791E+02 -0.24599765926E+03  0.24980728174E+03  0.47000000000E+01 0. -1.
         -5    1    3    3    0  503  0.45932258757E+02  0.50352013113E+02 -0.94229663577E+02  0.11638907645E+03  0.47000000000E+01 0. -1.
<mgrwt>
<rscale>  0 0.13545168E+03</rscale>
<asrwt>0</asrwt>
<pdfrwt beam="2">  1        5 0.10610764E+00 0.13545416E+03</pdfrwt>
<pdfrwt beam="1">  1       -5 0.40948286E-02 0.13545416E+03</pdfrwt>
<totfact> 0.17935791E+02</totfact>
</mgrwt>
</event>
<event>
 8    1  0.3488953E-007  0.1582051E+03  0.7546771E-02  0.1190738E+00
          5   -1    0    0  501    0  0.00000000000E+00  0.00000000000E+00  0.26555332438E+03  0.26559491353E+03  0.47000000000E+01 0. -1.
         -5   -1    0    0    0  501 -0.00000000000E+00 -0.00000000000E+00 -0.97644091096E+02  0.97757140536E+02  0.47000000000E+01 0. -1.
         25    2    1    2    0    0 -0.10949577443E+02 -0.96355508951E+02  0.49584688242E+02  0.16579350960E+03  0.12499827665E+03 0.  0.
         25    2    1    2    0    0  0.10949577443E+02  0.96355508951E+02  0.11832454505E+03  0.19755854447E+03  0.12499761270E+03 0.  0.
          5    1    3    3  502    0  0.22661057377E+02 -0.11605834397E+02 -0.33510432153E+02  0.42346876822E+02  0.47000000000E+01 0.  1.
         -5    1    3    3    0  502 -0.33610634820E+02 -0.84749674554E+02  0.83095120395E+02  0.12344663278E+03  0.47000000000E+01 0.  1.
          5    1    4    4  503    0 -0.33482929275E+02  0.33749929403E+02 -0.91846744671E+01  0.48647842014E+02  0.47000000000E+01 0.  1.
         -5    1    4    4    0  503  0.44432506719E+02  0.62605579548E+02  0.12750921951E+03  0.14891070245E+03  0.47000000000E+01 0.  1.
<mgrwt>
<rscale>  0 0.15820495E+03</rscale>
<asrwt>0</asrwt>
<pdfrwt beam="1">  1        5 0.40866252E-01 0.15820508E+03</pdfrwt>
<pdfrwt beam="2">  1       -5 0.15034063E-01 0.15820508E+03</pdfrwt>
<totfact> 0.17102753E+02</totfact>
</mgrwt>
</event>
<event>
 8    1  0.3488953E-007  0.1776391E+03  0.7546771E-02  0.1170110E+00
          5   -1    0    0  501    0  0.00000000000E+00  0.00000000000E+00  0.93586457100E+03  0.93587637285E+03  0.47000000000E+01 0.  1.
         -5   -1    0    0    0  501 -0.00000000000E+00 -0.00000000000E+00 -0.36225720697E+02  0.36529342179E+02  0.47000000000E+01 0.  1.
         25    2    1    2    0    0  0.21810194516E+02 -0.12431407657E+03  0.31803938496E+03  0.36428270589E+03  0.12499266061E+03 0.  0.
         25    2    1    2    0    0 -0.21810194516E+02  0.12431407657E+03  0.58159946534E+03  0.60812300914E+03  0.12500392767E+03 0.  0.
          5    1    4    4  502    0 -0.39254317565E+02  0.13327871592E+03  0.56544238477E+03  0.58228111601E+03  0.47000000000E+01 0. -1.
         -5    1    4    4    0  502  0.17444123049E+02 -0.89646393528E+01  0.16157080570E+02  0.25841893124E+02  0.47000000000E+01 0. -1.
          5    1    3    3  503    0  0.37939180057E+02  0.10366667141E+02  0.98640919646E+02  0.10629661424E+03  0.47000000000E+01 0.  1.
         -5    1    3    3    0  503 -0.16128985541E+02 -0.13468074371E+03  0.21939846531E+03  0.25798609165E+03  0.47000000000E+01 0.  1.
<mgrwt>
<rscale>  0 0.17763714E+03</rscale>
<asrwt>0</asrwt>
<pdfrwt beam="1">  1        5 0.14400343E+00 0.17763912E+03</pdfrwt>
<pdfrwt beam="2">  1       -5 0.55974510E-02 0.17763912E+03</pdfrwt>
<totfact> 0.52671013E+01</totfact>
</mgrwt>
</event>
<event>
 8    1  0.3488953E-007  0.1309399E+03  0.7546771E-02  0.1226077E+00
         -5   -1    0    0    0  501 -0.00000000000E+00  0.00000000000E+00  0.44925725192E+03  0.44928183627E+03  0.47000000000E+01 0.  1.
          5   -1    0    0  501    0  0.00000000000E+00 -0.00000000000E+00 -0.48802893563E+02  0.49028689766E+02  0.47000000000E+01 0.  1.
         25    2    1    2    0    0 -0.35247739050E+02 -0.16456276115E+02  0.31717629174E+03  0.34313163159E+03  0.12500121767E+03 0.  0.
         25    2    1    2    0    0  0.35247739050E+02  0.16456276115E+02  0.83278066617E+02  0.15517889445E+03  0.12502815992E+03 0.  0.
          5    1    4    4  502    0  0.35544796651E+02 -0.30181361999E+02  0.95809563889E+02  0.10665790976E+03  0.47000000000E+01 0.  1.
         -5    1    4    4    0  502 -0.29705760117E+00  0.46637638114E+02 -0.12531497271E+02  0.48520984697E+02  0.47000000000E+01 0.  1.
          5    1    3    3  503    0 -0.25212364499E+02 -0.66783780867E+02  0.23917226502E+03  0.24964214201E+03  0.47000000000E+01 0. -1.
         -5    1    3    3    0  503 -0.10035374551E+02  0.50327504752E+02  0.78004026721E+02  0.93489489578E+02  0.47000000000E+01 0. -1.
<mgrwt>
<rscale>  0 0.13093345E+03</rscale>
<asrwt>0</asrwt>
<pdfrwt beam="2">  1        5 0.75273977E-02 0.13093988E+03</pdfrwt>
<pdfrwt beam="1">  1       -5 0.69135759E-01 0.13093988E+03</pdfrwt>
<totfact> 0.17530724E+02</totfact>
</mgrwt>
</event>
<event>
 8    1  0.3488953E-007  0.1372672E+03  0.7546771E-02  0.1217056E+00
          5   -1    0    0  501    0  0.00000000000E+00  0.00000000000E+00  0.28559880869E+03  0.28563747920E+03  0.47000000000E+01 0. -1.
         -5   -1    0    0    0  501 -0.00000000000E+00 -0.00000000000E+00 -0.81728490449E+02  0.81863521492E+02  0.47000000000E+01 0. -1.
         25    2    1    2    0    0  0.27860308471E+02  0.49390002946E+02  0.21025643343E+02  0.13886817373E+03  0.12500689109E+03 0.  0.
         25    2    1    2    0    0 -0.27860308471E+02 -0.49390002946E+02  0.18284467490E+03  0.22863282696E+03  0.12500090098E+03 0.  0.
          5    1    4    4  502    0 -0.24103641665E+02  0.37717127797E+02  0.93170223244E+02  0.10347148288E+03  0.47000000000E+01 0. -1.
         -5    1    4    4    0  502 -0.37566668059E+01 -0.87107130743E+02  0.89674451655E+02  0.12516134408E+03  0.47000000000E+01 0. -1.
          5    1    3    3  503    0  0.20011896397E+02  0.37583213049E+02  0.73081951274E+02  0.84711483888E+02  0.47000000000E+01 0. -1.
         -5    1    3    3    0  503  0.78484120735E+01  0.11806789897E+02 -0.52056307931E+02  0.54156689847E+02  0.47000000000E+01 0. -1.
<mgrwt>
<rscale>  0 0.13726586E+03</rscale>
<asrwt>0</asrwt>
<pdfrwt beam="1">  1        5 0.43951640E-01 0.13726723E+03</pdfrwt>
<pdfrwt beam="2">  1       -5 0.12586976E-01 0.13726723E+03</pdfrwt>
<totfact> 0.19327466E+02</totfact>
</mgrwt>
</event>
<event>
 8    1  0.3488953E-007  0.1250353E+03  0.7546771E-02  0.1235024E+00
          5   -1    0    0  501    0  0.00000000000E+00  0.00000000000E+00  0.15808882547E+03  0.15815867582E+03  0.47000000000E+01 0.  1.
         -5   -1    0    0    0  501 -0.00000000000E+00 -0.00000000000E+00 -0.11648053371E+03  0.11657531786E+03  0.47000000000E+01 0.  1.
         25    2    1    2    0    0 -0.18665345140E+01 -0.70571286518E+00 -0.32789566236E+02  0.12923878699E+03  0.12499410557E+03 0.  0.
         25    2    1    2    0    0  0.18665345140E+01  0.70571286518E+00  0.74397857997E+02  0.14549520669E+03  0.12501932615E+03 0.  0.
          5    1    4    4  502    0 -0.32998774897E+02 -0.50186039135E+02  0.52358284823E+02  0.79818780111E+02  0.47000000000E+01 0. -1.
         -5    1    4    4    0  502  0.34865309411E+02  0.50891752000E+02  0.22039573174E+02  0.65676426575E+02  0.47000000000E+01 0. -1.
          5    1    3    3  503    0  0.96188538221E+01  0.56908288706E+02 -0.39242833476E+02  0.69951166191E+02  0.47000000000E+01 0.  1.
         -5    1    3    3    0  503 -0.11485388336E+02 -0.57614001571E+02  0.64532672394E+01  0.59287620802E+02  0.47000000000E+01 0.  1.
<mgrwt>
<rscale>  0 0.12502895E+03</rscale>
<asrwt>0</asrwt>
<pdfrwt beam="1">  1        5 0.24334022E-01 0.12503525E+03</pdfrwt>
<pdfrwt beam="2">  1       -5 0.17932746E-01 0.12503525E+03</pdfrwt>
<totfact> 0.31889077E+02</totfact>
</mgrwt>
</event>
<event>
 8    1  0.3488953E-007  0.1676020E+03  0.7546771E-02  0.1180372E+00
          5   -1    0    0  501    0  0.00000000000E+00  0.00000000000E+00  0.60721729592E+03  0.60723548518E+03  0.47000000000E+01 0.  1.
         -5   -1    0    0    0  501 -0.00000000000E+00 -0.00000000000E+00 -0.47399908441E+02  0.47632355812E+02  0.47000000000E+01 0.  1.
         25    2    1    2    0    0 -0.10663087718E+03 -0.33089041411E+02  0.22628971761E+03  0.28159697139E+03  0.12499915746E+03 0.  0.
         25    2    1    2    0    0  0.10663087718E+03  0.33089041411E+02  0.33352766986E+03  0.37327086960E+03  0.12500162759E+03 0.  0.
          5    1    3    3  502    0  0.25672462904E+02 -0.21724323967E+02  0.57549575601E+02  0.66821143774E+02  0.47000000000E+01 0.  1.
         -5    1    3    3    0  502 -0.13230334009E+03 -0.11364717443E+02  0.16874014201E+03  0.21477582761E+03  0.47000000000E+01 0.  1.
          5    1    4    4  503    0  0.11771202292E+03  0.24108010748E+02  0.33703944872E+03  0.35784772812E+03  0.47000000000E+01 0.  1.
         -5    1    4    4    0  503 -0.11081145733E+02  0.89810306627E+01 -0.35117788633E+01  0.15423141487E+02  0.47000000000E+01 0.  1.
<mgrwt>
<rscale>  0 0.16760155E+03</rscale>
<asrwt>0</asrwt>
<pdfrwt beam="1">  1        5 0.93437327E-01 0.16760202E+03</pdfrwt>
<pdfrwt beam="2">  1       -5 0.73115732E-02 0.16760202E+03</pdfrwt>
<totfact> 0.99044496E+01</totfact>
</mgrwt>
</event>
<event>
 8    1  0.3488953E-007  0.1633660E+03  0.7546771E-02  0.1184949E+00
          5   -1    0    0  501    0  0.00000000000E+00  0.00000000000E+00  0.33224398730E+03  0.33227722928E+03  0.47000000000E+01 0.  1.
         -5   -1    0    0    0  501 -0.00000000000E+00 -0.00000000000E+00 -0.80254254649E+02  0.80391761949E+02  0.47000000000E+01 0.  1.
         25    2    1    2    0    0 -0.80405892893E+01 -0.10486929696E+03  0.13018585606E+03  0.20889421091E+03  0.12500485476E+03 0.  0.
         25    2    1    2    0    0  0.80405892893E+01  0.10486929696E+03  0.12180387659E+03  0.20377478031E+03  0.12500302484E+03 0.  0.
          5    1    4    4  502    0 -0.48555428010E+02  0.27984265303E+02  0.83777457789E+02  0.10090342476E+03  0.47000000000E+01 0.  1.
         -5    1    4    4    0  502  0.56596017300E+02  0.76885031660E+02  0.38026418800E+02  0.10287135556E+03  0.47000000000E+01 0.  1.
          5    1    3    3  503    0 -0.47529091852E+02 -0.10725077424E+03  0.11977117193E+03  0.16771692452E+03  0.47000000000E+01 0. -1.
         -5    1    3    3    0  503  0.39488502563E+02  0.23814772733E+01  0.10414684131E+02  0.41177286387E+02  0.47000000000E+01 0. -1.
<mgrwt>
<rscale>  0 0.16336560E+03</rscale>
<asrwt>0</asrwt>
<pdfrwt beam="1">  1        5 0.51127594E-01 0.16336595E+03</pdfrwt>
<pdfrwt beam="2">  1       -5 0.12359943E-01 0.16336595E+03</pdfrwt>
<totfact> 0.15365956E+02</totfact>
</mgrwt>
</event>
<event>
 8    1  0.3488953E-007  0.1336700E+03  0.7546771E-02  0.1222111E+00
          5   -1    0    0  501    0  0.00000000000E+00  0.00000000000E+00  0.36707284533E+03  0.36710293350E+03  0.47000000000E+01 0. -1.
         -5   -1    0    0    0  501 -0.00000000000E+00 -0.00000000000E+00 -0.48732282238E+02  0.48958404101E+02  0.47000000000E+01 0. -1.
         25    2    1    2    0    0  0.13422192416E+01  0.47347062510E+02  0.14576603829E+03  0.19777336722E+03  0.12499208368E+03 0.  0.
         25    2    1    2    0    0 -0.13422192416E+01 -0.47347062510E+02  0.17257452481E+03  0.21828797038E+03  0.12499650202E+03 0.  0.
          5    1    3    3  502    0  0.74156157506E+01  0.39437428983E+02  0.16808897931E+03  0.17287653723E+03  0.47000000000E+01 0.  1.
         -5    1    3    3    0  502 -0.60733965090E+01  0.79096335270E+01 -0.22322941018E+02  0.24896829987E+02  0.47000000000E+01 0.  1.
          5    1    4    4  503    0  0.27514143128E+02 -0.62830246484E+02  0.17196484972E+03  0.18519899428E+03  0.47000000000E+01 0. -1.
         -5    1    4    4    0  503 -0.28856362370E+02  0.15483183975E+02  0.60967509017E+00  0.33088976094E+02  0.47000000000E+01 0. -1.
<mgrwt>
<rscale>  0 0.13366898E+03</rscale>
<asrwt>0</asrwt>
<pdfrwt beam="1">  1        5 0.56492452E-01 0.13367001E+03</pdfrwt>
<pdfrwt beam="2">  1       -5 0.75169829E-02 0.13367001E+03</pdfrwt>
<totfact> 0.27619385E+02</totfact>
</mgrwt>
</event>
<event>
 8    1  0.3488953E-007  0.1923821E+03  0.7546771E-02  0.1156330E+00
          5   -1    0    0  501    0  0.00000000000E+00  0.00000000000E+00  0.82645671750E+02  0.82779206682E+02  0.47000000000E+01 0. -1.
         -5   -1    0    0    0  501 -0.00000000000E+00 -0.00000000000E+00 -0.55748049873E+03  0.55750031073E+03  0.47000000000E+01 0. -1.
         25    2    1    2    0    0  0.12944042530E+03  0.68042373356E+02 -0.37971131701E+03  0.42566601378E+03  0.12500513090E+03 0.  0.
         25    2    1    2    0    0 -0.12944042530E+03 -0.68042373356E+02 -0.95123509967E+02  0.21461350363E+03  0.12500354202E+03 0.  0.
          5    1    4    4  502    0  0.52646909593E+01  0.22737778072E+02  0.41731255423E+01  0.24170819170E+02  0.47000000000E+01 0.  1.
         -5    1    4    4    0  502 -0.13470511626E+03 -0.90780151428E+02 -0.99296635509E+02  0.19044268446E+03  0.47000000000E+01 0.  1.
          5    1    3    3  503    0  0.42692820188E+02  0.74451968347E+02 -0.28178052015E+03  0.29459824172E+03  0.47000000000E+01 0.  1.
         -5    1    3    3    0  503  0.86747605112E+02 -0.64095949912E+01 -0.97930796858E+02  0.13106777206E+03  0.47000000000E+01 0.  1.
<mgrwt>
<rscale>  0 0.19238184E+03</rscale>
<asrwt>0</asrwt>
<pdfrwt beam="1">  1        5 0.12726515E-01 0.19238210E+03</pdfrwt>
<pdfrwt beam="2">  1       -5 0.85778024E-01 0.19238210E+03</pdfrwt>
<totfact> 0.47885880E+01</totfact>
</mgrwt>
</event>
<event>
 8    1  0.3488953E-007  0.1362355E+03  0.7546771E-02  0.1218487E+00
          5   -1    0    0  501    0  0.00000000000E+00  0.00000000000E+00  0.54055146064E+02  0.54259089709E+02  0.47000000000E+01 0. -1.
         -5   -1    0    0    0  501 -0.00000000000E+00 -0.00000000000E+00 -0.34506375353E+03  0.34509576062E+03  0.47000000000E+01 0. -1.
         25    2    1    2    0    0  0.26941695075E+02  0.46991799257E+02 -0.16277420000E+03  0.21226078889E+03  0.12500047274E+03 0.  0.
         25    2    1    2    0    0 -0.26941695075E+02 -0.46991799257E+02 -0.12823440747E+03  0.18709406144E+03  0.12500416168E+03 0.  0.
          5    1    3    3  502    0 -0.26790857230E+02  0.23725136037E+02  0.31644248930E+01  0.36231694633E+02  0.47000000000E+01 0.  1.
         -5    1    3    3    0  502  0.53732552304E+02  0.23266663219E+02 -0.16593862489E+03  0.17602909426E+03  0.47000000000E+01 0.  1.
          5    1    4    4  503    0 -0.61066320220E+02 -0.32133561757E+02 -0.19190749661E+02  0.71777685453E+02  0.47000000000E+01 0.  1.
         -5    1    4    4    0  503  0.34124625146E+02 -0.14858237499E+02 -0.10904365781E+03  0.11531637599E+03  0.47000000000E+01 0.  1.
<mgrwt>
<rscale>  0 0.13623470E+03</rscale>
<asrwt>0</asrwt>
<pdfrwt beam="1">  1        5 0.83343266E-02 0.13623555E+03</pdfrwt>
<pdfrwt beam="2">  1       -5 0.53104880E-01 0.13623555E+03</pdfrwt>
<totfact> 0.26610016E+02</totfact>
</mgrwt>
</event>
<event>
 8    1  0.3488953E-007  0.1315188E+03  0.7546771E-02  0.1225223E+00
          5   -1    0    0  501    0  0.00000000000E+00  0.00000000000E+00  0.17382401038E+03  0.17388754005E+03  0.47000000000E+01 0.  1.
         -5   -1    0    0    0  501 -0.00000000000E+00 -0.00000000000E+00 -0.14944998259E+03  0.14952386865E+03  0.47000000000E+01 0.  1.
         25    2    1    2    0    0 -0.13881269867E+02  0.38435798147E+02 -0.81375376223E+02  0.15465817179E+03  0.12500879175E+03 0.  0.
         25    2    1    2    0    0  0.13881269867E+02 -0.38435798147E+02  0.10574940402E+03  0.16875323691E+03  0.12499887313E+03 0.  0.
          5    1    3    3  502    0 -0.16164844432E+02  0.83991124454E+02 -0.53518980096E+02  0.10100585336E+03  0.47000000000E+01 0. -1.
         -5    1    3    3    0  502  0.22835745656E+01 -0.45555326307E+02 -0.27856396127E+02  0.53652318430E+02  0.47000000000E+01 0. -1.
          5    1    4    4  503    0 -0.15885310958E+02  0.26649284234E+02  0.90011001016E+02  0.95323647424E+02  0.47000000000E+01 0.  1.
         -5    1    4    4    0  503  0.29766580824E+02 -0.65085082380E+02  0.15738403002E+02  0.73429589482E+02  0.47000000000E+01 0.  1.
<mgrwt>
<rscale>  0 0.13151646E+03</rscale>
<asrwt>0</asrwt>
<pdfrwt beam="1">  1        5 0.26752726E-01 0.13151881E+03</pdfrwt>
<pdfrwt beam="2">  1       -5 0.23002876E-01 0.13151881E+03</pdfrwt>
<totfact> 0.17009287E+02</totfact>
</mgrwt>
</event>
<event>
 8    1  0.3488953E-007  0.2260112E+03  0.7546771E-02  0.1129479E+00
         -5   -1    0    0    0  501 -0.00000000000E+00  0.00000000000E+00  0.30320449242E+02  0.30682562511E+02  0.47000000000E+01 0. -1.
          5   -1    0    0  501    0  0.00000000000E+00 -0.00000000000E+00 -0.18984289702E+04  0.18984347882E+04  0.47000000000E+01 0. -1.
         25    2    1    2    0    0  0.15871394030E+03 -0.10132674798E+03 -0.12654214746E+04  0.12854464543E+04  0.12499541554E+03 0.  0.
         25    2    1    2    0    0 -0.15871394030E+03  0.10132674798E+03 -0.60268704639E+03  0.64367089636E+03  0.12499328875E+03 0.  0.
          5    1    3    3  502    0  0.76620889826E+02 -0.70198340136E+02 -0.10094572555E+04  0.10148027436E+04  0.47000000000E+01 0.  1.
         -5    1    3    3    0  502  0.82093050475E+02 -0.31128407839E+02 -0.25596421909E+03  0.27064371074E+03  0.47000000000E+01 0.  1.
          5    1    4    4  503    0 -0.89305966648E+02  0.36144483944E+02 -0.13235175557E+03  0.16377135464E+03  0.47000000000E+01 0.  1.
         -5    1    4    4    0  503 -0.69407973653E+02  0.65182264032E+02 -0.47033529082E+03  0.47989954171E+03  0.47000000000E+01 0.  1.
<mgrwt>
<rscale>  0 0.22601094E+03</rscale>
<asrwt>0</asrwt>
<pdfrwt beam="2">  1        5 0.29209420E+00 0.22601124E+03</pdfrwt>
<pdfrwt beam="1">  1       -5 0.46929884E-02 0.22601124E+03</pdfrwt>
<totfact> 0.72230457E+00</totfact>
</mgrwt>
</event>
<event>
 8    1  0.3488953E-007  0.1371873E+03  0.7546771E-02  0.1217172E+00
          5   -1    0    0  501    0  0.00000000000E+00  0.00000000000E+00  0.76579829824E+02  0.76723922839E+02  0.47000000000E+01 0. -1.
         -5   -1    0    0    0  501 -0.00000000000E+00 -0.00000000000E+00 -0.25223952309E+03  0.25228330703E+03  0.47000000000E+01 0. -1.
         25    2    1    2    0    0  0.53849245137E+02 -0.17018982357E+02 -0.11504777439E+03  0.17902673017E+03  0.12500077104E+03 0.  0.
         25    2    1    2    0    0 -0.53849245137E+02  0.17018982357E+02 -0.60611918868E+02  0.14998049970E+03  0.12502383220E+03 0.  0.
          5    1    4    4  502    0 -0.82173047317E+02 -0.22181392667E+02 -0.22325288541E+02  0.88118853796E+02  0.47000000000E+01 0.  1.
         -5    1    4    4    0  502  0.28323802180E+02  0.39200375024E+02 -0.38286630328E+02  0.61861645903E+02  0.47000000000E+01 0.  1.
          5    1    3    3  503    0  0.63884330650E+02 -0.58037859135E+02 -0.10379147954E+03  0.13507169215E+03  0.47000000000E+01 0.  1.
         -5    1    3    3    0  503 -0.10035085513E+02  0.41018876778E+02 -0.11256294852E+02  0.43955038018E+02  0.47000000000E+01 0.  1.
<mgrwt>
<rscale>  0 0.13718201E+03</rscale>
<asrwt>0</asrwt>
<pdfrwt beam="1">  1        5 0.11795965E-01 0.13718726E+03</pdfrwt>
<pdfrwt beam="2">  1       -5 0.38820532E-01 0.13718726E+03</pdfrwt>
<totfact> 0.27984946E+02</totfact>
</mgrwt>
</event>
<event>
 8    1  0.3488953E-007  0.1343771E+03  0.7546771E-02  0.1221102E+00
          5   -1    0    0  501    0  0.00000000000E+00  0.00000000000E+00  0.31251705030E+03  0.31255239038E+03  0.47000000000E+01 0.  1.
         -5   -1    0    0    0  501 -0.00000000000E+00 -0.00000000000E+00 -0.69828719126E+02  0.69986713131E+02  0.47000000000E+01 0.  1.
         25    2    1    2    0    0 -0.43007290910E+02  0.24142110722E+02  0.41569633426E+02  0.14066003391E+03  0.12499896853E+03 0.  0.
         25    2    1    2    0    0  0.43007290910E+02 -0.24142110722E+02  0.20111869775E+03  0.24187906960E+03  0.12499714054E+03 0.  0.
          5    1    3    3  502    0  0.30711447616E+02  0.25257989118E+02 -0.19753421521E+02  0.44648031208E+02  0.47000000000E+01 0. -1.
         -5    1    3    3    0  502 -0.73718738525E+02 -0.11158783962E+01  0.61323054947E+02  0.96012002699E+02  0.47000000000E+01 0. -1.
          5    1    4    4  503    0  0.79677081428E+02 -0.39584787414E+01  0.17482891597E+03  0.19222733083E+03  0.47000000000E+01 0.  1.
         -5    1    4    4    0  503 -0.36669790519E+02 -0.20183631981E+02  0.26289781777E+02  0.49651738766E+02  0.47000000000E+01 0.  1.
<mgrwt>
<rscale>  0 0.13437670E+03</rscale>
<asrwt>0</asrwt>
<pdfrwt beam="1">  1        5 0.48094419E-01 0.13437712E+03</pdfrwt>
<pdfrwt beam="2">  1       -5 0.10757751E-01 0.13437712E+03</pdfrwt>
<totfact> 0.20981693E+02</totfact>
</mgrwt>
</event>
<event>
 8    1  0.3488953E-007  0.1295128E+03  0.7546771E-02  0.1228187E+00
          5   -1    0    0  501    0  0.00000000000E+00  0.00000000000E+00  0.21762542824E+03  0.21767617467E+03  0.47000000000E+01 0. -1.
         -5   -1    0    0    0  501 -0.00000000000E+00 -0.00000000000E+00 -0.82065374201E+02  0.82199851841E+02  0.47000000000E+01 0. -1.
         25    2    1    2    0    0 -0.25346895669E+02 -0.22399945674E+02  0.30323440157E+02  0.13299789392E+03  0.12499882430E+03 0.  0.
         25    2    1    2    0    0  0.25346895669E+02  0.22399945674E+02  0.10523661389E+03  0.16687813259E+03  0.12501737299E+03 0.  0.
          5    1    3    3  502    0 -0.58719795761E+01  0.51782332470E+02  0.76453172855E+01  0.52881291366E+02  0.47000000000E+01 0.  1.
         -5    1    3    3    0  502 -0.19474916093E+02 -0.74182278143E+02  0.22678122872E+02  0.80116602551E+02  0.47000000000E+01 0.  1.
          5    1    4    4  503    0 -0.25257743627E+02 -0.20285820375E+02  0.94034476865E+02  0.99569277192E+02  0.47000000000E+01 0. -1.
         -5    1    4    4    0  503  0.50604639296E+02  0.42685766048E+02  0.11202137022E+02  0.67308855400E+02  0.47000000000E+01 0. -1.
<mgrwt>
<rscale>  0 0.12950833E+03</rscale>
<asrwt>0</asrwt>
<pdfrwt beam="1">  1        5 0.33495083E-01 0.12951280E+03</pdfrwt>
<pdfrwt beam="2">  1       -5 0.12639690E-01 0.12951280E+03</pdfrwt>
<totfact> 0.32647664E+02</totfact>
</mgrwt>
</event>
<event>
 8    1  0.3488953E-007  0.1338663E+03  0.7546771E-02  0.1221829E+00
         -5   -1    0    0    0  501 -0.00000000000E+00  0.00000000000E+00  0.12010004797E+04  0.12010096761E+04  0.47000000000E+01 0. -1.
          5   -1    0    0  501    0  0.00000000000E+00 -0.00000000000E+00 -0.14932276440E+02  0.15654484331E+02  0.47000000000E+01 0. -1.
         25    2    1    2    0    0  0.47879083124E+02  0.18094639204E+01  0.68911407450E+03  0.70199601121E+03  0.12499804526E+03 0.  0.
         25    2    1    2    0    0 -0.47879083124E+02 -0.18094639204E+01  0.49695412872E+03  0.51466814924E+03  0.12499686810E+03 0.  0.
          5    1    4    4  502    0  0.13914673711E+02 -0.31659824368E+02  0.35721967776E+03  0.35892053550E+03  0.47000000000E+01 0.  1.
         -5    1    4    4    0  502 -0.61793756835E+02  0.29850360448E+02  0.13973445096E+03  0.15574761374E+03  0.47000000000E+01 0.  1.
          5    1    3    3  503    0 -0.96361887132E+01 -0.52626003368E+02  0.24073515188E+03  0.24665331077E+03  0.47000000000E+01 0.  1.
         -5    1    3    3    0  503  0.57515271837E+02  0.54435467288E+02  0.44837892262E+03  0.45534270044E+03  0.47000000000E+01 0.  1.
<mgrwt>
<rscale>  0 0.13386605E+03</rscale>
<asrwt>0</asrwt>
<pdfrwt beam="2">  1        5 0.23535354E-02 0.13386632E+03</pdfrwt>
<pdfrwt beam="1">  1       -5 0.18482555E+00 0.13386632E+03</pdfrwt>
<totfact> 0.98739148E+01</totfact>
</mgrwt>
</event>
<event>
 8    1  0.3488953E-007  0.1421746E+03  0.7546771E-02  0.1210436E+00
          5   -1    0    0  501    0  0.00000000000E+00  0.00000000000E+00  0.31039395071E+03  0.31042953249E+03  0.47000000000E+01 0.  1.
         -5   -1    0    0    0  501 -0.00000000000E+00 -0.00000000000E+00 -0.11427834643E+03  0.11437495558E+03  0.47000000000E+01 0.  1.
         25    2    1    2    0    0 -0.43403159674E+01 -0.67585124674E+02 -0.41324309905E+02  0.14805849026E+03  0.12500812185E+03 0.  0.
         25    2    1    2    0    0  0.43403159674E+01  0.67585124674E+02  0.23743991419E+03  0.27674599780E+03  0.12499618806E+03 0.  0.
          5    1    4    4  502    0 -0.20792187481E+02 -0.16791890967E+02  0.15049166818E+03  0.15291865437E+03  0.47000000000E+01 0. -1.
         -5    1    4    4    0  502  0.25132503448E+02  0.84377015641E+02  0.86948246009E+02  0.12382734343E+03  0.47000000000E+01 0. -1.
          5    1    3    3  503    0 -0.71375304865E+01  0.33446855998E+02  0.80901531850E+01  0.35456693249E+02  0.47000000000E+01 0. -1.
         -5    1    3    3    0  503  0.27972145191E+01 -0.10103198067E+03 -0.49414463090E+02  0.11260179701E+03  0.47000000000E+01 0. -1.
<mgrwt>
<rscale>  0 0.14217198E+03</rscale>
<asrwt>0</asrwt>
<pdfrwt beam="1">  1        5 0.47763083E-01 0.14217460E+03</pdfrwt>
<pdfrwt beam="2">  1       -5 0.17591453E-01 0.14217460E+03</pdfrwt>
<totfact> 0.89651547E+01</totfact>
</mgrwt>
</event>
<event>
 8    1  0.3488953E-007  0.1917715E+03  0.7546771E-02  0.1156875E+00
          5   -1    0    0  501    0  0.00000000000E+00  0.00000000000E+00  0.89233398809E+03  0.89234636566E+03  0.47000000000E+01 0. -1.
         -5   -1    0    0    0  501 -0.00000000000E+00 -0.00000000000E+00 -0.45842452536E+02  0.46082756586E+02  0.47000000000E+01 0. -1.
         25    2    1    2    0    0  0.11073188556E+03 -0.94277133417E+02  0.27221502582E+03  0.33297901668E+03  0.12499710758E+03 0.  0.
         25    2    1    2    0    0 -0.11073188556E+03  0.94277133417E+02  0.57427650974E+03  0.60545010556E+03  0.12500636912E+03 0.  0.
          5    1    4    4  502    0 -0.73539856641E+02  0.54496163861E+02  0.13737272185E+03  0.16514023464E+03  0.47000000000E+01 0. -1.
         -5    1    4    4    0  502 -0.37192028923E+02  0.39780969556E+02  0.43690378789E+03  0.44030987091E+03  0.47000000000E+01 0. -1.
          5    1    3    3  503    0  0.11189340983E+03 -0.11238919282E+03  0.18475554100E+03  0.24353267903E+03  0.47000000000E+01 0.  1.
         -5    1    3    3    0  503 -0.11615242648E+01  0.18112059404E+02  0.87459484823E+02  0.89446337655E+02  0.47000000000E+01 0.  1.
<mgrwt>
<rscale>  0 0.19177002E+03</rscale>
<asrwt>0</asrwt>
<pdfrwt beam="1">  1        5 0.13730158E+00 0.19177153E+03</pdfrwt>
<pdfrwt beam="2">  1       -5 0.70721226E-02 0.19177153E+03</pdfrwt>
<totfact> 0.41124342E+01</totfact>
</mgrwt>
</event>
<event>
 8    1  0.3488953E-007  0.1270283E+03  0.7546771E-02  0.1231942E+00
          5   -1    0    0  501    0  0.00000000000E+00  0.00000000000E+00  0.66808505644E+02  0.66973624856E+02  0.47000000000E+01 0. -1.
         -5   -1    0    0    0  501 -0.00000000000E+00 -0.00000000000E+00 -0.26746331055E+03  0.26750460274E+03  0.47000000000E+01 0. -1.
         25    2    1    2    0    0 -0.14229197564E+01  0.22538600069E+02 -0.15292268961E+03  0.19880024452E+03  0.12500470002E+03 0.  0.
         25    2    1    2    0    0  0.14229197564E+01 -0.22538600069E+02 -0.47732115289E+02  0.13567798308E+03  0.12498058677E+03 0.  0.
          5    1    4    4  502    0  0.53237834054E+02  0.15496638922E+02 -0.44321031568E+02  0.71139698002E+02  0.47000000000E+01 0. -1.
         -5    1    4    4    0  502 -0.51814914297E+02 -0.38035238992E+02 -0.34110837214E+01  0.64538285079E+02  0.47000000000E+01 0. -1.
          5    1    3    3  503    0 -0.47400003093E+02  0.25283826431E+02 -0.14104511710E+03  0.15100280537E+03  0.47000000000E+01 0.  1.
         -5    1    3    3    0  503  0.45977083337E+02 -0.27452263614E+01 -0.11877572511E+02  0.47797439144E+02  0.47000000000E+01 0.  1.
<mgrwt>
<rscale>  0 0.12702236E+03</rscale>
<asrwt>0</asrwt>
<pdfrwt beam="1">  1        5 0.10294110E-01 0.12702830E+03</pdfrwt>
<pdfrwt beam="2">  1       -5 0.41164079E-01 0.12702830E+03</pdfrwt>
<totfact> 0.30693556E+02</totfact>
</mgrwt>
</event>
<event>
 8    1  0.3488953E-007  0.1274316E+03  0.7546771E-02  0.1231319E+00
          5   -1    0    0  501    0  0.00000000000E+00  0.00000000000E+00  0.41413185507E+02  0.41679034704E+02  0.47000000000E+01 0.  1.
         -5   -1    0    0    0  501 -0.00000000000E+00 -0.00000000000E+00 -0.39260925235E+03  0.39263738364E+03  0.47000000000E+01 0.  1.
         25    2    1    2    0    0  0.16835149395E+02 -0.18173066272E+02 -0.19124039361E+03  0.22980571327E+03  0.12499638039E+03 0.  0.
         25    2    1    2    0    0 -0.16835149395E+02  0.18173066272E+02 -0.15995567323E+03  0.20451070507E+03  0.12500051399E+03 0.  0.
          5    1    4    4  502    0  0.48290970869E+02  0.34822896708E+02 -0.67900936175E+02  0.90428309372E+02  0.47000000000E+01 0.  1.
         -5    1    4    4    0  502 -0.65126120264E+02 -0.16649830435E+02 -0.92054737059E+02  0.11408239570E+03  0.47000000000E+01 0.  1.
          5    1    3    3  503    0 -0.24173940657E+02  0.15173527681E+01  0.75656659793E+01  0.25807190239E+02  0.47000000000E+01 0. -1.
         -5    1    3    3    0  503  0.41009090052E+02 -0.19690419040E+02 -0.19880605959E+03  0.20399852303E+03  0.47000000000E+01 0. -1.
<mgrwt>
<rscale>  0 0.12743058E+03</rscale>
<asrwt>0</asrwt>
<pdfrwt beam="1">  1        5 0.63938734E-02 0.12743159E+03</pdfrwt>
<pdfrwt beam="2">  1       -5 0.60424035E-01 0.12743159E+03</pdfrwt>
<totfact> 0.30857902E+02</totfact>
</mgrwt>
</event>
<event>
 8    1  0.3488953E-007  0.1259716E+03  0.7546771E-02  0.1233560E+00
         -5   -1    0    0    0  501 -0.00000000000E+00  0.00000000000E+00  0.30151259407E+02  0.30515380447E+02  0.47000000000E+01 0.  1.
          5   -1    0    0  501    0  0.00000000000E+00 -0.00000000000E+00 -0.58577931174E+03  0.58579816666E+03  0.47000000000E+01 0.  1.
         25    2    1    2    0    0  0.42481327662E+01 -0.15034400795E+02 -0.17676810728E+03  0.21705962821E+03  0.12499535435E+03 0.  0.
         25    2    1    2    0    0 -0.42481327662E+01  0.15034400795E+02 -0.37885994506E+03  0.39925391890E+03  0.12499901578E+03 0.  0.
          5    1    4    4  502    0 -0.21360269703E+01 -0.55219914442E+02 -0.17341527817E+03  0.18206798254E+03  0.47000000000E+01 0. -1.
         -5    1    4    4    0  502 -0.21121057959E+01  0.70254315237E+02 -0.20544466689E+03  0.21718593636E+03  0.47000000000E+01 0. -1.
          5    1    3    3  503    0  0.62425761813E+02 -0.22159521945E+02 -0.10556286354E+03  0.12471418648E+03  0.47000000000E+01 0.  1.
         -5    1    3    3    0  503 -0.58177629046E+02  0.71251211496E+01 -0.71205243733E+02  0.92345441728E+02  0.47000000000E+01 0.  1.
<mgrwt>
<rscale>  0 0.12597065E+03</rscale>
<asrwt>0</asrwt>
<pdfrwt beam="2">  1        5 0.90149346E-01 0.12597156E+03</pdfrwt>
<pdfrwt beam="1">  1       -5 0.46681154E-02 0.12597156E+03</pdfrwt>
<totfact> 0.20909146E+02</totfact>
</mgrwt>
</event>
<event>
 8    1  0.3488953E-007  0.1525569E+03  0.7546771E-02  0.1197368E+00
         -5   -1    0    0    0  501 -0.00000000000E+00  0.00000000000E+00  0.45321372277E+02  0.45564424556E+02  0.47000000000E+01 0.  1.
          5   -1    0    0  501    0  0.00000000000E+00 -0.00000000000E+00 -0.70910071086E+03  0.70911628675E+03  0.47000000000E+01 0.  1.
         25    2    1    2    0    0 -0.32304492240E+02 -0.81273877055E+02 -0.13291517756E+03  0.20233084599E+03  0.12498921355E+03 0.  0.
         25    2    1    2    0    0  0.32304492240E+02  0.81273877055E+02 -0.53086416102E+03  0.55234986531E+03  0.12499837179E+03 0.  0.
          5    1    3    3  502    0 -0.35975016608E+02 -0.93682496285E+01  0.12909579209E+02  0.39632223712E+02  0.47000000000E+01 0. -1.
         -5    1    3    3    0  502  0.36705243679E+01 -0.71905627426E+02 -0.14582475677E+03  0.16269862228E+03  0.47000000000E+01 0. -1.
          5    1    4    4  503    0  0.61469188923E+02 -0.30861575485E+01 -0.25510462440E+03  0.26246608342E+03  0.47000000000E+01 0. -1.
         -5    1    4    4    0  503 -0.29164696683E+02  0.84360034603E+02 -0.27575953661E+03  0.28988378189E+03  0.47000000000E+01 0. -1.
<mgrwt>
<rscale>  0 0.15255505E+03</rscale>
<asrwt>0</asrwt>
<pdfrwt beam="2">  1        5 0.10911230E+00 0.15255693E+03</pdfrwt>
<pdfrwt beam="1">  1       -5 0.69924138E-02 0.15255693E+03</pdfrwt>
<totfact> 0.71092786E+01</totfact>
</mgrwt>
</event>
<event>
 8    1  0.3488953E-007  0.1345821E+03  0.7546771E-02  0.1220814E+00
          5   -1    0    0  501    0  0.00000000000E+00  0.00000000000E+00  0.65043841822E+03  0.65045539885E+03  0.47000000000E+01 0. -1.
         -5   -1    0    0    0  501 -0.00000000000E+00 -0.00000000000E+00 -0.31843269660E+02  0.32188255974E+02  0.47000000000E+01 0. -1.
         25    2    1    2    0    0 -0.43108758200E+02 -0.25069055644E+02  0.18586846948E+03  0.22947180167E+03  0.12499358876E+03 0.  0.
         25    2    1    2    0    0  0.43108758200E+02  0.25069055644E+02  0.43272667907E+03  0.45317185315E+03  0.12500210846E+03 0.  0.
          5    1    3    3  502    0  0.39597459781E+02 -0.20843054974E+02  0.33884459056E+02  0.56326177993E+02  0.47000000000E+01 0.  1.
         -5    1    3    3    0  502 -0.82706217981E+02 -0.42260006700E+01  0.15198401042E+03  0.17314562368E+03  0.47000000000E+01 0.  1.
          5    1    4    4  503    0 -0.16138673247E+02  0.55581702809E+02  0.28763456419E+03  0.29343741237E+03  0.47000000000E+01 0.  1.
         -5    1    4    4    0  503  0.59247431447E+02 -0.30512647165E+02  0.14509211489E+03  0.15973444078E+03  0.47000000000E+01 0.  1.
<mgrwt>
<rscale>  0 0.13458015E+03</rscale>
<asrwt>0</asrwt>
<pdfrwt beam="1">  1        5 0.10009529E+00 0.13458213E+03</pdfrwt>
<pdfrwt beam="2">  1       -5 0.49268084E-02 0.13458213E+03</pdfrwt>
<totfact> 0.15221951E+02</totfact>
</mgrwt>
</event>
<event>
 8    1  0.3488953E-007  0.1368817E+03  0.7546771E-02  0.1217588E+00
          5   -1    0    0  501    0  0.00000000000E+00  0.00000000000E+00  0.12452775515E+03  0.12461641868E+03  0.47000000000E+01 0.  1.
         -5   -1    0    0    0  501 -0.00000000000E+00 -0.00000000000E+00 -0.15515159243E+03  0.15522276455E+03  0.47000000000E+01 0.  1.
         25    2    1    2    0    0 -0.13199682661E+02 -0.54197989980E+02 -0.40089279087E+02  0.14263155744E+03  0.12499982855E+03 0.  0.
         25    2    1    2    0    0  0.13199682661E+02  0.54197989980E+02  0.94654418096E+01  0.13720762579E+03  0.12499873698E+03 0.  0.
          5    1    4    4  502    0 -0.37768843728E+02 -0.19111352075E+02 -0.13891418678E+02  0.44797219195E+02  0.47000000000E+01 0. -1.
         -5    1    4    4    0  502  0.50968526390E+02  0.73309342055E+02  0.23356860487E+02  0.92410406593E+02  0.47000000000E+01 0. -1.
          5    1    3    3  503    0 -0.49741726062E+02 -0.68436234163E+02  0.22034481527E+01  0.84762625265E+02  0.47000000000E+01 0.  1.
         -5    1    3    3    0  503  0.36542043400E+02  0.14238244183E+02 -0.42292727240E+02  0.57868932171E+02  0.47000000000E+01 0.  1.
<mgrwt>
<rscale>  0 0.13688149E+03</rscale>
<asrwt>0</asrwt>
<pdfrwt beam="1">  1        5 0.19170411E-01 0.13688174E+03</pdfrwt>
<pdfrwt beam="2">  1       -5 0.23881771E-01 0.13688174E+03</pdfrwt>
<totfact> 0.30176393E+02</totfact>
</mgrwt>
</event>
<event>
 8    1  0.3488953E-007  0.1530400E+03  0.7546771E-02  0.1196788E+00
         -5   -1    0    0    0  501 -0.00000000000E+00  0.00000000000E+00  0.40077555666E+02  0.40352205245E+02  0.47000000000E+01 0. -1.
          5   -1    0    0  501    0  0.00000000000E+00 -0.00000000000E+00 -0.58503933726E+03  0.58505821603E+03  0.47000000000E+01 0. -1.
         25    2    1    2    0    0 -0.19771460127E+02  0.86053592126E+02 -0.29464680510E+03  0.33201847409E+03  0.12499358396E+03 0.  0.
         25    2    1    2    0    0  0.19771460127E+02 -0.86053592126E+02 -0.25031497650E+03  0.29339194718E+03  0.12500046343E+03 0.  0.
          5    1    4    4  502    0 -0.28660648070E+02 -0.67442422212E+02 -0.22256370792E+03  0.23436426166E+03  0.47000000000E+01 0.  1.
         -5    1    4    4    0  502  0.48432108197E+02 -0.18611169914E+02 -0.27751268579E+02  0.59027685519E+02  0.47000000000E+01 0.  1.
          5    1    3    3  503    0  0.43300629610E+02  0.49512006827E+02 -0.21051741221E+03  0.22060383992E+03  0.47000000000E+01 0.  1.
         -5    1    3    3    0  503 -0.63072089737E+02  0.36541585299E+02 -0.84129392887E+02  0.11141463417E+03  0.47000000000E+01 0.  1.
<mgrwt>
<rscale>  0 0.15303861E+03</rscale>
<asrwt>0</asrwt>
<pdfrwt beam="2">  1        5 0.90028625E-01 0.15304002E+03</pdfrwt>
<pdfrwt beam="1">  1       -5 0.61883573E-02 0.15304002E+03</pdfrwt>
<totfact> 0.13977637E+02</totfact>
</mgrwt>
</event>
<event>
 8    1  0.3488953E-007  0.1489752E+03  0.7546771E-02  0.1201742E+00
         -5   -1    0    0    0  501 -0.00000000000E+00  0.00000000000E+00  0.13249038122E+03  0.13257371955E+03  0.47000000000E+01 0.  1.
          5   -1    0    0  501    0  0.00000000000E+00 -0.00000000000E+00 -0.17288435985E+03  0.17294823468E+03  0.47000000000E+01 0.  1.
         25    2    1    2    0    0  0.29319909716E+02  0.75567409225E+02  0.71742911162E+01  0.14914784897E+03  0.12499407969E+03 0.  0.
         25    2    1    2    0    0 -0.29319909716E+02 -0.75567409225E+02 -0.47568269745E+02  0.15637410526E+03  0.12498011869E+03 0.  0.
          5    1    3    3  502    0 -0.43036303582E+02  0.33973292342E+02 -0.23860386263E+02  0.59980964073E+02  0.47000000000E+01 0. -1.
         -5    1    3    3    0  502  0.72356213299E+02  0.41594116883E+02  0.31034677379E+02  0.89166884897E+02  0.47000000000E+01 0. -1.
          5    1    4    4  503    0 -0.30954387467E+02 -0.56548184149E+02 -0.89303134938E+02  0.11024069640E+03  0.47000000000E+01 0.  1.
         -5    1    4    4    0  503  0.16344777506E+01 -0.19019225076E+02  0.41734865193E+02  0.46133408856E+02  0.47000000000E+01 0.  1.
<mgrwt>
<rscale>  0 0.14897227E+03</rscale>
<asrwt>0</asrwt>
<pdfrwt beam="2">  1        5 0.26608918E-01 0.14897520E+03</pdfrwt>
<pdfrwt beam="1">  1       -5 0.20394460E-01 0.14897520E+03</pdfrwt>
<totfact> 0.22480568E+02</totfact>
</mgrwt>
</event>
<event>
 8    1  0.3488953E-007  0.2515484E+03  0.7546771E-02  0.1112330E+00
          5   -1    0    0  501    0  0.00000000000E+00  0.00000000000E+00  0.40307363968E+03  0.40310104069E+03  0.47000000000E+01 0. -1.
         -5   -1    0    0    0  501 -0.00000000000E+00 -0.00000000000E+00 -0.15816047470E+03  0.15823029343E+03  0.47000000000E+01 0. -1.
         25    2    1    2    0    0  0.20953004074E+03  0.61224284315E+02  0.97571448243E+02  0.26980880008E+03  0.12500140049E+03 0.  0.
         25    2    1    2    0    0 -0.20953004074E+03 -0.61224284315E+02  0.14734171674E+03  0.29152253404E+03  0.12499822160E+03 0.  0.
          5    1    4    4  502    0 -0.69363822747E+02 -0.51572716053E+02 -0.17857383214E+01  0.86581544272E+02  0.47000000000E+01 0. -1.
         -5    1    4    4    0  502 -0.14016621799E+03 -0.96515682611E+01  0.14912745506E+03  0.20494098977E+03  0.47000000000E+01 0. -1.
          5    1    3    3  503    0  0.17794629424E+03  0.97648634885E+02  0.81385186211E+02  0.21873677803E+03  0.47000000000E+01 0.  1.
         -5    1    3    3    0  503  0.31583746498E+02 -0.36424350571E+02  0.16186262032E+02  0.51072022046E+02  0.47000000000E+01 0.  1.
<mgrwt>
<rscale>  0 0.25154801E+03</rscale>
<asrwt>0</asrwt>
<pdfrwt beam="1">  1        5 0.62018807E-01 0.25154841E+03</pdfrwt>
<pdfrwt beam="2">  1       -5 0.24339859E-01 0.25154841E+03</pdfrwt>
<totfact> 0.32268052E+01</totfact>
</mgrwt>
</event>
<event>
 8    1  0.3488953E-007  0.1485742E+03  0.7546771E-02  0.1202236E+00
          5   -1    0    0  501    0  0.00000000000E+00  0.00000000000E+00  0.67613980466E+02  0.67777137403E+02  0.47000000000E+01 0.  1.
         -5   -1    0    0    0  501 -0.00000000000E+00 -0.00000000000E+00 -0.34608278358E+03  0.34611469644E+03  0.47000000000E+01 0.  1.
         25    2    1    2    0    0 -0.21878475141E+02 -0.77270359336E+02 -0.18919585010E+03  0.24055995503E+03  0.12499858464E+03 0.  0.
         25    2    1    2    0    0  0.21878475141E+02  0.77270359336E+02 -0.89272953018E+02  0.17333187881E+03  0.12499961586E+03 0.  0.
          5    1    3    3  502    0 -0.44155088588E+02 -0.98012897276E+02 -0.17759301855E+03  0.20764770675E+03  0.47000000000E+01 0.  1.
         -5    1    3    3    0  502  0.22276613447E+02  0.20742537940E+02 -0.11602831547E+02  0.32912248279E+02  0.47000000000E+01 0.  1.
          5    1    4    4  503    0 -0.35379401802E+02  0.83335151672E+02 -0.50731356393E+02  0.10388556251E+03  0.47000000000E+01 0. -1.
         -5    1    4    4    0  503  0.57257876943E+02 -0.60647923358E+01 -0.38541596625E+02  0.69446316307E+02  0.47000000000E+01 0. -1.
<mgrwt>
<rscale>  0 0.14857394E+03</rscale>
<asrwt>0</asrwt>
<pdfrwt beam="1">  1        5 0.10417156E-01 0.14857416E+03</pdfrwt>
<pdfrwt beam="2">  1       -5 0.53258509E-01 0.14857416E+03</pdfrwt>
<totfact> 0.18480514E+02</totfact>
</mgrwt>
</event>
<event>
 8    1  0.3488953E-007  0.1255626E+03  0.7546771E-02  0.1234193E+00
          5   -1    0    0  501    0  0.00000000000E+00  0.00000000000E+00  0.19129034450E+03  0.19134807524E+03  0.47000000000E+01 0.  1.
         -5   -1    0    0    0  501 -0.00000000000E+00 -0.00000000000E+00 -0.97445938277E+02  0.97559217333E+02  0.47000000000E+01 0.  1.
         25    2    1    2    0    0  0.27259036676E+01  0.11594971687E+02 -0.10011119713E+02  0.12596104565E+03  0.12499635428E+03 0.  0.
         25    2    1    2    0    0 -0.27259036676E+01 -0.11594971687E+02  0.10385552593E+03  0.16294624692E+03  0.12499454068E+03 0.  0.
          5    1    4    4  502    0 -0.70635150198E+00 -0.28360519119E+02 -0.21792929896E+02  0.36081016762E+02  0.47000000000E+01 0. -1.
         -5    1    4    4    0  502 -0.20195521656E+01  0.16765547432E+02  0.12564845583E+03  0.12686523016E+03  0.47000000000E+01 0. -1.
          5    1    3    3  503    0 -0.32129317211E+02 -0.35020669856E+02  0.28869983445E+02  0.55805969983E+02  0.47000000000E+01 0.  1.
         -5    1    3    3    0  503  0.34855220879E+02  0.46615641544E+02 -0.38881103158E+02  0.70155075667E+02  0.47000000000E+01 0.  1.
<mgrwt>
<rscale>  0 0.12556213E+03</rscale>
<asrwt>0</asrwt>
<pdfrwt beam="1">  1        5 0.29442438E-01 0.12556258E+03</pdfrwt>
<pdfrwt beam="2">  1       -5 0.15004838E-01 0.12556258E+03</pdfrwt>
<totfact> 0.30604673E+02</totfact>
</mgrwt>
</event>
