<event>
 8    1  0.9569852E-006  0.2974639E+03  0.7546771E-02  0.1086515E+00
         21   -1    0    0  504  503  0.00000000000E+00  0.00000000000E+00  0.11316664034E+03  0.11316664034E+03  0.00000000000E+00 0.  1.
         21   -1    0    0  503  504 -0.00000000000E+00 -0.00000000000E+00 -0.19547454351E+03  0.19547454351E+03  0.00000000000E+00 0.  1.
         25    2    1    2    0    0 -0.92124371268E+01  0.68081920083E+02  0.25931086108E+01  0.14266060004E+03  0.12500122300E+03 0.  0.
         25    2    1    2    0    0  0.92124371268E+01 -0.68081920083E+02 -0.84901011785E+02  0.16598058381E+03  0.12498542138E+03 0.  0.
          5    1    3    3  501    0 -0.66650845939E+02  0.39127844083E+02  0.85025161545E+01  0.77895482718E+02  0.47000000000E+01 0. -1.
         -5    1    3    3    0  501  0.57438408812E+02  0.28954076000E+02 -0.59094075438E+01  0.64765117320E+02  0.47000000000E+01 0. -1.
          5    1    4    4  502    0  0.54985282031E+02 -0.10434571856E+02 -0.71652324093E+02  0.91040689133E+02  0.47000000000E+01 0.  1.
         -5    1    4    4    0  502 -0.45772844904E+02 -0.57647348227E+02 -0.13248687692E+02  0.74939894674E+02  0.47000000000E+01 0.  1.
<mgrwt>
<rscale>  0 0.29746393E+03</rscale>
<asrwt>0</asrwt>
<pdfrwt beam="1">  1       21 0.17410252E-01 0.29746393E+03</pdfrwt>
<pdfrwt beam="2">  1       21 0.30073007E-01 0.29746393E+03</pdfrwt>
<totfact> 0.30917711E+05</totfact>
</mgrwt>
</event>
<event>
 8    1  0.9569852E-006  0.2736662E+03  0.7546771E-02  0.1099199E+00
         21   -1    0    0  504  503  0.00000000000E+00  0.00000000000E+00  0.43743377150E+02  0.43743377150E+02  0.00000000000E+00 0.  1.
         21   -1    0    0  503  504 -0.00000000000E+00 -0.00000000000E+00 -0.42802593616E+03  0.42802593616E+03  0.00000000000E+00 0.  1.
         25    2    1    2    0    0  0.23303003417E+02  0.13326640392E+02 -0.10808639165E+03  0.16741639503E+03  0.12499980781E+03 0.  0.
         25    2    1    2    0    0 -0.23303003417E+02 -0.13326640392E+02 -0.27619616736E+03  0.30435291828E+03  0.12500298672E+03 0.  0.
          5    1    3    3  501    0  0.68865157363E+01  0.39998170220E+02 -0.12500369659E+03  0.13151156558E+03  0.47000000000E+01 0.  1.
         -5    1    3    3    0  501  0.16416487681E+02 -0.26671529828E+02  0.16917304944E+02  0.35904829448E+02  0.47000000000E+01 0.  1.
          5    1    4    4  502    0 -0.58239041283E+02  0.96165623815E+01 -0.60730994651E+02  0.84821034614E+02  0.47000000000E+01 0.  1.
         -5    1    4    4    0  502  0.34936037866E+02 -0.22943202773E+02 -0.21546517271E+03  0.21953188367E+03  0.47000000000E+01 0.  1.
<mgrwt>
<rscale>  0 0.27366622E+03</rscale>
<asrwt>0</asrwt>
<pdfrwt beam="1">  1       21 0.67297500E-02 0.27366622E+03</pdfrwt>
<pdfrwt beam="2">  1       21 0.65850148E-01 0.27366622E+03</pdfrwt>
<totfact> 0.33634456E+05</totfact>
</mgrwt>
</event>
<event>
 8    1  0.9569852E-006  0.4347045E+03  0.7546771E-02  0.1032384E+00
         21   -1    0    0  504  503  0.00000000000E+00  0.00000000000E+00  0.92718031204E+02  0.92718031204E+02  0.00000000000E+00 0. -1.
         21   -1    0    0  503  504 -0.00000000000E+00 -0.00000000000E+00 -0.50952327848E+03  0.50952327848E+03  0.00000000000E+00 0. -1.
         25    2    1    2    0    0 -0.53205969438E+01 -0.16456124716E+03 -0.11538498415E+03  0.23674310198E+03  0.12499955580E+03 0.  0.
         25    2    1    2    0    0  0.53205969438E+01  0.16456124716E+03 -0.30142026313E+03  0.36549820770E+03  0.12500420789E+03 0.  0.
          5    1    3    3  501    0 -0.24843740238E+02  0.10017657039E+02 -0.32701710734E+02  0.42533007964E+02  0.47000000000E+01 0. -1.
         -5    1    3    3    0  501  0.19523143294E+02 -0.17457890420E+03 -0.82683273412E+02  0.19421009402E+03  0.47000000000E+01 0. -1.
          5    1    4    4  502    0 -0.13851909077E+01  0.57925853186E+02 -0.22917753873E+03  0.23643552499E+03  0.47000000000E+01 0.  1.
         -5    1    4    4    0  502  0.67057878515E+01  0.10663539398E+03 -0.72242724400E+02  0.12906268271E+03  0.47000000000E+01 0.  1.
<mgrwt>
<rscale>  0 0.43470448E+03</rscale>
<asrwt>0</asrwt>
<pdfrwt beam="1">  1       21 0.14264313E-01 0.43470448E+03</pdfrwt>
<pdfrwt beam="2">  1       21 0.78388197E-01 0.43470448E+03</pdfrwt>
<totfact> 0.57220650E+04</totfact>
</mgrwt>
</event>
<event>
 8    1  0.9569852E-006  0.3011265E+03  0.7546771E-02  0.1084679E+00
         21   -1    0    0  504  503  0.00000000000E+00  0.00000000000E+00  0.20801783490E+03  0.20801783490E+03  0.00000000000E+00 0.  1.
         21   -1    0    0  503  504 -0.00000000000E+00 -0.00000000000E+00 -0.10897760874E+03  0.10897760874E+03  0.00000000000E+00 0.  1.
         25    2    1    2    0    0 -0.52214796104E+01  0.66047463201E+02  0.10375879860E+03  0.17544014967E+03  0.12499530625E+03 0.  0.
         25    2    1    2    0    0  0.52214796104E+01 -0.66047463201E+02 -0.47185724456E+01  0.14155529397E+03  0.12500442025E+03 0.  0.
          5    1    3    3  501    0 -0.32855228729E+02  0.32287084433E+02  0.12002121301E+03  0.12864331871E+03  0.47000000000E+01 0.  1.
         -5    1    3    3    0  501  0.27633749119E+02  0.33760378768E+02 -0.16262414414E+02  0.46796830956E+02  0.47000000000E+01 0.  1.
          5    1    4    4  502    0 -0.42695487503E+02  0.15965275764E+02  0.43092888838E+01  0.46026673289E+02  0.47000000000E+01 0.  1.
         -5    1    4    4    0  502  0.47916967114E+02 -0.82012738965E+02 -0.90278613294E+01  0.95528620686E+02  0.47000000000E+01 0.  1.
<mgrwt>
<rscale>  0 0.30112646E+03</rscale>
<asrwt>0</asrwt>
<pdfrwt beam="1">  1       21 0.32002744E-01 0.30112646E+03</pdfrwt>
<pdfrwt beam="2">  1       21 0.16765786E-01 0.30112646E+03</pdfrwt>
<totfact> 0.29305994E+05</totfact>
</mgrwt>
</event>
<event>
 8    1  0.9569852E-006  0.2812913E+03  0.7546771E-02  0.1094986E+00
         21   -1    0    0  504  503  0.00000000000E+00  0.00000000000E+00  0.15202992434E+03  0.15202992434E+03  0.00000000000E+00 0.  1.
         21   -1    0    0  503  504 -0.00000000000E+00 -0.00000000000E+00 -0.13011387306E+03  0.13011387306E+03  0.00000000000E+00 0.  1.
         25    2    1    2    0    0  0.52700908206E+02 -0.22943455770E+02 -0.18318664539E+02  0.13879489194E+03  0.12499864267E+03 0.  0.
         25    2    1    2    0    0 -0.52700908206E+02  0.22943455770E+02  0.40234715824E+02  0.14334890546E+03  0.12500515370E+03 0.  0.
          5    1    3    3  501    0 -0.19023773580E+02 -0.44858714128E+02 -0.37000443291E+02  0.61362292967E+02  0.47000000000E+01 0.  1.
         -5    1    3    3    0  501  0.71724681785E+02  0.21915258358E+02  0.18681778752E+02  0.77432598971E+02  0.47000000000E+01 0.  1.
          5    1    4    4  502    0 -0.14265537631E+02 -0.46910192326E+02 -0.82119761283E+01  0.49935941564E+02  0.47000000000E+01 0. -1.
         -5    1    4    4    0  502 -0.38435370575E+02  0.69853648096E+02  0.48446691952E+02  0.93412963901E+02  0.47000000000E+01 0. -1.
<mgrwt>
<rscale>  0 0.28129132E+03</rscale>
<asrwt>0</asrwt>
<pdfrwt beam="1">  1       21 0.23389219E-01 0.28129132E+03</pdfrwt>
<pdfrwt beam="2">  1       21 0.20017519E-01 0.28129132E+03</pdfrwt>
<totfact> 0.38889693E+05</totfact>
</mgrwt>
</event>
<event>
 8    1  0.9569852E-006  0.3440371E+03  0.7546771E-02  0.1065089E+00
         21   -1    0    0  504  503  0.00000000000E+00  0.00000000000E+00  0.31242026686E+03  0.31242026686E+03  0.00000000000E+00 0. -1.
         21   -1    0    0  503  504 -0.00000000000E+00 -0.00000000000E+00 -0.94713361957E+02  0.94713361957E+02  0.00000000000E+00 0. -1.
         25    2    1    2    0    0  0.29987859917E+02  0.84696005993E+02  0.19970424153E+03  0.25214888562E+03  0.12499836503E+03 0.  0.
         25    2    1    2    0    0 -0.29987859917E+02 -0.84696005993E+02  0.18002663381E+02  0.15498474320E+03  0.12499395811E+03 0.  0.
          5    1    3    3  501    0  0.44043386282E+02  0.83320544767E+02  0.21250733020E+03  0.23251578106E+03  0.47000000000E+01 0.  1.
         -5    1    3    3    0  501 -0.14055526365E+02  0.13754612257E+01 -0.12803088671E+02  0.19633104556E+02  0.47000000000E+01 0.  1.
          5    1    4    4  502    0 -0.62876216454E+02 -0.39334227172E+02  0.50681270402E+02  0.89951549138E+02  0.47000000000E+01 0.  1.
         -5    1    4    4    0  502  0.32888356537E+02 -0.45361778821E+02 -0.32678607021E+02  0.65033194065E+02  0.47000000000E+01 0.  1.
<mgrwt>
<rscale>  0 0.34403706E+03</rscale>
<asrwt>0</asrwt>
<pdfrwt beam="1">  1       21 0.48064656E-01 0.34403706E+03</pdfrwt>
<pdfrwt beam="2">  1       21 0.14571287E-01 0.34403706E+03</pdfrwt>
<totfact> 0.16418577E+05</totfact>
</mgrwt>
</event>
<event>
 8    1  0.9569852E-006  0.3066362E+03  0.7546771E-02  0.1081970E+00
         21   -1    0    0  504  503  0.00000000000E+00  0.00000000000E+00  0.15604210134E+02  0.15604210134E+02  0.00000000000E+00 0.  1.
         21   -1    0    0  503  504 -0.00000000000E+00 -0.00000000000E+00 -0.15064162958E+04  0.15064162958E+04  0.00000000000E+00 0.  1.
         25    2    1    2    0    0  0.36822740885E+02  0.76599390026E+02 -0.61791646647E+03  0.63613406562E+03  0.12498963603E+03 0.  0.
         25    2    1    2    0    0 -0.36822740885E+02 -0.76599390026E+02 -0.87289561924E+03  0.88588644035E+03  0.12499856926E+03 0.  0.
          5    1    3    3  501    0  0.42211374041E+02  0.10950594639E+03 -0.48447058610E+03  0.49850495603E+03  0.47000000000E+01 0.  1.
         -5    1    3    3    0  501 -0.53886331558E+01 -0.32906556366E+02 -0.13344588038E+03  0.13762910960E+03  0.47000000000E+01 0.  1.
          5    1    4    4  502    0  0.24793865288E+02 -0.78218612217E+02 -0.35909503744E+03  0.36838054097E+03  0.47000000000E+01 0. -1.
         -5    1    4    4    0  502 -0.61616606173E+02  0.16192221907E+01 -0.51380058180E+03  0.51750589938E+03  0.47000000000E+01 0. -1.
<mgrwt>
<rscale>  0 0.30663618E+03</rscale>
<asrwt>0</asrwt>
<pdfrwt beam="1">  1       21 0.24006475E-02 0.30663618E+03</pdfrwt>
<pdfrwt beam="2">  1       21 0.23175638E+00 0.30663618E+03</pdfrwt>
<totfact> 0.73184066E+04</totfact>
</mgrwt>
</event>
<event>
 8    1  0.9569852E-006  0.2954401E+03  0.7546771E-02  0.1087543E+00
         21   -1    0    0  504  503  0.00000000000E+00  0.00000000000E+00  0.20343567888E+03  0.20343567888E+03  0.00000000000E+00 0. -1.
         21   -1    0    0  503  504 -0.00000000000E+00 -0.00000000000E+00 -0.10726346693E+03  0.10726346693E+03  0.00000000000E+00 0. -1.
         25    2    1    2    0    0  0.37409086305E+02 -0.15110936423E+02  0.11916800920E+03  0.17735144454E+03  0.12499896130E+03 0.  0.
         25    2    1    2    0    0 -0.37409086305E+02  0.15110936423E+02 -0.22995797249E+02  0.13334770126E+03  0.12500009041E+03 0.  0.
          5    1    3    3  501    0  0.50741326897E+02  0.96744997671E+01  0.13506944527E+03  0.14468629254E+03  0.47000000000E+01 0.  1.
         -5    1    3    3    0  501 -0.13332240592E+02 -0.24785436190E+02 -0.15901436073E+02  0.32665152005E+02  0.47000000000E+01 0.  1.
          5    1    4    4  502    0 -0.79555981421E+02  0.71734826878E+01  0.77167752683E+01  0.80388131302E+02  0.47000000000E+01 0. -1.
         -5    1    4    4    0  502  0.42146895116E+02  0.79374537352E+01 -0.30712572518E+02  0.52959569960E+02  0.47000000000E+01 0. -1.
<mgrwt>
<rscale>  0 0.29544012E+03</rscale>
<asrwt>0</asrwt>
<pdfrwt beam="1">  1       21 0.31297797E-01 0.29544012E+03</pdfrwt>
<pdfrwt beam="2">  1       21 0.16502072E-01 0.29544012E+03</pdfrwt>
<totfact> 0.31577103E+05</totfact>
</mgrwt>
</event>
<event>
 8    1  0.9569852E-006  0.2627137E+03  0.7546771E-02  0.1105524E+00
         21   -1    0    0  504  503  0.00000000000E+00  0.00000000000E+00  0.13229269231E+03  0.13229269231E+03  0.00000000000E+00 0. -1.
         21   -1    0    0  503  504 -0.00000000000E+00 -0.00000000000E+00 -0.13042759813E+03  0.13042759813E+03  0.00000000000E+00 0. -1.
         25    2    1    2    0    0  0.17029645764E+02  0.25467176470E+02  0.27229948130E+02  0.13154714691E+03  0.12499838348E+03 0.  0.
         25    2    1    2    0    0 -0.17029645764E+02 -0.25467176470E+02 -0.25364853949E+02  0.13117314353E+03  0.12499772740E+03 0.  0.
          5    1    3    3  501    0 -0.35715522952E+02 -0.15309530832E+02  0.47647513542E+02  0.61663245623E+02  0.47000000000E+01 0.  1.
         -5    1    3    3    0  501  0.52745168715E+02  0.40776707301E+02 -0.20417565412E+02  0.69883901283E+02  0.47000000000E+01 0.  1.
          5    1    4    4  502    0 -0.89945556354E+01  0.16402433599E-01  0.50028181550E+02  0.51047147318E+02  0.47000000000E+01 0.  1.
         -5    1    4    4    0  502 -0.80350901285E+01 -0.25483578903E+02 -0.75393035499E+02  0.80125996211E+02  0.47000000000E+01 0.  1.
<mgrwt>
<rscale>  0 0.26271367E+03</rscale>
<asrwt>0</asrwt>
<pdfrwt beam="1">  1       21 0.20352722E-01 0.26271367E+03</pdfrwt>
<pdfrwt beam="2">  1       21 0.20065784E-01 0.26271367E+03</pdfrwt>
<totfact> 0.50576090E+05</totfact>
</mgrwt>
</event>
<event>
 8    1  0.9569852E-006  0.3099866E+03  0.7546771E-02  0.1080352E+00
         21   -1    0    0  504  503  0.00000000000E+00  0.00000000000E+00  0.59541951244E+03  0.59541951244E+03  0.00000000000E+00 0. -1.
         21   -1    0    0  503  504 -0.00000000000E+00 -0.00000000000E+00 -0.40346225943E+02  0.40346225943E+02  0.00000000000E+00 0. -1.
         25    2    1    2    0    0  0.60457094708E+02 -0.36326274523E+02  0.39754192264E+03  0.42265686221E+03  0.12499833756E+03 0.  0.
         25    2    1    2    0    0 -0.60457094708E+02  0.36326274523E+02  0.15753136386E+03  0.21310887618E+03  0.12499841593E+03 0.  0.
          5    1    3    3  501    0  0.30527634830E+02 -0.40248031230E+02  0.42162156811E+02  0.65966491291E+02  0.47000000000E+01 0.  1.
         -5    1    3    3    0  501  0.29929459877E+02  0.39217567073E+01  0.35537976583E+03  0.35669037092E+03  0.47000000000E+01 0.  1.
          5    1    4    4  502    0  0.11991789458E+02  0.30510684171E+02 -0.63957416585E+01  0.33729814324E+02  0.47000000000E+01 0. -1.
         -5    1    4    4    0  502 -0.72448884166E+02  0.58155903525E+01  0.16392710552E+03  0.17937906185E+03  0.47000000000E+01 0. -1.
<mgrwt>
<rscale>  0 0.30998665E+03</rscale>
<asrwt>0</asrwt>
<pdfrwt beam="1">  1       21 0.91602996E-01 0.30998665E+03</pdfrwt>
<pdfrwt beam="2">  1       21 0.62071121E-02 0.30998665E+03</pdfrwt>
<totfact> 0.18118764E+05</totfact>
</mgrwt>
</event>
<event>
 8    1  0.9569852E-006  0.8799045E+03  0.7546771E-02  0.9451056E-01
         21   -1    0    0  504  503  0.00000000000E+00  0.00000000000E+00  0.39465067544E+03  0.39465067544E+03  0.00000000000E+00 0. -1.
         21   -1    0    0  503  504 -0.00000000000E+00 -0.00000000000E+00 -0.49045397617E+03  0.49045397617E+03  0.00000000000E+00 0. -1.
         25    2    1    2    0    0 -0.30210933503E+03  0.27017155071E+03  0.69698936337E+02  0.42982515767E+03  0.12501602823E+03 0.  0.
         25    2    1    2    0    0  0.30210933503E+03 -0.27017155071E+03 -0.16550223706E+03  0.45527949394E+03  0.12500283998E+03 0.  0.
          5    1    3    3  501    0 -0.21582818195E+03  0.12747597985E+03  0.45857605028E+01  0.25074897559E+03  0.47000000000E+01 0.  1.
         -5    1    3    3    0  501 -0.86281153080E+02  0.14269557086E+03  0.65113175834E+02  0.17907618208E+03  0.47000000000E+01 0.  1.
          5    1    4    4  502    0  0.18368574013E+03 -0.23821752382E+03 -0.10708591940E+03  0.31933919884E+03  0.47000000000E+01 0. -1.
         -5    1    4    4    0  502  0.11842359489E+03 -0.31954026899E+02 -0.58416317658E+02  0.13594029510E+03  0.47000000000E+01 0. -1.
<mgrwt>
<rscale>  0 0.87990452E+03</rscale>
<asrwt>0</asrwt>
<pdfrwt beam="1">  1       21 0.60715489E-01 0.87990452E+03</pdfrwt>
<pdfrwt beam="2">  1       21 0.75454458E-01 0.87990452E+03</pdfrwt>
<totfact> 0.31231450E+03</totfact>
</mgrwt>
</event>
<event>
 8    1  0.9569852E-006  0.2926084E+03  0.7546771E-02  0.1088995E+00
         21   -1    0    0  504  503  0.00000000000E+00  0.00000000000E+00  0.63740951501E+02  0.63740951501E+02  0.00000000000E+00 0. -1.
         21   -1    0    0  503  504 -0.00000000000E+00 -0.00000000000E+00 -0.33581104921E+03  0.33581104921E+03  0.00000000000E+00 0. -1.
         25    2    1    2    0    0 -0.41477095542E+02  0.31721502253E+02 -0.21148672836E+03  0.25115310793E+03  0.12499857674E+03 0.  0.
         25    2    1    2    0    0  0.41477095542E+02 -0.31721502253E+02 -0.60583369346E+02  0.14839889279E+03  0.12500113431E+03 0.  0.
          5    1    3    3  501    0  0.53247946835E+01  0.56203753629E+02 -0.18171296667E+03  0.19033892828E+03  0.47000000000E+01 0.  1.
         -5    1    3    3    0  501 -0.46801890225E+02 -0.24482251377E+02 -0.29773761690E+02  0.60814179648E+02  0.47000000000E+01 0.  1.
          5    1    4    4  502    0  0.83223773679E+02 -0.28687153535E+02 -0.59329844114E+02  0.10626038625E+03  0.47000000000E+01 0. -1.
         -5    1    4    4    0  502 -0.41746678138E+02 -0.30343487178E+01 -0.12535252321E+01  0.42138506537E+02  0.47000000000E+01 0. -1.
<mgrwt>
<rscale>  0 0.29260838E+03</rscale>
<asrwt>0</asrwt>
<pdfrwt beam="1">  1       21 0.98063003E-02 0.29260838E+03</pdfrwt>
<pdfrwt beam="2">  1       21 0.51663238E-01 0.29260838E+03</pdfrwt>
<totfact> 0.29177391E+05</totfact>
</mgrwt>
</event>
<event>
 8    1  0.9569852E-006  0.3275300E+03  0.7546771E-02  0.1072235E+00
         21   -1    0    0  504  503  0.00000000000E+00  0.00000000000E+00  0.23970201958E+03  0.23970201958E+03  0.00000000000E+00 0. -1.
         21   -1    0    0  503  504 -0.00000000000E+00 -0.00000000000E+00 -0.11188465278E+03  0.11188465278E+03  0.00000000000E+00 0. -1.
         25    2    1    2    0    0 -0.45815481281E+02  0.57111499238E+02 -0.18073081245E+02  0.14599052299E+03  0.12500325943E+03 0.  0.
         25    2    1    2    0    0  0.45815481281E+02 -0.57111499238E+02  0.14589044804E+03  0.20559614937E+03  0.12499988855E+03 0.  0.
          5    1    3    3  501    0 -0.47854155412E+02 -0.30604374666E+02 -0.65517056749E+01  0.57373014442E+02  0.47000000000E+01 0. -1.
         -5    1    3    3    0  501  0.20386741313E+01  0.87715873904E+02 -0.11521375570E+02  0.88617508552E+02  0.47000000000E+01 0. -1.
          5    1    4    4  502    0  0.72882242224E+02 -0.78918583820E+02  0.12452988346E+03  0.16452886062E+03  0.47000000000E+01 0.  1.
         -5    1    4    4    0  502 -0.27066760943E+02  0.21807084582E+02  0.21360564583E+02  0.41067288749E+02  0.47000000000E+01 0.  1.
<mgrwt>
<rscale>  0 0.32753001E+03</rscale>
<asrwt>0</asrwt>
<pdfrwt beam="1">  1       21 0.36877234E-01 0.32753001E+03</pdfrwt>
<pdfrwt beam="2">  1       21 0.17213024E-01 0.32753001E+03</pdfrwt>
<totfact> 0.20895844E+05</totfact>
</mgrwt>
</event>
<event>
 8    1  0.9569852E-006  0.3473688E+03  0.7546771E-02  0.1063700E+00
         21   -1    0    0  504  503  0.00000000000E+00  0.00000000000E+00  0.49480690645E+03  0.49480690645E+03  0.00000000000E+00 0.  1.
         21   -1    0    0  503  504 -0.00000000000E+00 -0.00000000000E+00 -0.60965735652E+02  0.60965735652E+02  0.00000000000E+00 0.  1.
         25    2    1    2    0    0  0.85408328917E+02 -0.72162757819E+02  0.14466910368E+03  0.22148616273E+03  0.12499969782E+03 0.  0.
         25    2    1    2    0    0 -0.85408328917E+02  0.72162757819E+02  0.28917206713E+03  0.33428647938E+03  0.12499967850E+03 0.  0.
          5    1    3    3  501    0  0.10249561038E+01 -0.14224246428E+02  0.11334897304E+03  0.11433922953E+03  0.47000000000E+01 0.  1.
         -5    1    3    3    0  501  0.84383372813E+02 -0.57938511391E+02  0.31320130639E+02  0.10714693319E+03  0.47000000000E+01 0.  1.
          5    1    4    4  502    0  0.59042423740E+01  0.24347442699E+02  0.18820489473E+03  0.18992322250E+03  0.47000000000E+01 0.  1.
         -5    1    4    4    0  502 -0.91312571291E+02  0.47815315120E+02  0.10096717240E+03  0.14436325688E+03  0.47000000000E+01 0.  1.
<mgrwt>
<rscale>  0 0.34736878E+03</rscale>
<asrwt>0</asrwt>
<pdfrwt beam="1">  1       21 0.76124137E-01 0.34736878E+03</pdfrwt>
<pdfrwt beam="2">  1       21 0.93793443E-02 0.34736878E+03</pdfrwt>
<totfact> 0.13345106E+05</totfact>
</mgrwt>
</event>
<event>
 8    1  0.9569852E-006  0.2939285E+03  0.7546771E-02  0.1088316E+00
         21   -1    0    0  504  503  0.00000000000E+00  0.00000000000E+00  0.38321321119E+03  0.38321321119E+03  0.00000000000E+00 0. -1.
         21   -1    0    0  503  504 -0.00000000000E+00 -0.00000000000E+00 -0.56361569161E+02  0.56361569161E+02  0.00000000000E+00 0. -1.
         25    2    1    2    0    0  0.74093434438E+02  0.20428564332E+02  0.15130325769E+03  0.21077345668E+03  0.12500244392E+03 0.  0.
         25    2    1    2    0    0 -0.74093434438E+02 -0.20428564332E+02  0.17554838434E+03  0.22880132367E+03  0.12500258879E+03 0.  0.
          5    1    3    3  501    0  0.25622744079E+02  0.54567662073E+02  0.15355431529E+02  0.62386168625E+02  0.47000000000E+01 0. -1.
         -5    1    3    3    0  501  0.48470690358E+02 -0.34139097741E+02  0.13594782616E+03  0.14838728805E+03  0.47000000000E+01 0. -1.
          5    1    4    4  502    0 -0.16577448055E+02 -0.32555868922E+02 -0.65329327371E+01  0.37409431905E+02  0.47000000000E+01 0. -1.
         -5    1    4    4    0  502 -0.57515986382E+02  0.12127304591E+02  0.18208131708E+03  0.19139189177E+03  0.47000000000E+01 0. -1.
<mgrwt>
<rscale>  0 0.29392855E+03</rscale>
<asrwt>0</asrwt>
<pdfrwt beam="1">  1       21 0.58955877E-01 0.29392855E+03</pdfrwt>
<pdfrwt beam="2">  1       21 0.86710109E-02 0.29392855E+03</pdfrwt>
<totfact> 0.27353428E+05</totfact>
</mgrwt>
</event>
<event>
 8    1  0.9569852E-006  0.2852565E+03  0.7546771E-02  0.1092852E+00
         21   -1    0    0  504  503  0.00000000000E+00  0.00000000000E+00  0.19282428468E+03  0.19282428468E+03  0.00000000000E+00 0.  1.
         21   -1    0    0  503  504 -0.00000000000E+00 -0.00000000000E+00 -0.10549927620E+03  0.10549927620E+03  0.00000000000E+00 0.  1.
         25    2    1    2    0    0  0.33103044547E+02  0.13619291030E+02 -0.17651372998E+02  0.13121020603E+03  0.12499300201E+03 0.  0.
         25    2    1    2    0    0 -0.33103044547E+02 -0.13619291030E+02  0.10497638148E+03  0.16711335485E+03  0.12500214419E+03 0.  0.
          5    1    3    3  501    0 -0.18589977699E+02 -0.45024017598E+02  0.62360520192E+01  0.49332826559E+02  0.47000000000E+01 0.  1.
         -5    1    3    3    0  501  0.51693022246E+02  0.58643308627E+02 -0.23887425017E+02  0.81877379474E+02  0.47000000000E+01 0.  1.
          5    1    4    4  502    0 -0.44597353949E+02 -0.13046105659E+02  0.13056405589E+03  0.13866574033E+03  0.47000000000E+01 0. -1.
         -5    1    4    4    0  502  0.11494309402E+02 -0.57318537088E+00 -0.25587674405E+02  0.28447614514E+02  0.47000000000E+01 0. -1.
<mgrwt>
<rscale>  0 0.28525653E+03</rscale>
<asrwt>0</asrwt>
<pdfrwt beam="1">  1       21 0.29665275E-01 0.28525653E+03</pdfrwt>
<pdfrwt beam="2">  1       21 0.16230658E-01 0.28525653E+03</pdfrwt>
<totfact> 0.36258956E+05</totfact>
</mgrwt>
</event>
<event>
 8    1  0.9569852E-006  0.4045641E+03  0.7546771E-02  0.1042211E+00
         21   -1    0    0  504  503  0.00000000000E+00  0.00000000000E+00  0.25205447497E+03  0.25205447497E+03  0.00000000000E+00 0.  1.
         21   -1    0    0  503  504 -0.00000000000E+00 -0.00000000000E+00 -0.16233804924E+03  0.16233804924E+03  0.00000000000E+00 0.  1.
         25    2    1    2    0    0  0.80886010528E+02  0.12667839568E+03 -0.83880908572E+01  0.19566927606E+03  0.12500457150E+03 0.  0.
         25    2    1    2    0    0 -0.80886010528E+02 -0.12667839568E+03  0.98104516589E+02  0.21872324814E+03  0.12500160187E+03 0.  0.
          5    1    3    3  501    0  0.10996066280E+03  0.10362619356E+03 -0.27529879727E+02  0.15365454641E+03  0.47000000000E+01 0. -1.
         -5    1    3    3    0  501 -0.29074652267E+02  0.23052202121E+02  0.19141788870E+02  0.42014729658E+02  0.47000000000E+01 0. -1.
          5    1    4    4  502    0 -0.43511880426E+02 -0.14033094059E+03  0.48141668936E+02  0.15467956204E+03  0.47000000000E+01 0. -1.
         -5    1    4    4    0  502 -0.37374130103E+02  0.13652544913E+02  0.49962847653E+02  0.64043686099E+02  0.47000000000E+01 0. -1.
<mgrwt>
<rscale>  0 0.40456412E+03</rscale>
<asrwt>0</asrwt>
<pdfrwt beam="1">  1       21 0.38777612E-01 0.40456412E+03</pdfrwt>
<pdfrwt beam="2">  1       21 0.24975085E-01 0.40456412E+03</pdfrwt>
<totfact> 0.91476983E+04</totfact>
</mgrwt>
</event>
<event>
 8    1  0.9569852E-006  0.2590847E+03  0.7546771E-02  0.1107694E+00
         21   -1    0    0  504  503  0.00000000000E+00  0.00000000000E+00  0.30250069351E+03  0.30250069351E+03  0.00000000000E+00 0.  1.
         21   -1    0    0  503  504 -0.00000000000E+00 -0.00000000000E+00 -0.55474993837E+02  0.55474993837E+02  0.00000000000E+00 0.  1.
         25    2    1    2    0    0  0.16203708369E+02 -0.18171638688E+02  0.15633377661E+03  0.20163696237E+03  0.12499778505E+03 0.  0.
         25    2    1    2    0    0 -0.16203708369E+02  0.18171638688E+02  0.90691923064E+02  0.15633872497E+03  0.12499601354E+03 0.  0.
          5    1    3    3  501    0  0.47599720302E+02  0.38601613354E+02  0.64454396833E+02  0.89063332509E+02  0.47000000000E+01 0.  1.
         -5    1    3    3    0  501 -0.31396011934E+02 -0.56773252042E+02  0.91879379773E+02  0.11257362986E+03  0.47000000000E+01 0.  1.
          5    1    4    4  502    0 -0.11485713643E+02 -0.10908684089E+02 -0.28786806087E+02  0.33191734078E+02  0.47000000000E+01 0.  1.
         -5    1    4    4    0  502 -0.47179947260E+01  0.29080322777E+02  0.11947872915E+03  0.12314699090E+03  0.47000000000E+01 0.  1.
<mgrwt>
<rscale>  0 0.25908473E+03</rscale>
<asrwt>0</asrwt>
<pdfrwt beam="1">  1       21 0.46538567E-01 0.25908473E+03</pdfrwt>
<pdfrwt beam="2">  1       21 0.85346146E-02 0.25908473E+03</pdfrwt>
<totfact> 0.46755209E+05</totfact>
</mgrwt>
</event>
<event>
 8    1  0.9569852E-006  0.3605999E+03  0.7546771E-02  0.1058347E+00
         21   -1    0    0  504  503  0.00000000000E+00  0.00000000000E+00  0.20340268721E+02  0.20340268721E+02  0.00000000000E+00 0.  1.
         21   -1    0    0  503  504 -0.00000000000E+00 -0.00000000000E+00 -0.15982122245E+04  0.15982122245E+04  0.00000000000E+00 0.  1.
         25    2    1    2    0    0  0.58158966568E+02 -0.11236013149E+03 -0.65605741013E+03  0.67973828898E+03  0.12500220628E+03 0.  0.
         25    2    1    2    0    0 -0.58158966568E+02  0.11236013149E+03 -0.92181454569E+03  0.93881420429E+03  0.12499115562E+03 0.  0.
          5    1    3    3  501    0  0.33989740055E+02 -0.32058217495E+01 -0.36662196291E+02  0.50316859590E+02  0.47000000000E+01 0.  1.
         -5    1    3    3    0  501  0.24169226512E+02 -0.10915430974E+03 -0.61939521384E+03  0.62942142939E+03  0.47000000000E+01 0.  1.
          5    1    4    4  502    0 -0.22917102477E+02  0.84526694686E+02 -0.24028891939E+03  0.25579446921E+03  0.47000000000E+01 0. -1.
         -5    1    4    4    0  502 -0.35241864090E+02  0.27833436799E+02 -0.68152562631E+03  0.68301973507E+03  0.47000000000E+01 0. -1.
<mgrwt>
<rscale>  0 0.36059987E+03</rscale>
<asrwt>0</asrwt>
<pdfrwt beam="1">  1       21 0.31292718E-02 0.36059987E+03</pdfrwt>
<pdfrwt beam="2">  1       21 0.24587883E+00 0.36059987E+03</pdfrwt>
<totfact> 0.37647486E+04</totfact>
</mgrwt>
</event>
<event>
 8    1  0.9569852E-006  0.4030894E+03  0.7546771E-02  0.1042715E+00
         21   -1    0    0  504  503  0.00000000000E+00  0.00000000000E+00  0.31402189009E+03  0.31402189009E+03  0.00000000000E+00 0.  1.
         21   -1    0    0  503  504 -0.00000000000E+00 -0.00000000000E+00 -0.12935488050E+03  0.12935488050E+03  0.00000000000E+00 0.  1.
         25    2    1    2    0    0 -0.21854660587E+02 -0.89638343899E+02 -0.48884788690E+02  0.16287050917E+03  0.12499768520E+03 0.  0.
         25    2    1    2    0    0  0.21854660587E+02  0.89638343899E+02  0.23355179828E+03  0.28050626143E+03  0.12499864533E+03 0.  0.
          5    1    3    3  501    0 -0.10303981415E+02  0.10493565093E+02  0.30695736806E+02  0.34359935964E+02  0.47000000000E+01 0. -1.
         -5    1    3    3    0  501 -0.11550679172E+02 -0.10013190899E+03 -0.79580525496E+02  0.12851057321E+03  0.47000000000E+01 0. -1.
          5    1    4    4  502    0  0.51886708850E+02  0.10251780376E+03  0.21169598345E+03  0.24091369835E+03  0.47000000000E+01 0.  1.
         -5    1    4    4    0  502 -0.30032048263E+02 -0.12879459862E+02  0.21855814830E+02  0.39592563078E+02  0.47000000000E+01 0.  1.
<mgrwt>
<rscale>  0 0.40308939E+03</rscale>
<asrwt>0</asrwt>
<pdfrwt beam="1">  1       21 0.48311060E-01 0.40308939E+03</pdfrwt>
<pdfrwt beam="2">  1       21 0.19900751E-01 0.40308939E+03</pdfrwt>
<totfact> 0.89605323E+04</totfact>
</mgrwt>
</event>
<event>
 8    1  0.9569852E-006  0.3005533E+03  0.7546771E-02  0.1084964E+00
         21   -1    0    0  504  503  0.00000000000E+00  0.00000000000E+00  0.12540507809E+03  0.12540507809E+03  0.00000000000E+00 0. -1.
         21   -1    0    0  503  504 -0.00000000000E+00 -0.00000000000E+00 -0.18008093826E+03  0.18008093826E+03  0.00000000000E+00 0. -1.
         25    2    1    2    0    0 -0.56016684227E+01 -0.59936739098E+02  0.31377189142E+02  0.14222623751E+03  0.12497993141E+03 0.  0.
         25    2    1    2    0    0  0.56016684227E+01  0.59936739098E+02 -0.86053049310E+02  0.16325977885E+03  0.12499934684E+03 0.  0.
          5    1    3    3  501    0 -0.39618791701E+02 -0.10840054250E+02 -0.34014226713E+02  0.53537025047E+02  0.47000000000E+01 0. -1.
         -5    1    3    3    0  501  0.34017123278E+02 -0.49096684848E+02  0.65391415855E+02  0.88689212460E+02  0.47000000000E+01 0. -1.
          5    1    4    4  502    0 -0.15743515167E+02  0.54746898117E+02  0.15522852867E+02  0.59229469730E+02  0.47000000000E+01 0.  1.
         -5    1    4    4    0  502  0.21345183590E+02  0.51898409807E+01 -0.10157590218E+03  0.10403030912E+03  0.47000000000E+01 0.  1.
<mgrwt>
<rscale>  0 0.30055325E+03</rscale>
<asrwt>0</asrwt>
<pdfrwt beam="1">  1       21 0.19293089E-01 0.30055325E+03</pdfrwt>
<pdfrwt beam="2">  1       21 0.27704760E-01 0.30055325E+03</pdfrwt>
<totfact> 0.29946979E+05</totfact>
</mgrwt>
</event>
<event>
 8    1  0.9569852E-006  0.2955335E+03  0.7546771E-02  0.1087495E+00
         21   -1    0    0  504  503  0.00000000000E+00  0.00000000000E+00  0.75824334698E+02  0.75824334698E+02  0.00000000000E+00 0. -1.
         21   -1    0    0  503  504 -0.00000000000E+00 -0.00000000000E+00 -0.28796846456E+03  0.28796846456E+03  0.00000000000E+00 0. -1.
         25    2    1    2    0    0  0.76534229741E+02  0.89779700319E+01 -0.12636581268E+03  0.19372466775E+03  0.12499134375E+03 0.  0.
         25    2    1    2    0    0 -0.76534229741E+02 -0.89779700319E+01 -0.85778317179E+02  0.17006813150E+03  0.12500862925E+03 0.  0.
          5    1    3    3  501    0  0.20138403819E+02 -0.73264854327E+01  0.23832384714E+02  0.32392981622E+02  0.47000000000E+01 0. -1.
         -5    1    3    3    0  501  0.56395825922E+02  0.16304455465E+02 -0.15019819739E+03  0.16133168613E+03  0.47000000000E+01 0. -1.
          5    1    4    4  502    0 -0.58124066905E+02  0.48202950085E+02 -0.15025980525E+02  0.77134957323E+02  0.47000000000E+01 0.  1.
         -5    1    4    4    0  502 -0.18410162836E+02 -0.57180920117E+02 -0.70752336654E+02  0.92933174179E+02  0.47000000000E+01 0.  1.
<mgrwt>
<rscale>  0 0.29553353E+03</rscale>
<asrwt>0</asrwt>
<pdfrwt beam="1">  1       21 0.11665282E-01 0.29553353E+03</pdfrwt>
<pdfrwt beam="2">  1       21 0.44302841E-01 0.29553353E+03</pdfrwt>
<totfact> 0.29474667E+05</totfact>
</mgrwt>
</event>
<event>
 8    1  0.9569852E-006  0.2668440E+03  0.7546771E-02  0.1103100E+00
         21   -1    0    0  504  503  0.00000000000E+00  0.00000000000E+00  0.32714159191E+03  0.32714159191E+03  0.00000000000E+00 0. -1.
         21   -1    0    0  503  504 -0.00000000000E+00 -0.00000000000E+00 -0.54415070209E+02  0.54415070209E+02  0.00000000000E+00 0. -1.
         25    2    1    2    0    0 -0.32071066865E+02 -0.19872756696E+02  0.97127754378E+02  0.16273420602E+03  0.12500056539E+03 0.  0.
         25    2    1    2    0    0  0.32071066865E+02  0.19872756696E+02  0.17559876733E+03  0.21882245611E+03  0.12499944169E+03 0.  0.
          5    1    3    3  501    0  0.21165907838E+02  0.67372849266E+01 -0.20649065680E+02  0.30689747087E+02  0.47000000000E+01 0.  1.
         -5    1    3    3    0  501 -0.53236974703E+02 -0.26610041623E+02  0.11777682006E+03  0.13204445893E+03  0.47000000000E+01 0.  1.
          5    1    4    4  502    0 -0.41457546615E+02  0.23977283258E+02  0.33275859519E+02  0.58506504856E+02  0.47000000000E+01 0. -1.
         -5    1    4    4    0  502  0.73528613481E+02 -0.41045265613E+01  0.14232290781E+03  0.16031595125E+03  0.47000000000E+01 0. -1.
<mgrwt>
<rscale>  0 0.26684402E+03</rscale>
<asrwt>0</asrwt>
<pdfrwt beam="1">  1       21 0.50329475E-01 0.26684402E+03</pdfrwt>
<pdfrwt beam="2">  1       21 0.83715494E-02 0.26684402E+03</pdfrwt>
<totfact> 0.41002501E+05</totfact>
</mgrwt>
</event>
<event>
 8    1  0.9569852E-006  0.3326193E+03  0.7546771E-02  0.1069984E+00
         21   -1    0    0  504  503  0.00000000000E+00  0.00000000000E+00  0.70344469594E+03  0.70344469594E+03  0.00000000000E+00 0. -1.
         21   -1    0    0  503  504 -0.00000000000E+00 -0.00000000000E+00 -0.39319230771E+02  0.39319230771E+02  0.00000000000E+00 0. -1.
         25    2    1    2    0    0  0.43836744732E+02 -0.99908813256E+02  0.30617192425E+03  0.34823111953E+03  0.12498093555E+03 0.  0.
         25    2    1    2    0    0 -0.43836744732E+02  0.99908813256E+02  0.35795354091E+03  0.39453280718E+03  0.12498786876E+03 0.  0.
          5    1    3    3  501    0  0.87189954544E+02 -0.70314860631E+02  0.22617271383E+03  0.25243306891E+03  0.47000000000E+01 0. -1.
         -5    1    3    3    0  501 -0.43353209812E+02 -0.29593952625E+02  0.79999210430E+02  0.95798050619E+02  0.47000000000E+01 0. -1.
          5    1    4    4  502    0  0.16143223107E+02  0.99811525238E+01  0.21173430252E+03  0.21263520857E+03  0.47000000000E+01 0.  1.
         -5    1    4    4    0  502 -0.59979967839E+02  0.89927660732E+02  0.14621923839E+03  0.18189759862E+03  0.47000000000E+01 0.  1.
<mgrwt>
<rscale>  0 0.33261933E+03</rscale>
<asrwt>0</asrwt>
<pdfrwt beam="1">  1       21 0.10822225E+00 0.33261933E+03</pdfrwt>
<pdfrwt beam="2">  1       21 0.60491130E-02 0.33261933E+03</pdfrwt>
<totfact> 0.12616138E+05</totfact>
</mgrwt>
</event>
<event>
 8    1  0.9569852E-006  0.2958078E+03  0.7546771E-02  0.1087355E+00
         21   -1    0    0  504  503  0.00000000000E+00  0.00000000000E+00  0.16991620738E+03  0.16991620738E+03  0.00000000000E+00 0. -1.
         21   -1    0    0  503  504 -0.00000000000E+00 -0.00000000000E+00 -0.12874320275E+03  0.12874320275E+03  0.00000000000E+00 0. -1.
         25    2    1    2    0    0  0.60707802205E+02 -0.47947283801E+02  0.37070396754E+02  0.15160031524E+03  0.12499624791E+03 0.  0.
         25    2    1    2    0    0 -0.60707802205E+02  0.47947283801E+02  0.41026078694E+01  0.14705909490E+03  0.12500066691E+03 0.  0.
          5    1    3    3  501    0 -0.22906583899E+02  0.25452490786E+02  0.16724890607E+02  0.38397302496E+02  0.47000000000E+01 0. -1.
         -5    1    3    3    0  501  0.83614386104E+02 -0.73399774587E+02  0.20345506147E+02  0.11320301274E+03  0.47000000000E+01 0. -1.
          5    1    4    4  502    0 -0.20591920102E+01 -0.29690035387E+02  0.33742102815E+02  0.45236688378E+02  0.47000000000E+01 0.  1.
         -5    1    4    4    0  502 -0.58648610195E+02  0.77637319188E+02 -0.29639494946E+02  0.10182240652E+03  0.47000000000E+01 0.  1.
<mgrwt>
<rscale>  0 0.29580775E+03</rscale>
<asrwt>0</asrwt>
<pdfrwt beam="1">  1       21 0.26140955E-01 0.29580775E+03</pdfrwt>
<pdfrwt beam="2">  1       21 0.19806647E-01 0.29580775E+03</pdfrwt>
<totfact> 0.31939314E+05</totfact>
</mgrwt>
</event>
<event>
 8    1  0.9569852E-006  0.2570234E+03  0.7546771E-02  0.1108945E+00
         21   -1    0    0  504  503  0.00000000000E+00  0.00000000000E+00  0.12663564336E+03  0.12663564336E+03  0.00000000000E+00 0. -1.
         21   -1    0    0  503  504 -0.00000000000E+00 -0.00000000000E+00 -0.13041556402E+03  0.13041556402E+03  0.00000000000E+00 0. -1.
         25    2    1    2    0    0 -0.22695297555E+02 -0.14694119559E+02  0.10700105041E+02  0.12833947275E+03  0.12500213733E+03 0.  0.
         25    2    1    2    0    0  0.22695297555E+02  0.14694119559E+02 -0.14480025704E+02  0.12871173463E+03  0.12500418315E+03 0.  0.
          5    1    3    3  501    0  0.35002680605E+02  0.36322705867E+02  0.21716723198E+01  0.50708310677E+02  0.47000000000E+01 0.  1.
         -5    1    3    3    0  501 -0.57697978161E+02 -0.51016825426E+02  0.85284327211E+01  0.77631162074E+02  0.47000000000E+01 0.  1.
          5    1    4    4  502    0 -0.25340127308E+02 -0.44510336314E+02 -0.80100375649E+01  0.52053268798E+02  0.47000000000E+01 0. -1.
         -5    1    4    4    0  502  0.48035424863E+02  0.59204455872E+02 -0.64699881392E+01  0.76658465830E+02  0.47000000000E+01 0. -1.
<mgrwt>
<rscale>  0 0.25702341E+03</rscale>
<asrwt>0</asrwt>
<pdfrwt beam="1">  1       21 0.19482407E-01 0.25702341E+03</pdfrwt>
<pdfrwt beam="2">  1       21 0.20063933E-01 0.25702341E+03</pdfrwt>
<totfact> 0.54969612E+05</totfact>
</mgrwt>
</event>
<event>
 8    1  0.9569852E-006  0.3063797E+03  0.7546771E-02  0.1082094E+00
         21   -1    0    0  504  503  0.00000000000E+00  0.00000000000E+00  0.11577320499E+03  0.11577320499E+03  0.00000000000E+00 0.  1.
         21   -1    0    0  503  504 -0.00000000000E+00 -0.00000000000E+00 -0.20269920764E+03  0.20269920764E+03  0.00000000000E+00 0.  1.
         25    2    1    2    0    0  0.86716160102E+02 -0.17455870815E+01 -0.24900384311E+02  0.15417066496E+03  0.12500330114E+03 0.  0.
         25    2    1    2    0    0 -0.86716160102E+02  0.17455870815E+01 -0.62025618332E+02  0.16430174768E+03  0.12500058985E+03 0.  0.
          5    1    3    3  501    0  0.11536419151E+03 -0.19600096573E+02 -0.26419802014E+02  0.12005480585E+03  0.47000000000E+01 0.  1.
         -5    1    3    3    0  501 -0.28648031407E+02  0.17854509492E+02  0.15194177024E+01  0.34115859111E+02  0.47000000000E+01 0.  1.
          5    1    4    4  502    0 -0.64163118138E+02  0.12580762762E+02 -0.99406312697E+02  0.11907512891E+03  0.47000000000E+01 0. -1.
         -5    1    4    4    0  502 -0.22553041964E+02 -0.10835175681E+02  0.37380694365E+02  0.45226618767E+02  0.47000000000E+01 0. -1.
<mgrwt>
<rscale>  0 0.30637974E+03</rscale>
<asrwt>0</asrwt>
<pdfrwt beam="1">  1       21 0.17811263E-01 0.30637974E+03</pdfrwt>
<pdfrwt beam="2">  1       21 0.31184493E-01 0.30637974E+03</pdfrwt>
<totfact> 0.27535854E+05</totfact>
</mgrwt>
</event>
<event>
 8    1  0.9569852E-006  0.3208391E+03  0.7546771E-02  0.1075264E+00
         21   -1    0    0  504  503  0.00000000000E+00  0.00000000000E+00  0.30022581841E+02  0.30022581841E+02  0.00000000000E+00 0.  1.
         21   -1    0    0  503  504 -0.00000000000E+00 -0.00000000000E+00 -0.85716938146E+03  0.85716938146E+03  0.00000000000E+00 0.  1.
         25    2    1    2    0    0 -0.49452128067E+02  0.83312759901E+02 -0.33942051917E+03  0.37446344490E+03  0.12502021357E+03 0.  0.
         25    2    1    2    0    0  0.49452128067E+02 -0.83312759901E+02 -0.48772628045E+03  0.51272851840E+03  0.12500831976E+03 0.  0.
          5    1    3    3  501    0 -0.18209430087E+02  0.10900320775E+03 -0.29029497260E+03  0.31065502372E+03  0.47000000000E+01 0.  1.
         -5    1    3    3    0  501 -0.31242697980E+02 -0.25690447853E+02 -0.49125546573E+02  0.63808421185E+02  0.47000000000E+01 0.  1.
          5    1    4    4  502    0 -0.11010649660E+02  0.28495246231E+02 -0.90192981804E+02  0.95341897560E+02  0.47000000000E+01 0.  1.
         -5    1    4    4    0  502  0.60462777728E+02 -0.11180800613E+03 -0.39753329864E+03  0.41738662084E+03  0.47000000000E+01 0.  1.
<mgrwt>
<rscale>  0 0.32083914E+03</rscale>
<asrwt>0</asrwt>
<pdfrwt beam="1">  1       21 0.46188587E-02 0.32083914E+03</pdfrwt>
<pdfrwt beam="2">  1       21 0.13187221E+00 0.32083914E+03</pdfrwt>
<totfact> 0.12250072E+05</totfact>
</mgrwt>
</event>
<event>
 8    1  0.9569852E-006  0.2995209E+03  0.7546771E-02  0.1085480E+00
         21   -1    0    0  504  503  0.00000000000E+00  0.00000000000E+00  0.73005408581E+03  0.73005408581E+03  0.00000000000E+00 0. -1.
         21   -1    0    0  503  504 -0.00000000000E+00 -0.00000000000E+00 -0.30721265479E+02  0.30721265479E+02  0.00000000000E+00 0. -1.
         25    2    1    2    0    0  0.38123773612E+02 -0.82507682154E+00  0.16388136070E+03  0.20960690588E+03  0.12499540688E+03 0.  0.
         25    2    1    2    0    0 -0.38123773612E+02  0.82507682154E+00  0.53545145963E+03  0.55116844541E+03  0.12499714686E+03 0.  0.
          5    1    3    3  501    0  0.72412668504E+02  0.20932950621E+02  0.14721913625E+03  0.16546101372E+03  0.47000000000E+01 0.  1.
         -5    1    3    3    0  501 -0.34288894892E+02 -0.21758027443E+02  0.16662224442E+02  0.44145892159E+02  0.47000000000E+01 0.  1.
          5    1    4    4  502    0 -0.28835122326E+02 -0.56119650802E+02  0.38115015508E+03  0.38636564315E+03  0.47000000000E+01 0.  1.
         -5    1    4    4    0  502 -0.92886512858E+01  0.56944727624E+02  0.15430130455E+03  0.16480280226E+03  0.47000000000E+01 0.  1.
<mgrwt>
<rscale>  0 0.29952085E+03</rscale>
<asrwt>0</asrwt>
<pdfrwt beam="1">  1       21 0.11231600E+00 0.29952085E+03</pdfrwt>
<pdfrwt beam="2">  1       21 0.47263491E-02 0.29952085E+03</pdfrwt>
<totfact> 0.17754660E+05</totfact>
</mgrwt>
</event>
<event>
 8    1  0.9569852E-006  0.3303584E+03  0.7546771E-02  0.1070978E+00
         21   -1    0    0  504  503  0.00000000000E+00  0.00000000000E+00  0.70619743031E+03  0.70619743031E+03  0.00000000000E+00 0.  1.
         21   -1    0    0  503  504 -0.00000000000E+00 -0.00000000000E+00 -0.38635334132E+02  0.38635334132E+02  0.00000000000E+00 0.  1.
         25    2    1    2    0    0 -0.75323965969E+02 -0.76431943225E+02  0.30713828393E+03  0.34853804721E+03  0.12501721122E+03 0.  0.
         25    2    1    2    0    0  0.75323965969E+02  0.76431943225E+02  0.36042381225E+03  0.39629471723E+03  0.12501454587E+03 0.  0.
          5    1    3    3  501    0 -0.10397829819E+03 -0.31304297613E+02  0.23207151177E+03  0.25626299404E+03  0.47000000000E+01 0.  1.
         -5    1    3    3    0  501  0.28654332217E+02 -0.45127645613E+02  0.75066772164E+02  0.92275053164E+02  0.47000000000E+01 0.  1.
          5    1    4    4  502    0  0.22826846354E+02 -0.23509600760E+02  0.18284613013E+03  0.18581863078E+03  0.47000000000E+01 0.  1.
         -5    1    4    4    0  502  0.52497119615E+02  0.99941543985E+02  0.17757768212E+03  0.21047608645E+03  0.47000000000E+01 0.  1.
<mgrwt>
<rscale>  0 0.33035843E+03</rscale>
<asrwt>0</asrwt>
<pdfrwt beam="1">  1       21 0.10864575E+00 0.33035843E+03</pdfrwt>
<pdfrwt beam="2">  1       21 0.59438981E-02 0.33035843E+03</pdfrwt>
<totfact> 0.12888820E+05</totfact>
</mgrwt>
</event>
<event>
 8    1  0.9569852E-006  0.2677563E+03  0.7546771E-02  0.1102571E+00
         21   -1    0    0  504  503  0.00000000000E+00  0.00000000000E+00  0.48332863221E+02  0.48332863221E+02  0.00000000000E+00 0. -1.
         21   -1    0    0  503  504 -0.00000000000E+00 -0.00000000000E+00 -0.37083183213E+03  0.37083183213E+03  0.00000000000E+00 0. -1.
         25    2    1    2    0    0  0.88536904743E+01 -0.40237142811E+02 -0.12286496913E+03  0.18005013814E+03  0.12499934444E+03 0.  0.
         25    2    1    2    0    0 -0.88536904743E+01  0.40237142811E+02 -0.19963399978E+03  0.23911455721E+03  0.12499848841E+03 0.  0.
          5    1    3    3  501    0 -0.46091861953E+02 -0.54999435252E+02 -0.50478616971E+02  0.87861131268E+02  0.47000000000E+01 0. -1.
         -5    1    3    3    0  501  0.54945552428E+02  0.14762292441E+02 -0.72386352161E+02  0.92189006876E+02  0.47000000000E+01 0. -1.
          5    1    4    4  502    0 -0.19599345274E+02 -0.12788127901E+02 -0.17967888647E+03  0.18125744893E+03  0.47000000000E+01 0.  1.
         -5    1    4    4    0  502  0.10745654800E+02  0.53025270712E+02 -0.19955113312E+02  0.57857108279E+02  0.47000000000E+01 0.  1.
<mgrwt>
<rscale>  0 0.26775634E+03</rscale>
<asrwt>0</asrwt>
<pdfrwt beam="1">  1       21 0.74358248E-02 0.26775634E+03</pdfrwt>
<pdfrwt beam="2">  1       21 0.57051053E-01 0.26775634E+03</pdfrwt>
<totfact> 0.38660544E+05</totfact>
</mgrwt>
</event>
<event>
 8    1  0.9569852E-006  0.3143524E+03  0.7546771E-02  0.1078278E+00
         21   -1    0    0  504  503  0.00000000000E+00  0.00000000000E+00  0.16570743771E+02  0.16570743771E+02  0.00000000000E+00 0.  1.
         21   -1    0    0  503  504 -0.00000000000E+00 -0.00000000000E+00 -0.14908422035E+04  0.14908422035E+04  0.00000000000E+00 0.  1.
         25    2    1    2    0    0 -0.38578865670E+02 -0.84813940474E+02 -0.64166559814E+03  0.66033415892E+03  0.12499891291E+03 0.  0.
         25    2    1    2    0    0  0.38578865670E+02  0.84813940474E+02 -0.83260586162E+03  0.84707878838E+03  0.12501287751E+03 0.  0.
          5    1    3    3  501    0 -0.19799551443E+02 -0.11578086535E+03 -0.44254889236E+03  0.45789610519E+03  0.47000000000E+01 0.  1.
         -5    1    3    3    0  501 -0.18779314227E+02  0.30966924872E+02 -0.19911670577E+03  0.20243805373E+03  0.47000000000E+01 0.  1.
          5    1    4    4  502    0  0.66267802851E+02  0.32185294749E+02 -0.66669684056E+03  0.67077125916E+03  0.47000000000E+01 0.  1.
         -5    1    4    4    0  502 -0.27688937181E+02  0.52628645725E+02 -0.16590902106E+03  0.17630752922E+03  0.47000000000E+01 0.  1.
<mgrwt>
<rscale>  0 0.31435244E+03</rscale>
<asrwt>0</asrwt>
<pdfrwt beam="1">  1       21 0.25493451E-02 0.31435244E+03</pdfrwt>
<pdfrwt beam="2">  1       21 0.22936035E+00 0.31435244E+03</pdfrwt>
<totfact> 0.68311381E+04</totfact>
</mgrwt>
</event>
<event>
 8    1  0.9569852E-006  0.2708021E+03  0.7546771E-02  0.1100821E+00
         21   -1    0    0  504  503  0.00000000000E+00  0.00000000000E+00  0.11322059223E+03  0.11322059223E+03  0.00000000000E+00 0.  1.
         21   -1    0    0  503  504 -0.00000000000E+00 -0.00000000000E+00 -0.16192678621E+03  0.16192678621E+03  0.00000000000E+00 0.  1.
         25    2    1    2    0    0 -0.35707798239E+01 -0.44082403121E+02  0.33191676783E+01  0.13271337480E+03  0.12508322926E+03 0.  0.
         25    2    1    2    0    0  0.35707798239E+01  0.44082403121E+02 -0.52025361661E+02  0.14243400365E+03  0.12499919362E+03 0.  0.
          5    1    3    3  501    0 -0.41262735201E+02  0.26488523296E+02 -0.12956904448E+02  0.50933550392E+02  0.47000000000E+01 0. -1.
         -5    1    3    3    0  501  0.37691955377E+02 -0.70570926417E+02  0.16276072126E+02  0.81779824403E+02  0.47000000000E+01 0. -1.
          5    1    4    4  502    0  0.49256226567E+02  0.31083571711E+02  0.14832646360E+02  0.60286496697E+02  0.47000000000E+01 0.  1.
         -5    1    4    4    0  502 -0.45685446743E+02  0.12998831410E+02 -0.66858008021E+02  0.82147506953E+02  0.47000000000E+01 0.  1.
<mgrwt>
<rscale>  0 0.27080212E+03</rscale>
<asrwt>0</asrwt>
<pdfrwt beam="1">  1       21 0.17418553E-01 0.27080212E+03</pdfrwt>
<pdfrwt beam="2">  1       21 0.24911813E-01 0.27080212E+03</pdfrwt>
<totfact> 0.44782979E+05</totfact>
</mgrwt>
</event>
<event>
 8    1  0.9569852E-006  0.3065508E+03  0.7546771E-02  0.1082011E+00
         21   -1    0    0  504  503  0.00000000000E+00  0.00000000000E+00  0.31351411564E+03  0.31351411564E+03  0.00000000000E+00 0. -1.
         21   -1    0    0  503  504 -0.00000000000E+00 -0.00000000000E+00 -0.74935524707E+02  0.74935524707E+02  0.00000000000E+00 0. -1.
         25    2    1    2    0    0 -0.81168328427E+02  0.26333510147E+02  0.14996953554E+03  0.21306642779E+03  0.12499875905E+03 0.  0.
         25    2    1    2    0    0  0.81168328427E+02 -0.26333510147E+02  0.88609055384E+02  0.17538321255E+03  0.12500382095E+03 0.  0.
          5    1    3    3  501    0  0.32228590776E+02 -0.47276727599E+01  0.42097469452E+02  0.53435193341E+02  0.47000000000E+01 0.  1.
         -5    1    3    3    0  501 -0.11339691920E+03  0.31061182907E+02  0.10787206609E+03  0.15963123445E+03  0.47000000000E+01 0.  1.
          5    1    4    4  502    0 -0.27012292807E+02  0.18618113265E+02  0.11608948647E+02  0.35116318043E+02  0.47000000000E+01 0. -1.
         -5    1    4    4    0  502  0.10818062123E+03 -0.44951623412E+02  0.77000106737E+02  0.14026689451E+03  0.47000000000E+01 0. -1.
<mgrwt>
<rscale>  0 0.30655078E+03</rscale>
<asrwt>0</asrwt>
<pdfrwt beam="1">  1       21 0.48232940E-01 0.30655078E+03</pdfrwt>
<pdfrwt beam="2">  1       21 0.11528542E-01 0.30655078E+03</pdfrwt>
<totfact> 0.25164505E+05</totfact>
</mgrwt>
</event>
<event>
 8    1  0.9569852E-006  0.3917278E+03  0.7546771E-02  0.1046682E+00
         21   -1    0    0  504  503  0.00000000000E+00  0.00000000000E+00  0.54441916816E+02  0.54441916816E+02  0.00000000000E+00 0.  1.
         21   -1    0    0  503  504 -0.00000000000E+00 -0.00000000000E+00 -0.70465328142E+03  0.70465328142E+03  0.00000000000E+00 0.  1.
         25    2    1    2    0    0  0.84039474953E+02  0.86878298966E+02 -0.49980448923E+03  0.52918705085E+03  0.12499574053E+03 0.  0.
         25    2    1    2    0    0 -0.84039474953E+02 -0.86878298966E+02 -0.15040687537E+03  0.22990814739E+03  0.12500022357E+03 0.  0.
          5    1    3    3  501    0  0.26925206683E+01  0.24240290923E+02 -0.70370364263E+01  0.25815717174E+02  0.47000000000E+01 0. -1.
         -5    1    3    3    0  501  0.81346954285E+02  0.62638008044E+02 -0.49276745280E+03  0.50337133367E+03  0.47000000000E+01 0. -1.
          5    1    4    4  502    0  0.23263470968E+02 -0.72034023665E+01 -0.69060105058E+02  0.73378922026E+02  0.47000000000E+01 0. -1.
         -5    1    4    4    0  502 -0.10730294592E+03 -0.79674896600E+02 -0.81346770317E+02  0.15652922536E+03  0.47000000000E+01 0. -1.
<mgrwt>
<rscale>  0 0.39172784E+03</rscale>
<asrwt>0</asrwt>
<pdfrwt beam="1">  1       21 0.83756797E-02 0.39172784E+03</pdfrwt>
<pdfrwt beam="2">  1       21 0.10840819E+00 0.39172784E+03</pdfrwt>
<totfact> 0.69970334E+04</totfact>
</mgrwt>
</event>
<event>
 8    1  0.9569852E-006  0.5008045E+03  0.7546771E-02  0.1013569E+00
         21   -1    0    0  504  503  0.00000000000E+00  0.00000000000E+00  0.20491105605E+03  0.20491105605E+03  0.00000000000E+00 0. -1.
         21   -1    0    0  503  504 -0.00000000000E+00 -0.00000000000E+00 -0.30599269154E+03  0.30599269154E+03  0.00000000000E+00 0. -1.
         25    2    1    2    0    0 -0.20481972286E+02  0.42999536107E+02 -0.26648573917E+03  0.29817377041E+03  0.12499790753E+03 0.  0.
         25    2    1    2    0    0  0.20481972286E+02 -0.42999536107E+02  0.16540410367E+03  0.21272997717E+03  0.12500821726E+03 0.  0.
          5    1    3    3  501    0  0.53255813469E+01 -0.42955700823E+02 -0.97422359126E+02  0.10670876303E+03  0.47000000000E+01 0.  1.
         -5    1    3    3    0  501 -0.25807553633E+02  0.85955236930E+02 -0.16906338004E+03  0.19146500738E+03  0.47000000000E+01 0.  1.
          5    1    4    4  502    0 -0.50723583415E+02 -0.17114421943E+02  0.95265364371E+02  0.10937716856E+03  0.47000000000E+01 0.  1.
         -5    1    4    4    0  502  0.71205555702E+02 -0.25885114164E+02  0.70138739303E+02  0.10335280862E+03  0.47000000000E+01 0.  1.
<mgrwt>
<rscale>  0 0.50080450E+03</rscale>
<asrwt>0</asrwt>
<pdfrwt beam="1">  1       21 0.31524778E-01 0.50080450E+03</pdfrwt>
<pdfrwt beam="2">  1       21 0.47075798E-01 0.50080450E+03</pdfrwt>
<totfact> 0.37848732E+04</totfact>
</mgrwt>
</event>
<event>
 8    1  0.9569852E-006  0.2942863E+03  0.7546771E-02  0.1088132E+00
         21   -1    0    0  504  503  0.00000000000E+00  0.00000000000E+00  0.25419933775E+02  0.25419933775E+02  0.00000000000E+00 0. -1.
         21   -1    0    0  503  504 -0.00000000000E+00 -0.00000000000E+00 -0.85173757144E+03  0.85173757144E+03  0.00000000000E+00 0. -1.
         25    2    1    2    0    0  0.11225646679E+02  0.27661080611E+02 -0.62694645152E+03  0.63998279606E+03  0.12499990259E+03 0.  0.
         25    2    1    2    0    0 -0.11225646679E+02 -0.27661080611E+02 -0.19937118614E+03  0.23717470916E+03  0.12494727799E+03 0.  0.
          5    1    3    3  501    0  0.14797937216E+02  0.53177754131E+01 -0.43782059004E+01  0.16985769576E+02  0.47000000000E+01 0.  1.
         -5    1    3    3    0  501 -0.35722905366E+01  0.22343305198E+02 -0.62256824562E+03  0.62299702648E+03  0.47000000000E+01 0.  1.
          5    1    4    4  502    0  0.40116432581E+02 -0.21440202310E+02 -0.19072911017E+02  0.49546709000E+02  0.47000000000E+01 0. -1.
         -5    1    4    4    0  502 -0.51342079260E+02 -0.62208783009E+01 -0.18029827513E+03  0.18762800016E+03  0.47000000000E+01 0. -1.
<mgrwt>
<rscale>  0 0.29428634E+03</rscale>
<asrwt>0</asrwt>
<pdfrwt beam="1">  1       21 0.39107593E-02 0.29428634E+03</pdfrwt>
<pdfrwt beam="2">  1       21 0.13103654E+00 0.29428634E+03</pdfrwt>
<totfact> 0.16644667E+05</totfact>
</mgrwt>
</event>
<event>
 8    1  0.9569852E-006  0.2689160E+03  0.7546771E-02  0.1101902E+00
         21   -1    0    0  504  503  0.00000000000E+00  0.00000000000E+00  0.29135671661E+03  0.29135671661E+03  0.00000000000E+00 0. -1.
         21   -1    0    0  503  504 -0.00000000000E+00 -0.00000000000E+00 -0.62050924048E+02  0.62050924048E+02  0.00000000000E+00 0. -1.
         25    2    1    2    0    0  0.20416692475E+02  0.18619092344E+02  0.16871616021E+03  0.21178758842E+03  0.12500131183E+03 0.  0.
         25    2    1    2    0    0 -0.20416692475E+02 -0.18619092344E+02  0.60589632346E+02  0.14162005223E+03  0.12498649413E+03 0.  0.
          5    1    3    3  501    0 -0.17560581826E+02 -0.47371591190E+02  0.54739937121E+02  0.74639080929E+02  0.47000000000E+01 0. -1.
         -5    1    3    3    0  501  0.37977274300E+02  0.65990683534E+02  0.11397622309E+03  0.13714850749E+03  0.47000000000E+01 0. -1.
          5    1    4    4  502    0 -0.72235722931E+02 -0.66124376124E+01  0.46856834125E+02  0.86483390907E+02  0.47000000000E+01 0. -1.
         -5    1    4    4    0  502  0.51819030456E+02 -0.12006654732E+02  0.13732798221E+02  0.55136661327E+02  0.47000000000E+01 0. -1.
<mgrwt>
<rscale>  0 0.26891600E+03</rscale>
<asrwt>0</asrwt>
<pdfrwt beam="1">  1       21 0.44824109E-01 0.26891600E+03</pdfrwt>
<pdfrwt beam="2">  1       21 0.95462962E-02 0.26891600E+03</pdfrwt>
<totfact> 0.41388375E+05</totfact>
</mgrwt>
</event>
<event>
 8    1  0.9569852E-006  0.5041386E+03  0.7546771E-02  0.1012704E+00
         21   -1    0    0  504  503  0.00000000000E+00  0.00000000000E+00  0.21090389913E+04  0.21090389913E+04  0.00000000000E+00 0. -1.
         21   -1    0    0  503  504 -0.00000000000E+00 -0.00000000000E+00 -0.30126961096E+02  0.30126961096E+02  0.00000000000E+00 0. -1.
         25    2    1    2    0    0  0.18404191027E+03  0.26418245829E+02  0.54926222999E+03  0.59319678405E+03  0.12499631541E+03 0.  0.
         25    2    1    2    0    0 -0.18404191027E+03 -0.26418245829E+02  0.15296498002E+04  0.15459691683E+04  0.12499123861E+03 0.  0.
          5    1    3    3  501    0  0.18067127312E+03  0.13040032767E+02  0.54951479357E+03  0.57861969353E+03  0.47000000000E+01 0.  1.
         -5    1    3    3    0  501  0.33706371431E+01  0.13378213062E+02 -0.25256358840E+00  0.14577090514E+02  0.47000000000E+01 0.  1.
          5    1    4    4  502    0 -0.17813044242E+03 -0.60515271623E+02  0.12347084874E+04  0.12489674501E+04  0.47000000000E+01 0. -1.
         -5    1    4    4    0  502 -0.59114678433E+01  0.34097025794E+02  0.29494131281E+03  0.29700171822E+03  0.47000000000E+01 0. -1.
<mgrwt>
<rscale>  0 0.50413861E+03</rscale>
<asrwt>0</asrwt>
<pdfrwt beam="1">  1       21 0.32446742E+00 0.50413861E+03</pdfrwt>
<pdfrwt beam="2">  1       21 0.46349187E-02 0.50413861E+03</pdfrwt>
<totfact> 0.60905278E+03</totfact>
</mgrwt>
</event>
<event>
 8    1  0.9569852E-006  0.3813998E+03  0.7546771E-02  0.1050418E+00
         21   -1    0    0  504  503  0.00000000000E+00  0.00000000000E+00  0.78559245071E+03  0.78559245071E+03  0.00000000000E+00 0. -1.
         21   -1    0    0  503  504 -0.00000000000E+00 -0.00000000000E+00 -0.46291743600E+02  0.46291743600E+02  0.00000000000E+00 0. -1.
         25    2    1    2    0    0 -0.23648169113E+02  0.12944380673E+03  0.24195375588E+03  0.30245937834E+03  0.12500048225E+03 0.  0.
         25    2    1    2    0    0  0.23648169113E+02 -0.12944380673E+03  0.49734695124E+03  0.52942481597E+03  0.12498684274E+03 0.  0.
          5    1    3    3  501    0 -0.21888878574E+02  0.11837360694E+03  0.90902289488E+02  0.15091968082E+03  0.47000000000E+01 0. -1.
         -5    1    3    3    0  501 -0.17592905397E+01  0.11070199790E+02  0.15105146639E+03  0.15153969752E+03  0.47000000000E+01 0. -1.
          5    1    4    4  502    0  0.76191039481E+01 -0.13136503224E+03  0.49528100375E+03  0.51248432670E+03  0.47000000000E+01 0.  1.
         -5    1    4    4    0  502  0.16029065165E+02  0.19212255079E+01  0.20659474831E+01  0.16940489265E+02  0.47000000000E+01 0.  1.
<mgrwt>
<rscale>  0 0.38139976E+03</rscale>
<asrwt>0</asrwt>
<pdfrwt beam="1">  1       21 0.12086037E+00 0.38139976E+03</pdfrwt>
<pdfrwt beam="2">  1       21 0.71218073E-02 0.38139976E+03</pdfrwt>
<totfact> 0.71204895E+04</totfact>
</mgrwt>
</event>
<event>
 8    1  0.9569852E-006  0.3267296E+03  0.7546771E-02  0.1072593E+00
         21   -1    0    0  504  503  0.00000000000E+00  0.00000000000E+00  0.90797626980E+02  0.90797626980E+02  0.00000000000E+00 0.  1.
         21   -1    0    0  503  504 -0.00000000000E+00 -0.00000000000E+00 -0.29392905902E+03  0.29392905902E+03  0.00000000000E+00 0.  1.
         25    2    1    2    0    0  0.71688442414E+02  0.35918204123E+02 -0.18170448017E+03  0.23468086431E+03  0.12501695804E+03 0.  0.
         25    2    1    2    0    0 -0.71688442414E+02 -0.35918204123E+02 -0.21426951872E+02  0.15004582169E+03  0.12500113670E+03 0.  0.
          5    1    3    3  501    0  0.60256471455E+02 -0.22672478378E+02 -0.29214480812E+02  0.70855201060E+02  0.47000000000E+01 0. -1.
         -5    1    3    3    0  501  0.11431970958E+02  0.58590682501E+02 -0.15248999935E+03  0.16382566325E+03  0.47000000000E+01 0. -1.
          5    1    4    4  502    0 -0.56166437468E+02  0.30302133089E+02 -0.44641363391E+02  0.78024542889E+02  0.47000000000E+01 0.  1.
         -5    1    4    4    0  502 -0.15522004945E+02 -0.66220337212E+02  0.23214411518E+02  0.72021278801E+02  0.47000000000E+01 0.  1.
<mgrwt>
<rscale>  0 0.32672962E+03</rscale>
<asrwt>0</asrwt>
<pdfrwt beam="1">  1       21 0.13968866E-01 0.32672962E+03</pdfrwt>
<pdfrwt beam="2">  1       21 0.45219855E-01 0.32672962E+03</pdfrwt>
<totfact> 0.20230195E+05</totfact>
</mgrwt>
</event>
<event>
 8    1  0.9569852E-006  0.3031862E+03  0.7546771E-02  0.1083659E+00
         21   -1    0    0  504  503  0.00000000000E+00  0.00000000000E+00  0.22759040383E+03  0.22759040383E+03  0.00000000000E+00 0. -1.
         21   -1    0    0  503  504 -0.00000000000E+00 -0.00000000000E+00 -0.10097293274E+03  0.10097293274E+03  0.00000000000E+00 0. -1.
         25    2    1    2    0    0 -0.52110850952E+02  0.43246702171E+02  0.62685650660E+01  0.14230368261E+03  0.12500090056E+03 0.  0.
         25    2    1    2    0    0  0.52110850952E+02 -0.43246702171E+02  0.12034890603E+03  0.18625965397E+03  0.12499192565E+03 0.  0.
          5    1    3    3  501    0 -0.13320071607E+02  0.84308305792E+02  0.37486322589E+01  0.85565512778E+02  0.47000000000E+01 0. -1.
         -5    1    3    3    0  501 -0.38790779345E+02 -0.41061603622E+02  0.25199328071E+01  0.56738169829E+02  0.47000000000E+01 0. -1.
          5    1    4    4  502    0 -0.27665850072E+02 -0.56550275367E+01 -0.86689574448E+01  0.29910189231E+02  0.47000000000E+01 0.  1.
         -5    1    4    4    0  502  0.79776701024E+02 -0.37591674634E+02  0.12901786347E+03  0.15634946474E+03  0.47000000000E+01 0.  1.
<mgrwt>
<rscale>  0 0.30318622E+03</rscale>
<asrwt>0</asrwt>
<pdfrwt beam="1">  1       21 0.35013908E-01 0.30318622E+03</pdfrwt>
<pdfrwt beam="2">  1       21 0.15534297E-01 0.30318622E+03</pdfrwt>
<totfact> 0.28195224E+05</totfact>
</mgrwt>
</event>
<event>
 8    1  0.9569852E-006  0.2992653E+03  0.7546771E-02  0.1085608E+00
         21   -1    0    0  504  503  0.00000000000E+00  0.00000000000E+00  0.41090465212E+02  0.41090465212E+02  0.00000000000E+00 0. -1.
         21   -1    0    0  503  504 -0.00000000000E+00 -0.00000000000E+00 -0.54489369617E+03  0.54489369617E+03  0.00000000000E+00 0. -1.
         25    2    1    2    0    0  0.77959830037E+01 -0.81905850414E+02 -0.25331749097E+03  0.29421246414E+03  0.12498750796E+03 0.  0.
         25    2    1    2    0    0 -0.77959830037E+01  0.81905850414E+02 -0.25048573999E+03  0.29177169723E+03  0.12497308384E+03 0.  0.
          5    1    3    3  501    0 -0.41097142944E+02  0.10595632299E+02 -0.52038929881E+02  0.67315546534E+02  0.47000000000E+01 0.  1.
         -5    1    3    3    0  501  0.48893125948E+02 -0.92501482713E+02 -0.20127856108E+03  0.22689691761E+03  0.47000000000E+01 0.  1.
          5    1    4    4  502    0 -0.93834135234E+01  0.11072699791E+03 -0.23170078229E+03  0.25701334407E+03  0.47000000000E+01 0.  1.
         -5    1    4    4    0  502  0.15874305197E+01 -0.28821147500E+02 -0.18784957700E+02  0.34758353164E+02  0.47000000000E+01 0.  1.
<mgrwt>
<rscale>  0 0.29926534E+03</rscale>
<asrwt>0</asrwt>
<pdfrwt beam="1">  1       21 0.63216103E-02 0.29926534E+03</pdfrwt>
<pdfrwt beam="2">  1       21 0.83829796E-01 0.29926534E+03</pdfrwt>
<totfact> 0.21640023E+05</totfact>
</mgrwt>
</event>
<event>
 8    1  0.9569852E-006  0.3002645E+03  0.7546771E-02  0.1085108E+00
         21   -1    0    0  504  503  0.00000000000E+00  0.00000000000E+00  0.34487087244E+02  0.34487087244E+02  0.00000000000E+00 0.  1.
         21   -1    0    0  503  504 -0.00000000000E+00 -0.00000000000E+00 -0.65356890417E+03  0.65356890417E+03  0.00000000000E+00 0.  1.
         25    2    1    2    0    0 -0.47815619642E+02  0.40791630707E+01 -0.46515846545E+03  0.48404712996E+03  0.12500501186E+03 0.  0.
         25    2    1    2    0    0  0.47815619642E+02 -0.40791630707E+01 -0.15392335147E+03  0.20400886145E+03  0.12499697744E+03 0.  0.
          5    1    3    3  501    0 -0.47323910390E+02  0.42504464579E+02 -0.41888904993E+03  0.42371725025E+03  0.47000000000E+01 0. -1.
         -5    1    3    3    0  501 -0.49170925275E+00 -0.38425301508E+02 -0.46269415521E+02  0.60329879717E+02  0.47000000000E+01 0. -1.
          5    1    4    4  502    0  0.28078660484E+02 -0.63852743810E+02 -0.92350810895E+02  0.11582895294E+03  0.47000000000E+01 0.  1.
         -5    1    4    4    0  502  0.19736959159E+02  0.59773580739E+02 -0.61572540575E+02  0.88179908506E+02  0.47000000000E+01 0.  1.
<mgrwt>
<rscale>  0 0.30026447E+03</rscale>
<asrwt>0</asrwt>
<pdfrwt beam="1">  1       21 0.53057059E-02 0.30026447E+03</pdfrwt>
<pdfrwt beam="2">  1       21 0.10054906E+00 0.30026447E+03</pdfrwt>
<totfact> 0.19074227E+05</totfact>
</mgrwt>
</event>
<event>
 8    1  0.9569852E-006  0.5057993E+03  0.7546771E-02  0.1012276E+00
         21   -1    0    0  504  503  0.00000000000E+00  0.00000000000E+00  0.37688884495E+03  0.37688884495E+03  0.00000000000E+00 0. -1.
         21   -1    0    0  503  504 -0.00000000000E+00 -0.00000000000E+00 -0.16970052419E+03  0.16970052419E+03  0.00000000000E+00 0. -1.
         25    2    1    2    0    0 -0.21710009281E+03  0.34634736172E+02  0.10250662234E+03  0.27288221054E+03  0.12500031183E+03 0.  0.
         25    2    1    2    0    0  0.21710009281E+03 -0.34634736172E+02  0.10468169842E+03  0.27370715860E+03  0.12500134173E+03 0.  0.
          5    1    3    3  501    0 -0.14207543087E+03 -0.22728527402E+02  0.10517496479E+03  0.17828594234E+03  0.47000000000E+01 0. -1.
         -5    1    3    3    0  501 -0.75024661937E+02  0.57363263574E+02 -0.26683424545E+01  0.94596268204E+02  0.47000000000E+01 0. -1.
          5    1    4    4  502    0  0.17592233469E+03 -0.29756994654E+02  0.20381267747E+02  0.17964307014E+03  0.47000000000E+01 0.  1.
         -5    1    4    4    0  502  0.41177758118E+02 -0.48777415184E+01  0.84300430669E+02  0.94064088456E+02  0.47000000000E+01 0.  1.
<mgrwt>
<rscale>  0 0.50579931E+03</rscale>
<asrwt>0</asrwt>
<pdfrwt beam="1">  1       21 0.57982899E-01 0.50579931E+03</pdfrwt>
<pdfrwt beam="2">  1       21 0.26107773E-01 0.50579931E+03</pdfrwt>
<totfact> 0.35115893E+04</totfact>
</mgrwt>
</event>
<event>
 8    1  0.9569852E-006  0.3306194E+03  0.7546771E-02  0.1070863E+00
         21   -1    0    0  504  503  0.00000000000E+00  0.00000000000E+00  0.11212106902E+03  0.11212106902E+03  0.00000000000E+00 0.  1.
         21   -1    0    0  503  504 -0.00000000000E+00 -0.00000000000E+00 -0.24373020796E+03  0.24373020796E+03  0.00000000000E+00 0.  1.
         25    2    1    2    0    0 -0.34134995083E+01 -0.52784831001E+02 -0.16736773180E+03  0.21548642617E+03  0.12499820740E+03 0.  0.
         25    2    1    2    0    0  0.34134995083E+01  0.52784831001E+02  0.35758592861E+02  0.14036485080E+03  0.12500289602E+03 0.  0.
          5    1    3    3  501    0  0.54751911721E+02 -0.53815734057E+02 -0.10376488015E+03  0.12916325105E+03  0.47000000000E+01 0.  1.
         -5    1    3    3    0  501 -0.58165411229E+02  0.10309030559E+01 -0.63602851647E+02  0.86323175117E+02  0.47000000000E+01 0.  1.
          5    1    4    4  502    0 -0.27823218299E+02  0.56159451266E+02 -0.28249575764E+02  0.68906777416E+02  0.47000000000E+01 0. -1.
         -5    1    4    4    0  502  0.31236717807E+02 -0.33746202651E+01  0.64008168625E+02  0.71458073386E+02  0.47000000000E+01 0. -1.
<mgrwt>
<rscale>  0 0.33061937E+03</rscale>
<asrwt>0</asrwt>
<pdfrwt beam="1">  1       21 0.17249395E-01 0.33061937E+03</pdfrwt>
<pdfrwt beam="2">  1       21 0.37496955E-01 0.33061937E+03</pdfrwt>
<totfact> 0.20110391E+05</totfact>
</mgrwt>
</event>
<event>
 8    1  0.9569852E-006  0.3232322E+03  0.7546771E-02  0.1074171E+00
         21   -1    0    0  504  503  0.00000000000E+00  0.00000000000E+00  0.52961781635E+03  0.52961781635E+03  0.00000000000E+00 0.  1.
         21   -1    0    0  503  504 -0.00000000000E+00 -0.00000000000E+00 -0.49318151573E+02  0.49318151573E+02  0.00000000000E+00 0.  1.
         25    2    1    2    0    0  0.70564649589E+02  0.32224775702E+02  0.35998834941E+03  0.38888830738E+03  0.12499879185E+03 0.  0.
         25    2    1    2    0    0 -0.70564649589E+02 -0.32224775702E+02  0.12031131537E+03  0.19004766055E+03  0.12500197892E+03 0.  0.
          5    1    3    3  501    0  0.38409016877E+02  0.79664363013E+02  0.24035254527E+03  0.25615054036E+03  0.47000000000E+01 0.  1.
         -5    1    3    3    0  501  0.32155632711E+02 -0.47439587311E+02  0.11963580414E+03  0.13273776701E+03  0.47000000000E+01 0.  1.
          5    1    4    4  502    0  0.18710890084E+01  0.18060235876E+02  0.96892380700E+02  0.98690914129E+02  0.47000000000E+01 0. -1.
         -5    1    4    4    0  502 -0.72435738597E+02 -0.50285011578E+02  0.23418934672E+02  0.91356746421E+02  0.47000000000E+01 0. -1.
<mgrwt>
<rscale>  0 0.32323225E+03</rscale>
<asrwt>0</asrwt>
<pdfrwt beam="1">  1       21 0.81479660E-01 0.32323225E+03</pdfrwt>
<pdfrwt beam="2">  1       21 0.75874083E-02 0.32323225E+03</pdfrwt>
<totfact> 0.16711891E+05</totfact>
</mgrwt>
</event>
<event>
 8    1  0.9569852E-006  0.3762928E+03  0.7546771E-02  0.1052313E+00
         21   -1    0    0  504  503  0.00000000000E+00  0.00000000000E+00  0.14686990410E+03  0.14686990410E+03  0.00000000000E+00 0. -1.
         21   -1    0    0  503  504 -0.00000000000E+00 -0.00000000000E+00 -0.24102330215E+03  0.24102330215E+03  0.00000000000E+00 0. -1.
         25    2    1    2    0    0 -0.12441856780E+03  0.38603917981E+02  0.76117593146E+01  0.18070115378E+03  0.12499890239E+03 0.  0.
         25    2    1    2    0    0  0.12441856780E+03 -0.38603917981E+02 -0.10176515736E+03  0.20719205248E+03  0.12490859402E+03 0.  0.
          5    1    3    3  501    0 -0.30173903004E+02  0.34557405949E+02 -0.51617014136E+02  0.69217663040E+02  0.47000000000E+01 0.  1.
         -5    1    3    3    0  501 -0.94244664797E+02  0.40465120327E+01  0.59228773451E+02  0.11148349074E+03  0.47000000000E+01 0.  1.
          5    1    4    4  502    0  0.28226172615E+02  0.40260114658E+02 -0.55746660728E+02  0.74480694379E+02  0.47000000000E+01 0.  1.
         -5    1    4    4    0  502  0.96192395186E+02 -0.78864032639E+02 -0.46018496632E+02  0.13271135810E+03  0.47000000000E+01 0.  1.
<mgrwt>
<rscale>  0 0.37629281E+03</rscale>
<asrwt>0</asrwt>
<pdfrwt beam="1">  1       21 0.22595370E-01 0.37629281E+03</pdfrwt>
<pdfrwt beam="2">  1       21 0.37080507E-01 0.37629281E+03</pdfrwt>
<totfact> 0.12229644E+05</totfact>
</mgrwt>
</event>
<event>
 8    1  0.9569852E-006  0.3772181E+03  0.7546771E-02  0.1051967E+00
         21   -1    0    0  504  503  0.00000000000E+00  0.00000000000E+00  0.84848439591E+02  0.84848439591E+02  0.00000000000E+00 0. -1.
         21   -1    0    0  503  504 -0.00000000000E+00 -0.00000000000E+00 -0.41925776645E+03  0.41925776645E+03  0.00000000000E+00 0. -1.
         25    2    1    2    0    0 -0.10165533852E+03  0.56306650800E+02 -0.27449573628E+03  0.32323271116E+03  0.12500891791E+03 0.  0.
         25    2    1    2    0    0  0.10165533852E+03 -0.56306650800E+02 -0.59913590582E+02  0.18087349488E+03  0.12498534330E+03 0.  0.
          5    1    3    3  501    0 -0.63248467408E+02  0.93012697443E+02 -0.21912987485E+03  0.24635690079E+03  0.47000000000E+01 0. -1.
         -5    1    3    3    0  501 -0.38406871110E+02 -0.36706046644E+02 -0.55365861431E+02  0.76875810374E+02  0.47000000000E+01 0. -1.
          5    1    4    4  502    0  0.63592846069E+02 -0.96083453758E+02 -0.37742483250E+02  0.12133699023E+03  0.47000000000E+01 0. -1.
         -5    1    4    4    0  502  0.38062492449E+02  0.39776802958E+02 -0.22171107332E+02  0.59536504645E+02  0.47000000000E+01 0. -1.
<mgrwt>
<rscale>  0 0.37721807E+03</rscale>
<asrwt>0</asrwt>
<pdfrwt beam="1">  1       21 0.13053606E-01 0.37721807E+03</pdfrwt>
<pdfrwt beam="2">  1       21 0.64501197E-01 0.37721807E+03</pdfrwt>
<totfact> 0.10585200E+05</totfact>
</mgrwt>
</event>
<event>
 8    1  0.9569852E-006  0.3008608E+03  0.7546771E-02  0.1084811E+00
         21   -1    0    0  504  503  0.00000000000E+00  0.00000000000E+00  0.36217294046E+03  0.36217294046E+03  0.00000000000E+00 0. -1.
         21   -1    0    0  503  504 -0.00000000000E+00 -0.00000000000E+00 -0.62482030815E+02  0.62482030815E+02  0.00000000000E+00 0. -1.
         25    2    1    2    0    0  0.67212063012E+02 -0.49238714777E+02  0.13884671449E+03  0.20456501691E+03  0.12500609413E+03 0.  0.
         25    2    1    2    0    0 -0.67212063012E+02  0.49238714777E+02  0.16084419515E+03  0.22008995437E+03  0.12500728160E+03 0.  0.
          5    1    3    3  501    0  0.35215378483E+02 -0.90229214456E+02  0.78472528763E+02  0.12474558827E+03  0.47000000000E+01 0.  1.
         -5    1    3    3    0  501  0.31996684529E+02  0.40990499679E+02  0.60374185729E+02  0.79819428632E+02  0.47000000000E+01 0.  1.
          5    1    4    4  502    0 -0.36748121699E+02  0.68244770633E+02  0.16623564903E+03  0.18347793921E+03  0.47000000000E+01 0. -1.
         -5    1    4    4    0  502 -0.30463941313E+02 -0.19006055856E+02 -0.53914538750E+01  0.36612015165E+02  0.47000000000E+01 0. -1.
<mgrwt>
<rscale>  0 0.30086077E+03</rscale>
<asrwt>0</asrwt>
<pdfrwt beam="1">  1       21 0.55718913E-01 0.30086077E+03</pdfrwt>
<pdfrwt beam="2">  1       21 0.96126203E-02 0.30086077E+03</pdfrwt>
<totfact> 0.25693262E+05</totfact>
</mgrwt>
</event>
<event>
 8    1  0.9569852E-006  0.3487392E+03  0.7546771E-02  0.1063134E+00
         21   -1    0    0  504  503  0.00000000000E+00  0.00000000000E+00  0.17580535258E+03  0.17580535258E+03  0.00000000000E+00 0.  1.
         21   -1    0    0  503  504 -0.00000000000E+00 -0.00000000000E+00 -0.17294559480E+03  0.17294559480E+03  0.00000000000E+00 0.  1.
         25    2    1    2    0    0  0.11362719082E+03 -0.31845556783E+02  0.30669700565E+02  0.17461627404E+03  0.12499973858E+03 0.  0.
         25    2    1    2    0    0 -0.11362719082E+03  0.31845556783E+02 -0.27809942793E+02  0.17413467334E+03  0.12499685421E+03 0.  0.
          5    1    3    3  501    0  0.63207900182E+02 -0.77368243722E+02  0.36044264418E+02  0.10631257113E+03  0.47000000000E+01 0.  1.
         -5    1    3    3    0  501  0.50419290637E+02  0.45522686939E+02 -0.53745638529E+01  0.68303702909E+02  0.47000000000E+01 0.  1.
          5    1    4    4  502    0 -0.29890034236E+02 -0.46199204856E+02 -0.21927011217E+02  0.59419394955E+02  0.47000000000E+01 0. -1.
         -5    1    4    4    0  502 -0.83737156583E+02  0.78044761638E+02 -0.58829315755E+01  0.11471527839E+03  0.47000000000E+01 0. -1.
<mgrwt>
<rscale>  0 0.34873922E+03</rscale>
<asrwt>0</asrwt>
<pdfrwt beam="1">  1       21 0.27046977E-01 0.34873922E+03</pdfrwt>
<pdfrwt beam="2">  1       21 0.26607015E-01 0.34873922E+03</pdfrwt>
<totfact> 0.16805574E+05</totfact>
</mgrwt>
</event>
<event>
 8    1  0.9569852E-006  0.2586761E+03  0.7546771E-02  0.1107941E+00
         21   -1    0    0  504  503  0.00000000000E+00  0.00000000000E+00  0.31982288505E+02  0.31982288505E+02  0.00000000000E+00 0. -1.
         21   -1    0    0  503  504 -0.00000000000E+00 -0.00000000000E+00 -0.52304968319E+03  0.52304968319E+03  0.00000000000E+00 0. -1.
         25    2    1    2    0    0 -0.20946508766E+02 -0.35782707743E+01 -0.19065927628E+03  0.22896500248E+03  0.12498980949E+03 0.  0.
         25    2    1    2    0    0  0.20946508766E+02  0.35782707743E+01 -0.30040811840E+03  0.32606696921E+03  0.12499228201E+03 0.  0.
          5    1    3    3  501    0 -0.24640500646E+02  0.39005993116E+02 -0.15950803377E+02  0.49042225678E+02  0.47000000000E+01 0.  1.
         -5    1    3    3    0  501  0.36939918807E+01 -0.42584263890E+02 -0.17470847291E+03  0.17992277680E+03  0.47000000000E+01 0.  1.
          5    1    4    4  502    0  0.24955800521E+02  0.61649326676E+02 -0.18652320589E+03  0.19808187144E+03  0.47000000000E+01 0.  1.
         -5    1    4    4    0  502 -0.40092917555E+01 -0.58071055902E+02 -0.11388491251E+03  0.12798509777E+03  0.47000000000E+01 0.  1.
<mgrwt>
<rscale>  0 0.25867606E+03</rscale>
<asrwt>0</asrwt>
<pdfrwt beam="1">  1       21 0.49203521E-02 0.25867606E+03</pdfrwt>
<pdfrwt beam="2">  1       21 0.80469182E-01 0.25867606E+03</pdfrwt>
<totfact> 0.36907374E+05</totfact>
</mgrwt>
</event>
<event>
 8    1  0.9569852E-006  0.3665880E+03  0.7546771E-02  0.1056005E+00
         21   -1    0    0  504  503  0.00000000000E+00  0.00000000000E+00  0.46380209645E+02  0.46380209645E+02  0.00000000000E+00 0. -1.
         21   -1    0    0  503  504 -0.00000000000E+00 -0.00000000000E+00 -0.72437573883E+03  0.72437573883E+03  0.00000000000E+00 0. -1.
         25    2    1    2    0    0 -0.83822861548E+02  0.77817644471E+02 -0.19197618503E+03  0.25605109732E+03  0.12500180364E+03 0.  0.
         25    2    1    2    0    0  0.83822861548E+02 -0.77817644471E+02 -0.48601934416E+03  0.51470485115E+03  0.12499769196E+03 0.  0.
          5    1    3    3  501    0 -0.53141906446E+02  0.32129291565E+02 -0.19090505500E+03  0.20080633362E+03  0.47000000000E+01 0.  1.
         -5    1    3    3    0  501 -0.30680955102E+02  0.45688352906E+02 -0.10711300290E+01  0.55244763704E+02  0.47000000000E+01 0.  1.
          5    1    4    4  502    0 -0.26390821532E+02 -0.33971751138E+02 -0.72002960928E+02  0.84006379037E+02  0.47000000000E+01 0.  1.
         -5    1    4    4    0  502  0.11021368308E+03 -0.43845893333E+02 -0.41401638323E+03  0.43069847211E+03  0.47000000000E+01 0.  1.
<mgrwt>
<rscale>  0 0.36658804E+03</rscale>
<asrwt>0</asrwt>
<pdfrwt beam="1">  1       21 0.71354171E-02 0.36658804E+03</pdfrwt>
<pdfrwt beam="2">  1       21 0.11144242E+00 0.36658804E+03</pdfrwt>
<totfact> 0.87248534E+04</totfact>
</mgrwt>
</event>
<event>
 8    1  0.9569852E-006  0.2971584E+03  0.7546771E-02  0.1086670E+00
         21   -1    0    0  504  503  0.00000000000E+00  0.00000000000E+00  0.10196054946E+04  0.10196054946E+04  0.00000000000E+00 0. -1.
         21   -1    0    0  503  504 -0.00000000000E+00 -0.00000000000E+00 -0.21651288319E+02  0.21651288319E+02  0.00000000000E+00 0. -1.
         25    2    1    2    0    0 -0.28040995569E+02 -0.46309833597E+02  0.70687658759E+03  0.71988201120E+03  0.12499880739E+03 0.  0.
         25    2    1    2    0    0  0.28040995569E+02  0.46309833597E+02  0.29107761867E+03  0.32137477170E+03  0.12499866268E+03 0.  0.
          5    1    3    3  501    0 -0.74155516482E+02 -0.20243736996E+02  0.30829464870E+03  0.31776804423E+03  0.47000000000E+01 0.  1.
         -5    1    3    3    0  501  0.46114520913E+02 -0.26066096601E+02  0.39858193888E+03  0.40211396697E+03  0.47000000000E+01 0.  1.
          5    1    4    4  502    0  0.46695463937E+02 -0.17761799173E+02  0.21170505792E+03  0.21757083769E+03  0.47000000000E+01 0.  1.
         -5    1    4    4    0  502 -0.18654468368E+02  0.64071632770E+02  0.79372560751E+02  0.10380393401E+03  0.47000000000E+01 0.  1.
<mgrwt>
<rscale>  0 0.29715836E+03</rscale>
<asrwt>0</asrwt>
<pdfrwt beam="1">  1       21 0.15686235E+00 0.29715836E+03</pdfrwt>
<pdfrwt beam="2">  1       21 0.33309682E-02 0.29715836E+03</pdfrwt>
<totfact> 0.13551861E+05</totfact>
</mgrwt>
</event>
<event>
 8    1  0.9569852E-006  0.2619809E+03  0.7546771E-02  0.1105959E+00
         21   -1    0    0  504  503  0.00000000000E+00  0.00000000000E+00  0.11406431279E+03  0.11406431279E+03  0.00000000000E+00 0.  1.
         21   -1    0    0  503  504 -0.00000000000E+00 -0.00000000000E+00 -0.15042825495E+03  0.15042825495E+03  0.00000000000E+00 0.  1.
         25    2    1    2    0    0 -0.27932725852E+02  0.13192198565E+02  0.61456957347E+01  0.12890299894E+03  0.12499576907E+03 0.  0.
         25    2    1    2    0    0  0.27932725852E+02 -0.13192198565E+02 -0.42509637892E+02  0.13558956879E+03  0.12499276209E+03 0.  0.
          5    1    3    3  501    0 -0.27692381948E+01  0.61238356371E+02  0.31234349090E+02  0.68959985022E+02  0.47000000000E+01 0.  1.
         -5    1    3    3    0  501 -0.25163487657E+02 -0.48046157806E+02 -0.25088653355E+02  0.59943013923E+02  0.47000000000E+01 0.  1.
          5    1    4    4  502    0  0.43299573906E+01 -0.42198453531E+02  0.31156169469E+02  0.52841791296E+02  0.47000000000E+01 0. -1.
         -5    1    4    4    0  502  0.23602768462E+02  0.29006254966E+02 -0.73665807361E+02  0.82747777495E+02  0.47000000000E+01 0. -1.
<mgrwt>
<rscale>  0 0.26198088E+03</rscale>
<asrwt>0</asrwt>
<pdfrwt beam="1">  1       21 0.17548356E-01 0.26198088E+03</pdfrwt>
<pdfrwt beam="2">  1       21 0.23142808E-01 0.26198088E+03</pdfrwt>
<totfact> 0.50941073E+05</totfact>
</mgrwt>
</event>
<event>
 8    1  0.9569852E-006  0.2731722E+03  0.7546771E-02  0.1099478E+00
         21   -1    0    0  504  503  0.00000000000E+00  0.00000000000E+00  0.10298489934E+03  0.10298489934E+03  0.00000000000E+00 0. -1.
         21   -1    0    0  503  504 -0.00000000000E+00 -0.00000000000E+00 -0.18115053318E+03  0.18115053318E+03  0.00000000000E+00 0. -1.
         25    2    1    2    0    0  0.41525707238E+02 -0.33771118281E+02 -0.25703860368E+02  0.13838813970E+03  0.12500286389E+03 0.  0.
         25    2    1    2    0    0 -0.41525707238E+02  0.33771118281E+02 -0.52461773469E+02  0.14574729281E+03  0.12500065158E+03 0.  0.
          5    1    3    3  501    0  0.20344294883E+02 -0.74059269993E+02 -0.44535906629E+02  0.88905583545E+02  0.47000000000E+01 0.  1.
         -5    1    3    3    0  501  0.21181412354E+02  0.40288151712E+02  0.18832046261E+02  0.49482556159E+02  0.47000000000E+01 0.  1.
          5    1    4    4  502    0 -0.18190054192E+02  0.57625570726E+02  0.21627440280E+02  0.64353870483E+02  0.47000000000E+01 0. -1.
         -5    1    4    4    0  502 -0.23335653046E+02 -0.23854452445E+02 -0.74089213749E+02  0.81393422329E+02  0.47000000000E+01 0. -1.
<mgrwt>
<rscale>  0 0.27317225E+03</rscale>
<asrwt>0</asrwt>
<pdfrwt beam="1">  1       21 0.15843831E-01 0.27317225E+03</pdfrwt>
<pdfrwt beam="2">  1       21 0.27869313E-01 0.27317225E+03</pdfrwt>
<totfact> 0.42932695E+05</totfact>
</mgrwt>
</event>
<event>
 8    1  0.9569852E-006  0.2712558E+03  0.7546771E-02  0.1100563E+00
         21   -1    0    0  504  503  0.00000000000E+00  0.00000000000E+00  0.67353448622E+03  0.67353448622E+03  0.00000000000E+00 0.  1.
         21   -1    0    0  503  504 -0.00000000000E+00 -0.00000000000E+00 -0.27311047812E+02  0.27311047812E+02  0.00000000000E+00 0.  1.
         25    2    1    2    0    0  0.74291765363E+01 -0.11237874036E+02  0.45457628031E+03  0.47164199062E+03  0.12500036087E+03 0.  0.
         25    2    1    2    0    0 -0.74291765363E+01  0.11237874036E+02  0.19164715810E+03  0.22920354341E+03  0.12499659447E+03 0.  0.
          5    1    3    3  501    0  0.23627553763E+02 -0.65025546638E+02  0.25362101596E+03  0.26293020509E+03  0.47000000000E+01 0. -1.
         -5    1    3    3    0  501 -0.16198377227E+02  0.53787672602E+02  0.20095526435E+03  0.20871178552E+03  0.47000000000E+01 0. -1.
          5    1    4    4  502    0 -0.65396973931E+02  0.15555205561E+02  0.10460260569E+03  0.12442878982E+03  0.47000000000E+01 0.  1.
         -5    1    4    4    0  502  0.57967797394E+02 -0.43173315250E+01  0.87044552414E+02  0.10477475360E+03  0.47000000000E+01 0.  1.
<mgrwt>
<rscale>  0 0.27125584E+03</rscale>
<asrwt>0</asrwt>
<pdfrwt beam="1">  1       21 0.10362068E+00 0.27125584E+03</pdfrwt>
<pdfrwt beam="2">  1       21 0.42017002E-02 0.27125584E+03</pdfrwt>
<totfact> 0.26593824E+05</totfact>
</mgrwt>
</event>
<event>
 8    1  0.9569852E-006  0.2540226E+03  0.7546771E-02  0.1110789E+00
         21   -1    0    0  504  503  0.00000000000E+00  0.00000000000E+00  0.81741264772E+02  0.81741264772E+02  0.00000000000E+00 0. -1.
         21   -1    0    0  503  504 -0.00000000000E+00 -0.00000000000E+00 -0.19735285727E+03  0.19735285727E+03  0.00000000000E+00 0. -1.
         25    2    1    2    0    0 -0.85055525011E+01  0.15478823544E+02 -0.42545585778E+02  0.13322263332E+03  0.12500481894E+03 0.  0.
         25    2    1    2    0    0  0.85055525011E+01 -0.15478823544E+02 -0.73066006722E+02  0.14587148872E+03  0.12501164538E+03 0.  0.
          5    1    3    3  501    0 -0.26046609227E+02  0.51068115880E+02  0.18362452701E+02  0.60379201559E+02  0.47000000000E+01 0.  1.
         -5    1    3    3    0  501  0.17541056726E+02 -0.35589292336E+02 -0.60908038478E+02  0.72843431765E+02  0.47000000000E+01 0.  1.
          5    1    4    4  502    0 -0.42868578931E+02 -0.11902430463E+02 -0.81983490011E+02  0.93395746932E+02  0.47000000000E+01 0. -1.
         -5    1    4    4    0  502  0.51374131432E+02 -0.35763930807E+01  0.89174832891E+01  0.52475741787E+02  0.47000000000E+01 0. -1.
<mgrwt>
<rscale>  0 0.25402261E+03</rscale>
<asrwt>0</asrwt>
<pdfrwt beam="1">  1       21 0.12575579E-01 0.25402261E+03</pdfrwt>
<pdfrwt beam="2">  1       21 0.30361978E-01 0.25402261E+03</pdfrwt>
<totfact> 0.55534299E+05</totfact>
</mgrwt>
</event>
<event>
 8    1  0.9569852E-006  0.3044025E+03  0.7546771E-02  0.1083060E+00
         21   -1    0    0  504  503  0.00000000000E+00  0.00000000000E+00  0.28354736130E+03  0.28354736130E+03  0.00000000000E+00 0.  1.
         21   -1    0    0  503  504 -0.00000000000E+00 -0.00000000000E+00 -0.81697899123E+02  0.81697899123E+02  0.00000000000E+00 0.  1.
         25    2    1    2    0    0  0.63431284600E+02 -0.55076963582E+02  0.12730758951E+03  0.19720396635E+03  0.12500072885E+03 0.  0.
         25    2    1    2    0    0 -0.63431284600E+02  0.55076963582E+02  0.74541872669E+02  0.16804129408E+03  0.12499754378E+03 0.  0.
          5    1    3    3  501    0  0.27953223766E+02 -0.38808600118E+02  0.14597676539E+03  0.15368407919E+03  0.47000000000E+01 0.  1.
         -5    1    3    3    0  501  0.35478060834E+02 -0.16268363463E+02 -0.18669175882E+02  0.43519887160E+02  0.47000000000E+01 0.  1.
          5    1    4    4  502    0 -0.70576149636E+02 -0.18891165897E+02  0.20473396221E+02  0.76020516963E+02  0.47000000000E+01 0. -1.
         -5    1    4    4    0  502  0.71448650363E+01  0.73968129479E+02  0.54068476448E+02  0.92020777113E+02  0.47000000000E+01 0. -1.
<mgrwt>
<rscale>  0 0.30440252E+03</rscale>
<asrwt>0</asrwt>
<pdfrwt beam="1">  1       21 0.43622670E-01 0.30440252E+03</pdfrwt>
<pdfrwt beam="2">  1       21 0.12568908E-01 0.30440252E+03</pdfrwt>
<totfact> 0.26545509E+05</totfact>
</mgrwt>
</event>
<event>
 8    1  0.9569852E-006  0.2716981E+03  0.7546771E-02  0.1100312E+00
         21   -1    0    0  504  503  0.00000000000E+00  0.00000000000E+00  0.12552284420E+03  0.12552284420E+03  0.00000000000E+00 0.  1.
         21   -1    0    0  503  504 -0.00000000000E+00 -0.00000000000E+00 -0.14702474387E+03  0.14702474387E+03  0.00000000000E+00 0.  1.
         25    2    1    2    0    0  0.93371544288E+01 -0.52383049030E+02 -0.10493518914E+02  0.13625714882E+03  0.12499892155E+03 0.  0.
         25    2    1    2    0    0 -0.93371544288E+01  0.52383049030E+02 -0.11008380759E+02  0.13629043924E+03  0.12499093208E+03 0.  0.
          5    1    3    3  501    0 -0.14804247594E+02 -0.32155794551E+02  0.53763311992E+02  0.64542579639E+02  0.47000000000E+01 0.  1.
         -5    1    3    3    0  501  0.24141402023E+02 -0.20227254479E+02 -0.64256830907E+02  0.71714569186E+02  0.47000000000E+01 0.  1.
          5    1    4    4  502    0 -0.66105204332E+02  0.36325865975E+02 -0.14707849142E+02  0.76992710077E+02  0.47000000000E+01 0.  1.
         -5    1    4    4    0  502  0.56768049903E+02  0.16057183055E+02  0.36994683835E+01  0.59297729162E+02  0.47000000000E+01 0.  1.
<mgrwt>
<rscale>  0 0.27169810E+03</rscale>
<asrwt>0</asrwt>
<pdfrwt beam="1">  1       21 0.19311207E-01 0.27169810E+03</pdfrwt>
<pdfrwt beam="2">  1       21 0.22619191E-01 0.27169810E+03</pdfrwt>
<totfact> 0.44429571E+05</totfact>
</mgrwt>
</event>
<event>
 8    1  0.9569852E-006  0.3214805E+03  0.7546771E-02  0.1074970E+00
         21   -1    0    0  504  503  0.00000000000E+00  0.00000000000E+00  0.59703742094E+03  0.59703742094E+03  0.00000000000E+00 0.  1.
         21   -1    0    0  503  504 -0.00000000000E+00 -0.00000000000E+00 -0.43276070885E+02  0.43276070885E+02  0.00000000000E+00 0.  1.
         25    2    1    2    0    0  0.83754031804E+02  0.55975233551E+02  0.29296840095E+03  0.33406965775E+03  0.12499635058E+03 0.  0.
         25    2    1    2    0    0 -0.83754031804E+02 -0.55975233551E+02  0.26079294911E+03  0.30624383408E+03  0.12499743594E+03 0.  0.
          5    1    3    3  501    0  0.81757423643E+02  0.73251742122E+02  0.13045139414E+03  0.17055717598E+03  0.47000000000E+01 0. -1.
         -5    1    3    3    0  501  0.19966081609E+01 -0.17276508572E+02  0.16251700681E+03  0.16351248177E+03  0.47000000000E+01 0. -1.
          5    1    4    4  502    0 -0.97604244193E+02 -0.21026409742E+02  0.24607311313E+03  0.26559888064E+03  0.47000000000E+01 0. -1.
         -5    1    4    4    0  502  0.13850212389E+02 -0.34948823809E+02  0.14719835977E+02  0.40644953439E+02  0.47000000000E+01 0. -1.
<mgrwt>
<rscale>  0 0.32148054E+03</rscale>
<asrwt>0</asrwt>
<pdfrwt beam="1">  1       21 0.91851905E-01 0.32148054E+03</pdfrwt>
<pdfrwt beam="2">  1       21 0.66578575E-02 0.32148054E+03</pdfrwt>
<totfact> 0.15894575E+05</totfact>
</mgrwt>
</event>
<event>
 8    1  0.9569852E-006  0.4265399E+03  0.7546771E-02  0.1034959E+00
         21   -1    0    0  504  503  0.00000000000E+00  0.00000000000E+00  0.83743185775E+02  0.83743185775E+02  0.00000000000E+00 0.  1.
         21   -1    0    0  503  504 -0.00000000000E+00 -0.00000000000E+00 -0.54313769189E+03  0.54313769189E+03  0.00000000000E+00 0.  1.
         25    2    1    2    0    0 -0.11719787353E+03 -0.40634150527E+02 -0.40651028134E+03  0.44301115572E+03  0.12498719737E+03 0.  0.
         25    2    1    2    0    0  0.11719787353E+03  0.40634150527E+02 -0.52884224773E+02  0.18386972195E+03  0.12499943068E+03 0.  0.
          5    1    3    3  501    0  0.76295354186E+01  0.30154937043E+02 -0.55953469363E+02  0.64190425864E+02  0.47000000000E+01 0.  1.
         -5    1    3    3    0  501 -0.12482740895E+03 -0.70789087570E+02 -0.35055681198E+03  0.37882072986E+03  0.47000000000E+01 0.  1.
          5    1    4    4  502    0  0.59284620638E+02 -0.15481866549E+02  0.29782431983E+02  0.68289367334E+02  0.47000000000E+01 0. -1.
         -5    1    4    4    0  502  0.57913252891E+02  0.56116017076E+02 -0.82666656756E+02  0.11558035461E+03  0.47000000000E+01 0. -1.
<mgrwt>
<rscale>  0 0.42653994E+03</rscale>
<asrwt>0</asrwt>
<pdfrwt beam="1">  1       21 0.12883567E-01 0.42653994E+03</pdfrwt>
<pdfrwt beam="2">  1       21 0.83559645E-01 0.42653994E+03</pdfrwt>
<totfact> 0.59629352E+04</totfact>
</mgrwt>
</event>
<event>
 8    1  0.9569852E-006  0.3266808E+03  0.7546771E-02  0.1072615E+00
         21   -1    0    0  504  503  0.00000000000E+00  0.00000000000E+00  0.43749319354E+03  0.43749319354E+03  0.00000000000E+00 0. -1.
         21   -1    0    0  503  504 -0.00000000000E+00 -0.00000000000E+00 -0.60984001352E+02  0.60984001352E+02  0.00000000000E+00 0. -1.
         25    2    1    2    0    0  0.89852212800E+02 -0.23512672056E+02  0.11306684517E+03  0.19244980293E+03  0.12500619697E+03 0.  0.
         25    2    1    2    0    0 -0.89852212800E+02  0.23512672056E+02  0.26344234702E+03  0.30602739196E+03  0.12499851412E+03 0.  0.
          5    1    3    3  501    0 -0.13590196264E+02  0.32223256297E+02  0.11643172961E+02  0.37157572007E+02  0.47000000000E+01 0. -1.
         -5    1    3    3    0  501  0.10344240906E+03 -0.55735928353E+02  0.10142367221E+03  0.15529223093E+03  0.47000000000E+01 0. -1.
          5    1    4    4  502    0 -0.10818754993E+03  0.38375994509E+02  0.25638189190E+03  0.28094666293E+03  0.47000000000E+01 0.  1.
         -5    1    4    4    0  502  0.18335337134E+02 -0.14863322454E+02  0.70604551182E+01  0.25080729030E+02  0.47000000000E+01 0.  1.
<mgrwt>
<rscale>  0 0.32668080E+03</rscale>
<asrwt>0</asrwt>
<pdfrwt beam="1">  1       21 0.67306643E-01 0.32668080E+03</pdfrwt>
<pdfrwt beam="2">  1       21 0.93821544E-02 0.32668080E+03</pdfrwt>
<totfact> 0.17668010E+05</totfact>
</mgrwt>
</event>
<event>
 8    1  0.9569852E-006  0.3351546E+03  0.7546771E-02  0.1068879E+00
         21   -1    0    0  504  503  0.00000000000E+00  0.00000000000E+00  0.11398325635E+04  0.11398325635E+04  0.00000000000E+00 0. -1.
         21   -1    0    0  503  504 -0.00000000000E+00 -0.00000000000E+00 -0.24637079145E+02  0.24637079145E+02  0.00000000000E+00 0. -1.
         25    2    1    2    0    0 -0.64070463738E+02 -0.91127006243E+02  0.53364129500E+03  0.55929236687E+03  0.12500305722E+03 0.  0.
         25    2    1    2    0    0  0.64070463738E+02  0.91127006243E+02  0.58155418938E+03  0.60517727581E+03  0.12500041750E+03 0.  0.
          5    1    3    3  501    0 -0.56649281642E+02  0.65266724165E+00  0.92130522422E+02  0.10825751820E+03  0.47000000000E+01 0. -1.
         -5    1    3    3    0  501 -0.74211820958E+01 -0.91779673485E+02  0.44151077258E+03  0.45103484867E+03  0.47000000000E+01 0. -1.
          5    1    4    4  502    0  0.88413795857E+01  0.55140480655E+02  0.48467515347E+03  0.48790443428E+03  0.47000000000E+01 0.  1.
         -5    1    4    4    0  502  0.55229084152E+02  0.35986525589E+02  0.96879035911E+02  0.11727284153E+03  0.47000000000E+01 0.  1.
<mgrwt>
<rscale>  0 0.33515456E+03</rscale>
<asrwt>0</asrwt>
<pdfrwt beam="1">  1       21 0.17535881E+00 0.33515456E+03</pdfrwt>
<pdfrwt beam="2">  1       21 0.37903208E-02 0.33515456E+03</pdfrwt>
<totfact> 0.78909727E+04</totfact>
</mgrwt>
</event>
<event>
 8    1  0.9569852E-006  0.3980703E+03  0.7546771E-02  0.1044450E+00
         21   -1    0    0  504  503  0.00000000000E+00  0.00000000000E+00  0.18338985730E+03  0.18338985730E+03  0.00000000000E+00 0. -1.
         21   -1    0    0  503  504 -0.00000000000E+00 -0.00000000000E+00 -0.21601521097E+03  0.21601521097E+03  0.00000000000E+00 0. -1.
         25    2    1    2    0    0 -0.12065330232E+03 -0.93120199748E+02  0.11376761967E+02  0.19743911582E+03  0.12499673108E+03 0.  0.
         25    2    1    2    0    0  0.12065330232E+03  0.93120199748E+02 -0.44002115631E+02  0.20196595245E+03  0.12500187521E+03 0.  0.
          5    1    3    3  501    0 -0.67039053330E+02  0.15945164943E+02  0.28306670209E+02  0.74644762273E+02  0.47000000000E+01 0. -1.
         -5    1    3    3    0  501 -0.53614248993E+02 -0.10906536469E+03 -0.16929908242E+02  0.12279435355E+03  0.47000000000E+01 0. -1.
          5    1    4    4  502    0  0.47808377976E+02  0.10205193952E+03  0.61356868026E+01  0.11296006382E+03  0.47000000000E+01 0.  1.
         -5    1    4    4    0  502  0.72844924347E+02 -0.89317397728E+01 -0.50137802433E+02  0.89005888633E+02  0.47000000000E+01 0.  1.
<mgrwt>
<rscale>  0 0.39807034E+03</rscale>
<asrwt>0</asrwt>
<pdfrwt beam="1">  1       21 0.28213824E-01 0.39807034E+03</pdfrwt>
<pdfrwt beam="2">  1       21 0.33233109E-01 0.39807034E+03</pdfrwt>
<totfact> 0.98659568E+04</totfact>
</mgrwt>
</event>
<event>
 8    1  0.9569852E-006  0.3172694E+03  0.7546771E-02  0.1076913E+00
         21   -1    0    0  504  503  0.00000000000E+00  0.00000000000E+00  0.67004645102E+02  0.67004645102E+02  0.00000000000E+00 0.  1.
         21   -1    0    0  503  504 -0.00000000000E+00 -0.00000000000E+00 -0.37557049981E+03  0.37557049981E+03  0.00000000000E+00 0.  1.
         25    2    1    2    0    0  0.24242416596E+02  0.18342404156E+02 -0.24802622243E+02  0.13101346532E+03  0.12500087788E+03 0.  0.
         25    2    1    2    0    0 -0.24242416596E+02 -0.18342404156E+02 -0.28376323246E+03  0.31156167959E+03  0.12499987816E+03 0.  0.
          5    1    3    3  501    0 -0.47185373430E+02 -0.10212511059E+02  0.41582436638E+01  0.48684040899E+02  0.47000000000E+01 0.  1.
         -5    1    3    3    0  501  0.71427790026E+02  0.28554915215E+02 -0.28960865907E+02  0.82329424418E+02  0.47000000000E+01 0.  1.
          5    1    4    4  502    0 -0.41437578746E+02 -0.24914996835E+02 -0.28802295919E+03  0.29209098757E+03  0.47000000000E+01 0. -1.
         -5    1    4    4    0  502  0.17195162150E+02  0.65725926790E+01  0.42597267298E+01  0.19470692019E+02  0.47000000000E+01 0. -1.
<mgrwt>
<rscale>  0 0.31726940E+03</rscale>
<asrwt>0</asrwt>
<pdfrwt beam="1">  1       21 0.10308407E-01 0.31726940E+03</pdfrwt>
<pdfrwt beam="2">  1       21 0.57780077E-01 0.31726940E+03</pdfrwt>
<totfact> 0.20902916E+05</totfact>
</mgrwt>
</event>
<event>
 8    1  0.9569852E-006  0.2787832E+03  0.7546771E-02  0.1096355E+00
         21   -1    0    0  504  503  0.00000000000E+00  0.00000000000E+00  0.12168731683E+02  0.12168731683E+02  0.00000000000E+00 0.  1.
         21   -1    0    0  503  504 -0.00000000000E+00 -0.00000000000E+00 -0.15967162626E+04  0.15967162626E+04  0.00000000000E+00 0.  1.
         25    2    1    2    0    0 -0.35716990925E+02  0.50619931975E+01 -0.10810085919E+04  0.10888093286E+04  0.12499940444E+03 0.  0.
         25    2    1    2    0    0  0.35716990925E+02 -0.50619931975E+01 -0.50353893907E+03  0.52007566572E+03  0.12500363073E+03 0.  0.
          5    1    3    3  501    0 -0.20108630472E+02  0.61016558749E+02 -0.38371492737E+03  0.38908432627E+03  0.47000000000E+01 0. -1.
         -5    1    3    3    0  501 -0.15608360453E+02 -0.55954565552E+02 -0.69729366449E+03  0.69972500231E+03  0.47000000000E+01 0. -1.
          5    1    4    4  502    0  0.51621021562E+02  0.46677248494E+02 -0.35785786113E+03  0.36459269626E+03  0.47000000000E+01 0.  1.
         -5    1    4    4    0  502 -0.15904030637E+02 -0.51739241691E+02 -0.14568107795E+03  0.15548296946E+03  0.47000000000E+01 0.  1.
<mgrwt>
<rscale>  0 0.27878315E+03</rscale>
<asrwt>0</asrwt>
<pdfrwt beam="1">  1       21 0.18721128E-02 0.27878315E+03</pdfrwt>
<pdfrwt beam="2">  1       21 0.24564862E+00 0.27878315E+03</pdfrwt>
<totfact> 0.91856115E+04</totfact>
</mgrwt>
</event>
<event>
 8    1  0.9569852E-006  0.2661621E+03  0.7546771E-02  0.1103496E+00
         21   -1    0    0  504  503  0.00000000000E+00  0.00000000000E+00  0.12983135432E+04  0.12983135432E+04  0.00000000000E+00 0. -1.
         21   -1    0    0  503  504 -0.00000000000E+00 -0.00000000000E+00 -0.13641213669E+02  0.13641213669E+02  0.00000000000E+00 0. -1.
         25    2    1    2    0    0 -0.59889288014E+01  0.43829876630E+02  0.58626014795E+03  0.60106830710E+03  0.12500089347E+03 0.  0.
         25    2    1    2    0    0  0.59889288014E+01 -0.43829876630E+02  0.69841218163E+03  0.71088644982E+03  0.12499217470E+03 0.  0.
          5    1    3    3  501    0 -0.28101547940E+02 -0.12898986740E+02  0.37103570114E+02  0.48526753145E+02  0.47000000000E+01 0.  1.
         -5    1    3    3    0  501  0.22112619139E+02  0.56728863370E+02  0.54915657784E+03  0.55254155396E+03  0.47000000000E+01 0.  1.
          5    1    4    4  502    0 -0.10329006616E+02 -0.57412422611E+02  0.67965262102E+03  0.68216761130E+03  0.47000000000E+01 0. -1.
         -5    1    4    4    0  502  0.16317935417E+02  0.13582545980E+02  0.18759560604E+02  0.28718838515E+02  0.47000000000E+01 0. -1.
<mgrwt>
<rscale>  0 0.26616215E+03</rscale>
<asrwt>0</asrwt>
<pdfrwt beam="1">  1       21 0.19974045E+00 0.26616215E+03</pdfrwt>
<pdfrwt beam="2">  1       21 0.20986493E-02 0.26616215E+03</pdfrwt>
<totfact> 0.14811647E+05</totfact>
</mgrwt>
</event>
<event>
 8    1  0.9569852E-006  0.3505940E+03  0.7546771E-02  0.1062371E+00
         21   -1    0    0  504  503  0.00000000000E+00  0.00000000000E+00  0.25639762888E+03  0.25639762888E+03  0.00000000000E+00 0. -1.
         21   -1    0    0  503  504 -0.00000000000E+00 -0.00000000000E+00 -0.11984916301E+03  0.11984916301E+03  0.00000000000E+00 0. -1.
         25    2    1    2    0    0  0.70506549711E+02  0.78611315264E+02  0.85413333971E+00  0.16363651008E+03  0.12500106179E+03 0.  0.
         25    2    1    2    0    0 -0.70506549711E+02 -0.78611315264E+02  0.13569433252E+03  0.21261028181E+03  0.12505705743E+03 0.  0.
          5    1    3    3  501    0  0.65793665676E+02  0.55587583508E+02  0.56453531967E+02  0.10309159595E+03  0.47000000000E+01 0. -1.
         -5    1    3    3    0  501  0.47128840343E+01  0.23023731757E+02 -0.55599398627E+02  0.60544914135E+02  0.47000000000E+01 0. -1.
          5    1    4    4  502    0 -0.56990791626E+01 -0.23693030301E+02 -0.22171324292E+02  0.33279074642E+02  0.47000000000E+01 0. -1.
         -5    1    4    4    0  502 -0.64807470548E+02 -0.54918284963E+02  0.15786565682E+03  0.17933120717E+03  0.47000000000E+01 0. -1.
<mgrwt>
<rscale>  0 0.35059402E+03</rscale>
<asrwt>0</asrwt>
<pdfrwt beam="1">  1       21 0.39445789E-01 0.35059402E+03</pdfrwt>
<pdfrwt beam="2">  1       21 0.18438333E-01 0.35059402E+03</pdfrwt>
<totfact> 0.15946781E+05</totfact>
</mgrwt>
</event>
<event>
 8    1  0.9569852E-006  0.2847961E+03  0.7546771E-02  0.1093098E+00
         21   -1    0    0  504  503  0.00000000000E+00  0.00000000000E+00  0.47623799476E+02  0.47623799476E+02  0.00000000000E+00 0. -1.
         21   -1    0    0  503  504 -0.00000000000E+00 -0.00000000000E+00 -0.42577872845E+03  0.42577872845E+03  0.00000000000E+00 0. -1.
         25    2    1    2    0    0  0.54091757267E+02 -0.12164230423E+02 -0.12305500068E+03  0.18395969778E+03  0.12499900203E+03 0.  0.
         25    2    1    2    0    0 -0.54091757267E+02  0.12164230423E+02 -0.25509992829E+03  0.28944283015E+03  0.12500916688E+03 0.  0.
          5    1    3    3  501    0 -0.39126630241E+02  0.10300695474E+02 -0.37615711630E+02  0.55443929177E+02  0.47000000000E+01 0. -1.
         -5    1    3    3    0  501  0.93218387508E+02 -0.22464925897E+02 -0.85439289051E+02  0.12851576860E+03  0.47000000000E+01 0. -1.
          5    1    4    4  502    0 -0.93107119581E+02  0.73403282519E+01 -0.14599828173E+03  0.17337936556E+03  0.47000000000E+01 0.  1.
         -5    1    4    4    0  502  0.39015362314E+02  0.48239021714E+01 -0.10910164657E+03  0.11606346459E+03  0.47000000000E+01 0.  1.
<mgrwt>
<rscale>  0 0.28479607E+03</rscale>
<asrwt>0</asrwt>
<pdfrwt beam="1">  1       21 0.73267387E-02 0.28479607E+03</pdfrwt>
<pdfrwt beam="2">  1       21 0.65504417E-01 0.28479607E+03</pdfrwt>
<totfact> 0.29275464E+05</totfact>
</mgrwt>
</event>
<event>
 8    1  0.9569852E-006  0.3607248E+03  0.7546771E-02  0.1058297E+00
         21   -1    0    0  504  503  0.00000000000E+00  0.00000000000E+00  0.12204682671E+03  0.12204682671E+03  0.00000000000E+00 0. -1.
         21   -1    0    0  503  504 -0.00000000000E+00 -0.00000000000E+00 -0.26654186250E+03  0.26654186250E+03  0.00000000000E+00 0. -1.
         25    2    1    2    0    0 -0.12329718946E+03  0.10221279283E+02 -0.11534721702E+03  0.21032256582E+03  0.12499571889E+03 0.  0.
         25    2    1    2    0    0  0.12329718946E+03 -0.10221279283E+02 -0.29147818769E+02  0.17826612338E+03  0.12499017533E+03 0.  0.
          5    1    3    3  501    0 -0.19703951448E+01 -0.11334700389E+02  0.22291483383E+02  0.25521718620E+02  0.47000000000E+01 0. -1.
         -5    1    3    3    0  501 -0.12132679431E+03  0.21555979672E+02 -0.13763870040E+03  0.18480084720E+03  0.47000000000E+01 0. -1.
          5    1    4    4  502    0 -0.11741139453E+02  0.30882501511E+02 -0.14117019392E+02  0.36234838095E+02  0.47000000000E+01 0.  1.
         -5    1    4    4    0  502  0.13503832891E+03 -0.41103780794E+02 -0.15030799377E+02  0.14203128529E+03  0.47000000000E+01 0.  1.
<mgrwt>
<rscale>  0 0.36072476E+03</rscale>
<asrwt>0</asrwt>
<pdfrwt beam="1">  1       21 0.18776435E-01 0.36072476E+03</pdfrwt>
<pdfrwt beam="2">  1       21 0.41006440E-01 0.36072476E+03</pdfrwt>
<totfact> 0.14201884E+05</totfact>
</mgrwt>
</event>
<event>
 8    1  0.9569852E-006  0.3124160E+03  0.7546771E-02  0.1079194E+00
         21   -1    0    0  504  503  0.00000000000E+00  0.00000000000E+00  0.21910347293E+03  0.21910347293E+03  0.00000000000E+00 0.  1.
         21   -1    0    0  503  504 -0.00000000000E+00 -0.00000000000E+00 -0.11136721685E+03  0.11136721685E+03  0.00000000000E+00 0.  1.
         25    2    1    2    0    0 -0.18982837967E+02  0.51745663300E+02  0.13400601799E+03  0.19135458888E+03  0.12498401506E+03 0.  0.
         25    2    1    2    0    0  0.18982837967E+02 -0.51745663300E+02 -0.26269761917E+02  0.13911610089E+03  0.12500090931E+03 0.  0.
          5    1    3    3  501    0  0.14650068810E+01  0.77259809882E+02  0.13784766544E+03  0.15809899853E+03  0.47000000000E+01 0. -1.
         -5    1    3    3    0  501 -0.20447844848E+02 -0.25514146582E+02 -0.38416474494E+01  0.33255590355E+02  0.47000000000E+01 0. -1.
          5    1    4    4  502    0  0.27488677973E+02  0.24913831882E+02 -0.46079557049E+02  0.59344266897E+02  0.47000000000E+01 0. -1.
         -5    1    4    4    0  502 -0.85058400050E+01 -0.76659495183E+02  0.19809795131E+02  0.79771833995E+02  0.47000000000E+01 0. -1.
<mgrwt>
<rscale>  0 0.31241603E+03</rscale>
<asrwt>0</asrwt>
<pdfrwt beam="1">  1       21 0.33708226E-01 0.31241603E+03</pdfrwt>
<pdfrwt beam="2">  1       21 0.17133418E-01 0.31241603E+03</pdfrwt>
<totfact> 0.25326809E+05</totfact>
</mgrwt>
</event>
<event>
 8    1  0.9569852E-006  0.3267409E+03  0.7546771E-02  0.1072588E+00
         21   -1    0    0  504  503  0.00000000000E+00  0.00000000000E+00  0.34105839959E+03  0.34105839959E+03  0.00000000000E+00 0. -1.
         21   -1    0    0  503  504 -0.00000000000E+00 -0.00000000000E+00 -0.78256126167E+02  0.78256126167E+02  0.00000000000E+00 0. -1.
         25    2    1    2    0    0 -0.19361172246E+02  0.55348351586E+02  0.19392447809E+02  0.13947285937E+03  0.12505325447E+03 0.  0.
         25    2    1    2    0    0  0.19361172246E+02 -0.55348351586E+02  0.24340982562E+03  0.27984166639E+03  0.12499888010E+03 0.  0.
          5    1    3    3  501    0 -0.26420783236E+02  0.80352781048E+01 -0.48665608261E+02  0.56152069494E+02  0.47000000000E+01 0.  1.
         -5    1    3    3    0  501  0.70596109896E+01  0.47313073481E+02  0.68058056070E+02  0.83320789876E+02  0.47000000000E+01 0.  1.
          5    1    4    4  502    0  0.26672092776E+02 -0.62468726877E+02  0.25486091557E+03  0.26379901186E+03  0.47000000000E+01 0.  1.
         -5    1    4    4    0  502 -0.73109205298E+01  0.71203752908E+01 -0.11451089956E+02  0.16042654532E+02  0.47000000000E+01 0.  1.
<mgrwt>
<rscale>  0 0.32674093E+03</rscale>
<asrwt>0</asrwt>
<pdfrwt beam="1">  1       21 0.52470522E-01 0.32674093E+03</pdfrwt>
<pdfrwt beam="2">  1       21 0.12039404E-01 0.32674093E+03</pdfrwt>
<totfact> 0.19395030E+05</totfact>
</mgrwt>
</event>
<event>
 8    1  0.9569852E-006  0.2620335E+03  0.7546771E-02  0.1105928E+00
         21   -1    0    0  504  503  0.00000000000E+00  0.00000000000E+00  0.10014509125E+03  0.10014509125E+03  0.00000000000E+00 0. -1.
         21   -1    0    0  503  504 -0.00000000000E+00 -0.00000000000E+00 -0.17140521632E+03  0.17140521632E+03  0.00000000000E+00 0. -1.
         25    2    1    2    0    0  0.27474335254E+02 -0.14619590176E+02 -0.10856848151E+02  0.12927591033E+03  0.12500327325E+03 0.  0.
         25    2    1    2    0    0 -0.27474335254E+02  0.14619590176E+02 -0.60403276924E+02  0.14227439724E+03  0.12499950693E+03 0.  0.
          5    1    3    3  501    0  0.73039778390E+02  0.76072307146E+01 -0.22690096103E+02  0.77003958648E+02  0.47000000000E+01 0. -1.
         -5    1    3    3    0  501 -0.45565443136E+02 -0.22226820891E+02  0.11833247951E+02  0.52271951678E+02  0.47000000000E+01 0. -1.
          5    1    4    4  502    0 -0.27913551247E+02  0.65700500659E+02 -0.55880429706E+02  0.90776839305E+02  0.47000000000E+01 0. -1.
         -5    1    4    4    0  502  0.43921599325E+00 -0.51080910482E+02 -0.45228472180E+01  0.51497557936E+02  0.47000000000E+01 0. -1.
<mgrwt>
<rscale>  0 0.26203352E+03</rscale>
<asrwt>0</asrwt>
<pdfrwt beam="1">  1       21 0.15406937E-01 0.26203352E+03</pdfrwt>
<pdfrwt beam="2">  1       21 0.26370033E-01 0.26203352E+03</pdfrwt>
<totfact> 0.50420321E+05</totfact>
</mgrwt>
</event>
<event>
 8    1  0.9569852E-006  0.4081499E+03  0.7546771E-02  0.1040994E+00
         21   -1    0    0  504  503  0.00000000000E+00  0.00000000000E+00  0.10319810409E+04  0.10319810409E+04  0.00000000000E+00 0.  1.
         21   -1    0    0  503  504 -0.00000000000E+00 -0.00000000000E+00 -0.40355954004E+02  0.40355954004E+02  0.00000000000E+00 0.  1.
         25    2    1    2    0    0  0.32471585773E+02  0.12062800690E+02  0.90973584914E+03  0.91893589993E+03  0.12499583166E+03 0.  0.
         25    2    1    2    0    0 -0.32471585773E+02 -0.12062800690E+02  0.81889237753E+02  0.15340109497E+03  0.12500453446E+03 0.  0.
          5    1    3    3  501    0  0.52321979932E+02  0.57772563810E+02  0.62148661899E+03  0.62637286523E+03  0.47000000000E+01 0.  1.
         -5    1    3    3    0  501 -0.19850394159E+02 -0.45709763120E+02  0.28824923014E+03  0.29256303469E+03  0.47000000000E+01 0.  1.
          5    1    4    4  502    0 -0.68532037079E+02 -0.33263006939E+02  0.81006657214E+02  0.11129796157E+03  0.47000000000E+01 0.  1.
         -5    1    4    4    0  502  0.36060451307E+02  0.21200206249E+02  0.88258053934E+00  0.42103133397E+02  0.47000000000E+01 0.  1.
<mgrwt>
<rscale>  0 0.40814987E+03</rscale>
<asrwt>0</asrwt>
<pdfrwt beam="1">  1       21 0.15876629E+00 0.40814987E+03</pdfrwt>
<pdfrwt beam="2">  1       21 0.62086091E-02 0.40814987E+03</pdfrwt>
<totfact> 0.43716102E+04</totfact>
</mgrwt>
</event>
<event>
 8    1  0.9569852E-006  0.5071331E+03  0.7546771E-02  0.1011934E+00
         21   -1    0    0  504  503  0.00000000000E+00  0.00000000000E+00  0.57783093042E+03  0.57783093042E+03  0.00000000000E+00 0. -1.
         21   -1    0    0  503  504 -0.00000000000E+00 -0.00000000000E+00 -0.11127129358E+03  0.11127129358E+03  0.00000000000E+00 0. -1.
         25    2    1    2    0    0 -0.22463401226E+02 -0.41473253464E+01  0.53144149366E+03  0.54642493251E+03  0.12501336321E+03 0.  0.
         25    2    1    2    0    0  0.22463401226E+02  0.41473253464E+01 -0.64881856826E+02  0.14267729148E+03  0.12500139782E+03 0.  0.
          5    1    3    3  501    0 -0.77806586337E+00  0.54252707303E+02  0.14353404034E+03  0.15351896421E+03  0.47000000000E+01 0.  1.
         -5    1    3    3    0  501 -0.21685335362E+02 -0.58400032649E+02  0.38790745332E+03  0.39290596830E+03  0.47000000000E+01 0.  1.
          5    1    4    4  502    0 -0.25147529846E+02  0.26238380966E+02 -0.79882751461E+02  0.87887398836E+02  0.47000000000E+01 0. -1.
         -5    1    4    4    0  502  0.47610931072E+02 -0.22091055620E+02  0.15000894636E+02  0.54789892643E+02  0.47000000000E+01 0. -1.
<mgrwt>
<rscale>  0 0.50713310E+03</rscale>
<asrwt>0</asrwt>
<pdfrwt beam="1">  1       21 0.88897064E-01 0.50713310E+03</pdfrwt>
<pdfrwt beam="2">  1       21 0.17118661E-01 0.50713310E+03</pdfrwt>
<totfact> 0.29888294E+04</totfact>
</mgrwt>
</event>
<event>
 8    1  0.9569852E-006  0.4655010E+03  0.7546771E-02  0.1023198E+00
         21   -1    0    0  504  503  0.00000000000E+00  0.00000000000E+00  0.50468417590E+03  0.50468417590E+03  0.00000000000E+00 0.  1.
         21   -1    0    0  503  504 -0.00000000000E+00 -0.00000000000E+00 -0.10734001270E+03  0.10734001270E+03  0.00000000000E+00 0.  1.
         25    2    1    2    0    0 -0.37730415556E+02  0.68770385356E+02  0.43529869262E+03  0.45963229552E+03  0.12499578044E+03 0.  0.
         25    2    1    2    0    0  0.37730415556E+02 -0.68770385356E+02 -0.37954529421E+02  0.15239189308E+03  0.12501916899E+03 0.  0.
          5    1    3    3  501    0  0.23387786360E+02  0.62473573011E+02  0.33733498622E+03  0.34389957662E+03  0.47000000000E+01 0. -1.
         -5    1    3    3    0  501 -0.61118201916E+02  0.62968123443E+01  0.97963706403E+02  0.11573271890E+03  0.47000000000E+01 0. -1.
          5    1    4    4  502    0  0.77594768304E+02 -0.24897999396E+02  0.40561648059E+00  0.81627893313E+02  0.47000000000E+01 0.  1.
         -5    1    4    4    0  502 -0.39864352748E+02 -0.43872385960E+02 -0.38360145902E+02  0.70763999770E+02  0.47000000000E+01 0.  1.
<mgrwt>
<rscale>  0 0.46550105E+03</rscale>
<asrwt>0</asrwt>
<pdfrwt beam="1">  1       21 0.77643718E-01 0.46550105E+03</pdfrwt>
<pdfrwt beam="2">  1       21 0.16513848E-01 0.46550105E+03</pdfrwt>
<totfact> 0.44250209E+04</totfact>
</mgrwt>
</event>
<event>
 8    1  0.9569852E-006  0.3218365E+03  0.7546771E-02  0.1074807E+00
         21   -1    0    0  504  503  0.00000000000E+00  0.00000000000E+00  0.10550266038E+03  0.10550266038E+03  0.00000000000E+00 0.  1.
         21   -1    0    0  503  504 -0.00000000000E+00 -0.00000000000E+00 -0.24544108837E+03  0.24544108837E+03  0.00000000000E+00 0.  1.
         25    2    1    2    0    0  0.84574697762E+02 -0.41908674427E+02 -0.11017639554E+03  0.19150196646E+03  0.12499979412E+03 0.  0.
         25    2    1    2    0    0 -0.84574697762E+02  0.41908674427E+02 -0.29762032447E+02  0.15944178230E+03  0.12500674731E+03 0.  0.
          5    1    3    3  501    0  0.82253235857E+02 -0.78381463824E+01 -0.73894021689E+01  0.83088655135E+02  0.47000000000E+01 0.  1.
         -5    1    3    3    0  501  0.23214619055E+01 -0.34070528045E+02 -0.10278699337E+03  0.10841331132E+03  0.47000000000E+01 0.  1.
          5    1    4    4  502    0  0.27589027857E+02  0.26153036119E+02  0.95140930592E+01  0.39468262225E+02  0.47000000000E+01 0. -1.
         -5    1    4    4    0  502 -0.11216372562E+03  0.15755638308E+02 -0.39276125507E+02  0.11997352007E+03  0.47000000000E+01 0. -1.
<mgrwt>
<rscale>  0 0.32183653E+03</rscale>
<asrwt>0</asrwt>
<pdfrwt beam="1">  1       21 0.16231179E-01 0.32183653E+03</pdfrwt>
<pdfrwt beam="2">  1       21 0.37760167E-01 0.32183653E+03</pdfrwt>
<totfact> 0.22241459E+05</totfact>
</mgrwt>
</event>
<event>
 8    1  0.9569852E-006  0.2712918E+03  0.7546771E-02  0.1100543E+00
         21   -1    0    0  504  503  0.00000000000E+00  0.00000000000E+00  0.78108534034E+02  0.78108534034E+02  0.00000000000E+00 0. -1.
         21   -1    0    0  503  504 -0.00000000000E+00 -0.00000000000E+00 -0.23556721974E+03  0.23556721974E+03  0.00000000000E+00 0. -1.
         25    2    1    2    0    0 -0.24356340629E+01  0.47369039758E+02 -0.52229020270E+02  0.14353621552E+03  0.12500006546E+03 0.  0.
         25    2    1    2    0    0  0.24356340629E+01 -0.47369039758E+02 -0.10522966544E+03  0.17013953826E+03  0.12499768698E+03 0.  0.
          5    1    3    3  501    0 -0.35192091076E+02 -0.21862904250E+02  0.12087253347E+02  0.43412688814E+02  0.47000000000E+01 0.  1.
         -5    1    3    3    0  501  0.32756457013E+02  0.69231944008E+02 -0.64316273617E+02  0.10012352670E+03  0.47000000000E+01 0.  1.
          5    1    4    4  502    0 -0.36956540189E+02  0.28661299953E+02 -0.47069478226E+02  0.66519784712E+02  0.47000000000E+01 0. -1.
         -5    1    4    4    0  502  0.39392174252E+02 -0.76030339711E+02 -0.58160187211E+02  0.10361975355E+03  0.47000000000E+01 0. -1.
<mgrwt>
<rscale>  0 0.27129180E+03</rscale>
<asrwt>0</asrwt>
<pdfrwt beam="1">  1       21 0.12016698E-01 0.27129180E+03</pdfrwt>
<pdfrwt beam="2">  1       21 0.36241111E-01 0.27129180E+03</pdfrwt>
<totfact> 0.42281085E+05</totfact>
</mgrwt>
</event>
<event>
 8    1  0.9569852E-006  0.3246870E+03  0.7546771E-02  0.1073512E+00
         21   -1    0    0  504  503  0.00000000000E+00  0.00000000000E+00  0.49880932811E+02  0.49880932811E+02  0.00000000000E+00 0.  1.
         21   -1    0    0  503  504 -0.00000000000E+00 -0.00000000000E+00 -0.52836633954E+03  0.52836633954E+03  0.00000000000E+00 0.  1.
         25    2    1    2    0    0 -0.51414893626E+02  0.73917518430E+01 -0.39887747787E+03  0.42121975753E+03  0.12499885001E+03 0.  0.
         25    2    1    2    0    0  0.51414893626E+02 -0.73917518430E+01 -0.79607928862E+02  0.15702751482E+03  0.12498835462E+03 0.  0.
          5    1    3    3  501    0  0.20963850103E+02 -0.39388630576E+02 -0.18974572706E+03  0.19497814793E+03  0.47000000000E+01 0. -1.
         -5    1    3    3    0  501 -0.72378743729E+02  0.46780382419E+02 -0.20913175081E+03  0.22624160961E+03  0.47000000000E+01 0. -1.
          5    1    4    4  502    0  0.79145507371E+02  0.10433379276E+02 -0.91636062529E+02  0.12162287900E+03  0.47000000000E+01 0.  1.
         -5    1    4    4    0  502 -0.27730613745E+02 -0.17825131119E+02  0.12028133667E+02  0.35404635821E+02  0.47000000000E+01 0.  1.
<mgrwt>
<rscale>  0 0.32468696E+03</rscale>
<asrwt>0</asrwt>
<pdfrwt beam="1">  1       21 0.76739900E-02 0.32468696E+03</pdfrwt>
<pdfrwt beam="2">  1       21 0.81287126E-01 0.32468696E+03</pdfrwt>
<totfact> 0.16466048E+05</totfact>
</mgrwt>
</event>
<event>
 8    1  0.9569852E-006  0.3380051E+03  0.7546771E-02  0.1067649E+00
         21   -1    0    0  504  503  0.00000000000E+00  0.00000000000E+00  0.85903645465E+02  0.85903645465E+02  0.00000000000E+00 0.  1.
         21   -1    0    0  503  504 -0.00000000000E+00 -0.00000000000E+00 -0.33248722051E+03  0.33248722051E+03  0.00000000000E+00 0.  1.
         25    2    1    2    0    0  0.55349563156E+02  0.39377407206E+02 -0.23621929890E+03  0.27574839174E+03  0.12499385599E+03 0.  0.
         25    2    1    2    0    0 -0.55349563156E+02 -0.39377407206E+02 -0.10364276141E+02  0.14264247423E+03  0.12500121157E+03 0.  0.
          5    1    3    3  501    0  0.39710120416E+02  0.57810512191E+02 -0.46145600611E+02  0.84086000256E+02  0.47000000000E+01 0. -1.
         -5    1    3    3    0  501  0.15639442740E+02 -0.18433104984E+02 -0.19007369829E+03  0.19166239149E+03  0.47000000000E+01 0. -1.
          5    1    4    4  502    0 -0.83367673471E+02 -0.30351811786E+02  0.28825256567E+02  0.93404426419E+02  0.47000000000E+01 0.  1.
         -5    1    4    4    0  502  0.28018110315E+02 -0.90255954209E+01 -0.39189532708E+02  0.49238047810E+02  0.47000000000E+01 0.  1.
<mgrwt>
<rscale>  0 0.33800511E+03</rscale>
<asrwt>0</asrwt>
<pdfrwt beam="1">  1       21 0.13215946E-01 0.33800511E+03</pdfrwt>
<pdfrwt beam="2">  1       21 0.51151880E-01 0.33800511E+03</pdfrwt>
<totfact> 0.17239559E+05</totfact>
</mgrwt>
</event>
<event>
 8    1  0.9569852E-006  0.3155828E+03  0.7546771E-02  0.1077700E+00
         21   -1    0    0  504  503  0.00000000000E+00  0.00000000000E+00  0.20618419667E+03  0.20618419667E+03  0.00000000000E+00 0.  1.
         21   -1    0    0  503  504 -0.00000000000E+00 -0.00000000000E+00 -0.12075668369E+03  0.12075668369E+03  0.00000000000E+00 0.  1.
         25    2    1    2    0    0 -0.21415383425E+01  0.53937905267E+02 -0.39900356625E+02  0.14188384961E+03  0.12500041804E+03 0.  0.
         25    2    1    2    0    0  0.21415383425E+01 -0.53937905267E+02  0.12532786960E+03  0.18505703075E+03  0.12500058367E+03 0.  0.
          5    1    3    3  501    0 -0.39570616213E+02 -0.14931632692E+02  0.16033968281E+02  0.45474888248E+02  0.47000000000E+01 0. -1.
         -5    1    3    3    0  501  0.37429077871E+02  0.68869537959E+02 -0.55934324906E+02  0.96408961366E+02  0.47000000000E+01 0. -1.
          5    1    4    4  502    0  0.30398841331E+02  0.15794153837E+02 -0.45598572385E+01  0.34877315661E+02  0.47000000000E+01 0. -1.
         -5    1    4    4    0  502 -0.28257302989E+02 -0.69732059104E+02  0.12988772684E+03  0.15017971508E+03  0.47000000000E+01 0. -1.
<mgrwt>
<rscale>  0 0.31558276E+03</rscale>
<asrwt>0</asrwt>
<pdfrwt beam="1">  1       21 0.31720645E-01 0.31558276E+03</pdfrwt>
<pdfrwt beam="2">  1       21 0.18577951E-01 0.31558276E+03</pdfrwt>
<totfact> 0.24558240E+05</totfact>
</mgrwt>
</event>
<event>
 8    1  0.9569852E-006  0.2836625E+03  0.7546771E-02  0.1093705E+00
         21   -1    0    0  504  503  0.00000000000E+00  0.00000000000E+00  0.79914226782E+02  0.79914226782E+02  0.00000000000E+00 0.  1.
         21   -1    0    0  503  504 -0.00000000000E+00 -0.00000000000E+00 -0.25172123344E+03  0.25172123344E+03  0.00000000000E+00 0.  1.
         25    2    1    2    0    0 -0.40805872663E+02  0.44469316647E+02 -0.51847001625E+02  0.14816772974E+03  0.12499170050E+03 0.  0.
         25    2    1    2    0    0  0.40805872663E+02 -0.44469316647E+02 -0.11996000503E+03  0.18346773047E+03  0.12500946345E+03 0.  0.
          5    1    3    3  501    0 -0.12486842738E+02  0.73710988648E+02  0.83229231855E+01  0.75369703060E+02  0.47000000000E+01 0.  1.
         -5    1    3    3    0  501 -0.28319029925E+02 -0.29241672001E+02 -0.60169924811E+02  0.72798026684E+02  0.47000000000E+01 0.  1.
          5    1    4    4  502    0  0.40203699240E+02 -0.30660281243E+02 -0.14546868428E+03  0.15407666399E+03  0.47000000000E+01 0.  1.
         -5    1    4    4    0  502  0.60217342222E+00 -0.13809035404E+02  0.25508679257E+02  0.29391066484E+02  0.47000000000E+01 0.  1.
<mgrwt>
<rscale>  0 0.28366253E+03</rscale>
<asrwt>0</asrwt>
<pdfrwt beam="1">  1       21 0.12294497E-01 0.28366253E+03</pdfrwt>
<pdfrwt beam="2">  1       21 0.38726343E-01 0.28366253E+03</pdfrwt>
<totfact> 0.35404161E+05</totfact>
</mgrwt>
</event>
<event>
 8    1  0.9569852E-006  0.2902324E+03  0.7546771E-02  0.1090228E+00
         21   -1    0    0  504  503  0.00000000000E+00  0.00000000000E+00  0.87679518977E+02  0.87679518977E+02  0.00000000000E+00 0. -1.
         21   -1    0    0  503  504 -0.00000000000E+00 -0.00000000000E+00 -0.24017815722E+03  0.24017815722E+03  0.00000000000E+00 0. -1.
         25    2    1    2    0    0 -0.48599515394E+02 -0.26410857705E+02 -0.13129011389E+03  0.18953054468E+03  0.12500114823E+03 0.  0.
         25    2    1    2    0    0  0.48599515394E+02  0.26410857705E+02 -0.21208524347E+02  0.13832713152E+03  0.12500059003E+03 0.  0.
          5    1    3    3  501    0 -0.32826535827E+02  0.21385868367E+02 -0.13322174420E+03  0.13894264985E+03  0.47000000000E+01 0. -1.
         -5    1    3    3    0  501 -0.15772979567E+02 -0.47796726072E+02  0.19316303015E+01  0.50587894829E+02  0.47000000000E+01 0. -1.
          5    1    4    4  502    0  0.22367195397E+02 -0.37809754263E+02  0.28748134472E+02  0.52710664794E+02  0.47000000000E+01 0. -1.
         -5    1    4    4    0  502  0.26232319997E+02  0.64220611968E+02 -0.49956658820E+02  0.85616466724E+02  0.47000000000E+01 0. -1.
<mgrwt>
<rscale>  0 0.29023236E+03</rscale>
<asrwt>0</asrwt>
<pdfrwt beam="1">  1       21 0.13489157E-01 0.29023236E+03</pdfrwt>
<pdfrwt beam="2">  1       21 0.36950486E-01 0.29023236E+03</pdfrwt>
<totfact> 0.32858625E+05</totfact>
</mgrwt>
</event>
<event>
 8    1  0.9569852E-006  0.2718826E+03  0.7546771E-02  0.1100207E+00
         21   -1    0    0  504  503  0.00000000000E+00  0.00000000000E+00  0.21313083779E+03  0.21313083779E+03  0.00000000000E+00 0.  1.
         21   -1    0    0  503  504 -0.00000000000E+00 -0.00000000000E+00 -0.86707452136E+02  0.86707452136E+02  0.00000000000E+00 0.  1.
         25    2    1    2    0    0  0.38225054055E+02 -0.19106287346E+02  0.98573405417E+02  0.16482824083E+03  0.12500171098E+03 0.  0.
         25    2    1    2    0    0 -0.38225054055E+02  0.19106287346E+02  0.27849980233E+02  0.13501004909E+03  0.12500354788E+03 0.  0.
          5    1    3    3  501    0  0.77563188166E+02  0.11694284619E+02  0.41624300668E+02  0.88923994835E+02  0.47000000000E+01 0.  1.
         -5    1    3    3    0  501 -0.39338134112E+02 -0.30800571965E+02  0.56949104749E+02  0.75904245998E+02  0.47000000000E+01 0.  1.
          5    1    4    4  502    0 -0.52135287513E+02  0.53376085143E+02 -0.17018306492E+02  0.76673381464E+02  0.47000000000E+01 0.  1.
         -5    1    4    4    0  502  0.13910233458E+02 -0.34269797797E+02  0.44868286724E+02  0.58336667624E+02  0.47000000000E+01 0.  1.
<mgrwt>
<rscale>  0 0.27188256E+03</rscale>
<asrwt>0</asrwt>
<pdfrwt beam="1">  1       21 0.32789360E-01 0.27188256E+03</pdfrwt>
<pdfrwt beam="2">  1       21 0.13339608E-01 0.27188256E+03</pdfrwt>
<totfact> 0.42737547E+05</totfact>
</mgrwt>
</event>
<event>
 8    1  0.9569852E-006  0.2920790E+03  0.7546771E-02  0.1089269E+00
         21   -1    0    0  504  503  0.00000000000E+00  0.00000000000E+00  0.15187528594E+03  0.15187528594E+03  0.00000000000E+00 0. -1.
         21   -1    0    0  503  504 -0.00000000000E+00 -0.00000000000E+00 -0.14042794383E+03  0.14042794383E+03  0.00000000000E+00 0. -1.
         25    2    1    2    0    0 -0.63612148117E+02  0.31070006575E+01 -0.34879788753E+02  0.14456144124E+03  0.12500100715E+03 0.  0.
         25    2    1    2    0    0  0.63612148117E+02 -0.31070006575E+01  0.46327130858E+02  0.14774178853E+03  0.12500109673E+03 0.  0.
          5    1    3    3  501    0 -0.53966209944E+01  0.30990858441E+02  0.36363143806E+02  0.48310713641E+02  0.47000000000E+01 0. -1.
         -5    1    3    3    0  501 -0.58215527123E+02 -0.27883857783E+02 -0.71242932559E+02  0.96250727595E+02  0.47000000000E+01 0. -1.
          5    1    4    4  502    0  0.39481463048E+02 -0.56484231492E+02 -0.56251828905E+01  0.69303585868E+02  0.47000000000E+01 0.  1.
         -5    1    4    4    0  502  0.24130685069E+02  0.53377230835E+02  0.51952313748E+02  0.78438202665E+02  0.47000000000E+01 0.  1.
<mgrwt>
<rscale>  0 0.29207899E+03</rscale>
<asrwt>0</asrwt>
<pdfrwt beam="1">  1       21 0.23365429E-01 0.29207899E+03</pdfrwt>
<pdfrwt beam="2">  1       21 0.21604299E-01 0.29207899E+03</pdfrwt>
<totfact> 0.33660157E+05</totfact>
</mgrwt>
</event>
<event>
 8    1  0.9569852E-006  0.3437466E+03  0.7546771E-02  0.1065211E+00
         21   -1    0    0  504  503  0.00000000000E+00  0.00000000000E+00  0.52821367894E+03  0.52821367894E+03  0.00000000000E+00 0. -1.
         21   -1    0    0  503  504 -0.00000000000E+00 -0.00000000000E+00 -0.55925155940E+02  0.55925155940E+02  0.00000000000E+00 0. -1.
         25    2    1    2    0    0 -0.92849760896E+02  0.62027446988E+02  0.30079644999E+03  0.34434662778E+03  0.12501045342E+03 0.  0.
         25    2    1    2    0    0  0.92849760896E+02 -0.62027446988E+02  0.17149207301E+03  0.23979220710E+03  0.12498915633E+03 0.  0.
          5    1    3    3  501    0 -0.55176086891E+01 -0.33479421064E+02  0.97146621223E+02  0.10300908531E+03  0.47000000000E+01 0. -1.
         -5    1    3    3    0  501 -0.87332152207E+02  0.95506868052E+02  0.20364982876E+03  0.24133754248E+03  0.47000000000E+01 0. -1.
          5    1    4    4  502    0  0.93902111451E+02  0.10607479772E+02  0.91202387443E+02  0.13141571686E+03  0.47000000000E+01 0.  1.
         -5    1    4    4    0  502 -0.10523505551E+01 -0.72634926760E+02  0.80289685571E+02  0.10837649024E+03  0.47000000000E+01 0.  1.
<mgrwt>
<rscale>  0 0.34374661E+03</rscale>
<asrwt>0</asrwt>
<pdfrwt beam="1">  1       21 0.81263639E-01 0.34374661E+03</pdfrwt>
<pdfrwt beam="2">  1       21 0.86038705E-02 0.34374661E+03</pdfrwt>
<totfact> 0.13407678E+05</totfact>
</mgrwt>
</event>
<event>
 8    1  0.9569852E-006  0.3198043E+03  0.7546771E-02  0.1075739E+00
         21   -1    0    0  504  503  0.00000000000E+00  0.00000000000E+00  0.32329867689E+03  0.32329867689E+03  0.00000000000E+00 0.  1.
         21   -1    0    0  503  504 -0.00000000000E+00 -0.00000000000E+00 -0.79086934050E+02  0.79086934050E+02  0.00000000000E+00 0.  1.
         25    2    1    2    0    0  0.65527208476E+02 -0.41739767783E+02  0.43454799020E+02  0.15345765038E+03  0.12499963055E+03 0.  0.
         25    2    1    2    0    0 -0.65527208476E+02  0.41739767783E+02  0.20075694382E+03  0.24892796056E+03  0.12500302313E+03 0.  0.
          5    1    3    3  501    0  0.49132699432E+02  0.29728768389E+02 -0.15031023130E+02  0.59546985479E+02  0.47000000000E+01 0.  1.
         -5    1    3    3    0  501  0.16394509045E+02 -0.71468536172E+02  0.58485822150E+02  0.93910664900E+02  0.47000000000E+01 0.  1.
          5    1    4    4  502    0  0.30957254694E+02  0.53682889803E+01  0.12322327365E+02  0.34074915942E+02  0.47000000000E+01 0. -1.
         -5    1    4    4    0  502 -0.96484463170E+02  0.36371478803E+02  0.18843461646E+03  0.21485304462E+03  0.47000000000E+01 0. -1.
<mgrwt>
<rscale>  0 0.31980432E+03</rscale>
<asrwt>0</asrwt>
<pdfrwt beam="1">  1       21 0.49738257E-01 0.31980432E+03</pdfrwt>
<pdfrwt beam="2">  1       21 0.12167221E-01 0.31980432E+03</pdfrwt>
<totfact> 0.21340928E+05</totfact>
</mgrwt>
</event>
<event>
 8    1  0.9569852E-006  0.2833389E+03  0.7546771E-02  0.1093879E+00
         21   -1    0    0  504  503  0.00000000000E+00  0.00000000000E+00  0.81887719657E+03  0.81887719657E+03  0.00000000000E+00 0.  1.
         21   -1    0    0  503  504 -0.00000000000E+00 -0.00000000000E+00 -0.24509459738E+02  0.24509459738E+02  0.00000000000E+00 0.  1.
         25    2    1    2    0    0 -0.92077778762E+01 -0.65299787778E+02  0.42626621138E+03  0.44908599430E+03  0.12500600726E+03 0.  0.
         25    2    1    2    0    0  0.92077778762E+01  0.65299787778E+02  0.36810152546E+03  0.39430066201E+03  0.12500173425E+03 0.  0.
          5    1    3    3  501    0 -0.59939228047E+01  0.31579851429E+02  0.20381110660E+03  0.20638379612E+03  0.47000000000E+01 0.  1.
         -5    1    3    3    0  501 -0.32138550715E+01 -0.96879639207E+02  0.22245510478E+03  0.24270219817E+03  0.47000000000E+01 0.  1.
          5    1    4    4  502    0 -0.39925693356E+02  0.54274185020E+02  0.95040243995E+02  0.11659539497E+03  0.47000000000E+01 0.  1.
         -5    1    4    4    0  502  0.49133471232E+02  0.11025602759E+02  0.27306128146E+03  0.27770526705E+03  0.47000000000E+01 0.  1.
<mgrwt>
<rscale>  0 0.28333893E+03</rscale>
<asrwt>0</asrwt>
<pdfrwt beam="1">  1       21 0.12598109E+00 0.28333893E+03</pdfrwt>
<pdfrwt beam="2">  1       21 0.37706867E-02 0.28333893E+03</pdfrwt>
<totfact> 0.19631420E+05</totfact>
</mgrwt>
</event>
<event>
 8    1  0.9569852E-006  0.3034539E+03  0.7546771E-02  0.1083527E+00
         21   -1    0    0  504  503  0.00000000000E+00  0.00000000000E+00  0.27649159006E+02  0.27649159006E+02  0.00000000000E+00 0.  1.
         21   -1    0    0  503  504 -0.00000000000E+00 -0.00000000000E+00 -0.83261381657E+03  0.83261381657E+03  0.00000000000E+00 0.  1.
         25    2    1    2    0    0 -0.26557973608E+01  0.81105441255E+02 -0.48321030141E+03  0.50567026410E+03  0.12500029896E+03 0.  0.
         25    2    1    2    0    0  0.26557973608E+01 -0.81105441255E+02 -0.32175435615E+03  0.35459271148E+03  0.12499991788E+03 0.  0.
          5    1    3    3  501    0 -0.63305647677E+02  0.49257916048E+02 -0.25669935461E+03  0.26898066098E+03  0.47000000000E+01 0.  1.
         -5    1    3    3    0  501  0.60649850316E+02  0.31847525207E+02 -0.22651094680E+03  0.23668960312E+03  0.47000000000E+01 0.  1.
          5    1    4    4  502    0 -0.37174731160E+02 -0.93490854923E+02 -0.26859652478E+03  0.28686004203E+03  0.47000000000E+01 0.  1.
         -5    1    4    4    0  502  0.39830528521E+02  0.12385413668E+02 -0.53157831371E+02  0.67732669445E+02  0.47000000000E+01 0.  1.
<mgrwt>
<rscale>  0 0.30345393E+03</rscale>
<asrwt>0</asrwt>
<pdfrwt beam="1">  1       21 0.42537172E-02 0.30345393E+03</pdfrwt>
<pdfrwt beam="2">  1       21 0.12809442E+00 0.30345393E+03</pdfrwt>
<totfact> 0.15259933E+05</totfact>
</mgrwt>
</event>
<event>
 8    1  0.9569852E-006  0.2907626E+03  0.7546771E-02  0.1089952E+00
         21   -1    0    0  504  503  0.00000000000E+00  0.00000000000E+00  0.10773915961E+03  0.10773915961E+03  0.00000000000E+00 0.  1.
         21   -1    0    0  503  504 -0.00000000000E+00 -0.00000000000E+00 -0.19617497709E+03  0.19617497709E+03  0.00000000000E+00 0.  1.
         25    2    1    2    0    0 -0.55933212890E+02  0.43619067747E+02 -0.21367994572E+02  0.14530056541E+03  0.12499806294E+03 0.  0.
         25    2    1    2    0    0  0.55933212890E+02 -0.43619067747E+02 -0.67067822908E+02  0.15861357129E+03  0.12501609797E+03 0.  0.
          5    1    3    3  501    0 -0.47135456963E+02  0.20968355169E+02  0.48632405950E+02  0.71053670771E+02  0.47000000000E+01 0. -1.
         -5    1    3    3    0  501 -0.87977559268E+01  0.22650712578E+02 -0.70000400522E+02  0.74246894635E+02  0.47000000000E+01 0. -1.
          5    1    4    4  502    0  0.92386925176E+02 -0.22505243834E+02 -0.66663150695E+02  0.11622347269E+03  0.47000000000E+01 0.  1.
         -5    1    4    4    0  502 -0.36453712286E+02 -0.21113823913E+02 -0.40467221325E+00  0.42390098599E+02  0.47000000000E+01 0.  1.
<mgrwt>
<rscale>  0 0.29076263E+03</rscale>
<asrwt>0</asrwt>
<pdfrwt beam="1">  1       21 0.16575256E-01 0.29076263E+03</pdfrwt>
<pdfrwt beam="2">  1       21 0.30180765E-01 0.29076263E+03</pdfrwt>
<totfact> 0.33678644E+05</totfact>
</mgrwt>
</event>
<event>
 8    1  0.9569852E-006  0.2623932E+03  0.7546771E-02  0.1105714E+00
         21   -1    0    0  504  503  0.00000000000E+00  0.00000000000E+00  0.18870268721E+03  0.18870268721E+03  0.00000000000E+00 0.  1.
         21   -1    0    0  503  504 -0.00000000000E+00 -0.00000000000E+00 -0.91215146307E+02  0.91215146307E+02  0.00000000000E+00 0.  1.
         25    2    1    2    0    0  0.14887248638E+02  0.18879744826E+02  0.82635975742E+02  0.15176279057E+03  0.12500066071E+03 0.  0.
         25    2    1    2    0    0 -0.14887248638E+02 -0.18879744826E+02  0.14851565160E+02  0.12815504295E+03  0.12500028443E+03 0.  0.
          5    1    3    3  501    0  0.15226731417E+02  0.26036660148E+02  0.11463835449E+03  0.11863306176E+03  0.47000000000E+01 0.  1.
         -5    1    3    3    0  501 -0.33948277947E+00 -0.71569153227E+01 -0.32002378751E+02  0.33129728813E+02  0.47000000000E+01 0.  1.
          5    1    4    4  502    0 -0.47757559905E+02  0.38143875886E+02  0.76451546818E+01  0.61776032454E+02  0.47000000000E+01 0. -1.
         -5    1    4    4    0  502  0.32870311267E+02 -0.57023620711E+02  0.72064104786E+01  0.66379010491E+02  0.47000000000E+01 0. -1.
<mgrwt>
<rscale>  0 0.26239316E+03</rscale>
<asrwt>0</asrwt>
<pdfrwt beam="1">  1       21 0.29031183E-01 0.26239316E+03</pdfrwt>
<pdfrwt beam="2">  1       21 0.14033099E-01 0.26239316E+03</pdfrwt>
<totfact> 0.49617139E+05</totfact>
</mgrwt>
</event>
<event>
 8    1  0.9569852E-006  0.2824345E+03  0.7546771E-02  0.1094367E+00
         21   -1    0    0  504  503  0.00000000000E+00  0.00000000000E+00  0.28897902887E+02  0.28897902887E+02  0.00000000000E+00 0.  1.
         21   -1    0    0  503  504 -0.00000000000E+00 -0.00000000000E+00 -0.69009548768E+03  0.69009548768E+03  0.00000000000E+00 0.  1.
         25    2    1    2    0    0  0.35519467888E+02 -0.38517249954E+02 -0.43152473722E+03  0.45230990498E+03  0.12500176062E+03 0.  0.
         25    2    1    2    0    0 -0.35519467888E+02  0.38517249954E+02 -0.22967284756E+03  0.26668348559E+03  0.12500101373E+03 0.  0.
          5    1    3    3  501    0  0.14065133636E+02  0.79648452756E+01 -0.37698123483E+03  0.37735687109E+03  0.47000000000E+01 0. -1.
         -5    1    3    3    0  501  0.21454334252E+02 -0.46482095230E+02 -0.54543502393E+02  0.74953033884E+02  0.47000000000E+01 0. -1.
          5    1    4    4  502    0 -0.14228166391E+02  0.72150458739E+02 -0.20894512531E+03  0.22155876151E+03  0.47000000000E+01 0.  1.
         -5    1    4    4    0  502 -0.21291301497E+02 -0.33633208785E+02 -0.20727722259E+02  0.45124724073E+02  0.47000000000E+01 0.  1.
<mgrwt>
<rscale>  0 0.28243450E+03</rscale>
<asrwt>0</asrwt>
<pdfrwt beam="1">  1       21 0.44458312E-02 0.28243450E+03</pdfrwt>
<pdfrwt beam="2">  1       21 0.10616854E+00 0.28243450E+03</pdfrwt>
<totfact> 0.22715730E+05</totfact>
</mgrwt>
</event>
<event>
 8    1  0.9569852E-006  0.2768642E+03  0.7546771E-02  0.1097414E+00
         21   -1    0    0  504  503  0.00000000000E+00  0.00000000000E+00  0.13347984527E+03  0.13347984527E+03  0.00000000000E+00 0. -1.
         21   -1    0    0  503  504 -0.00000000000E+00 -0.00000000000E+00 -0.14356813654E+03  0.14356813654E+03  0.00000000000E+00 0. -1.
         25    2    1    2    0    0  0.25482676893E+01  0.23190407867E+02  0.49720527778E+02  0.13653593327E+03  0.12500256599E+03 0.  0.
         25    2    1    2    0    0 -0.25482676893E+01 -0.23190407867E+02 -0.59808819043E+02  0.14051204854E+03  0.12498900858E+03 0.  0.
          5    1    3    3  501    0 -0.38217912476E+02 -0.48923999048E+01 -0.25444335198E+02  0.46411729170E+02  0.47000000000E+01 0. -1.
         -5    1    3    3    0  501  0.40766180166E+02  0.28082807772E+02  0.75164862976E+02  0.90124204095E+02  0.47000000000E+01 0. -1.
          5    1    4    4  502    0 -0.27958153046E+02  0.36947009262E+02 -0.58854016757E+02  0.75050816808E+02  0.47000000000E+01 0.  1.
         -5    1    4    4    0  502  0.25409885357E+02 -0.60137417130E+02 -0.95480228659E+00  0.65461231735E+02  0.47000000000E+01 0.  1.
<mgrwt>
<rscale>  0 0.27686425E+03</rscale>
<asrwt>0</asrwt>
<pdfrwt beam="1">  1       21 0.20535361E-01 0.27686425E+03</pdfrwt>
<pdfrwt beam="2">  1       21 0.22087406E-01 0.27686425E+03</pdfrwt>
<totfact> 0.41370571E+05</totfact>
</mgrwt>
</event>
<event>
 8    1  0.9569852E-006  0.3016925E+03  0.7546771E-02  0.1084398E+00
         21   -1    0    0  504  503  0.00000000000E+00  0.00000000000E+00  0.37132765676E+03  0.37132765676E+03  0.00000000000E+00 0.  1.
         21   -1    0    0  503  504 -0.00000000000E+00 -0.00000000000E+00 -0.61279021465E+02  0.61279021465E+02  0.00000000000E+00 0.  1.
         25    2    1    2    0    0 -0.22555854637E+02  0.81343798831E+02  0.15278205366E+03  0.21470033907E+03  0.12501319726E+03 0.  0.
         25    2    1    2    0    0  0.22555854637E+02 -0.81343798831E+02  0.15726658163E+03  0.21790633915E+03  0.12499925903E+03 0.  0.
          5    1    3    3  501    0  0.50042631782E+02  0.32792014434E+02  0.40624339687E+02  0.72470740173E+02  0.47000000000E+01 0.  1.
         -5    1    3    3    0  501 -0.72598486419E+02  0.48551784397E+02  0.11215771397E+03  0.14222959889E+03  0.47000000000E+01 0.  1.
          5    1    4    4  502    0 -0.23604328242E+02 -0.59288066691E+02  0.15360761727E+03  0.16640201095E+03  0.47000000000E+01 0. -1.
         -5    1    4    4    0  502  0.46160182878E+02 -0.22055732139E+02  0.36589643601E+01  0.51504328204E+02  0.47000000000E+01 0. -1.
<mgrwt>
<rscale>  0 0.30169253E+03</rscale>
<asrwt>0</asrwt>
<pdfrwt beam="1">  1       21 0.57127331E-01 0.30169253E+03</pdfrwt>
<pdfrwt beam="2">  1       21 0.94275419E-02 0.30169253E+03</pdfrwt>
<totfact> 0.25204396E+05</totfact>
</mgrwt>
</event>
<event>
 8    1  0.9569852E-006  0.3203232E+03  0.7546771E-02  0.1075501E+00
         21   -1    0    0  504  503  0.00000000000E+00  0.00000000000E+00  0.16689306586E+03  0.16689306586E+03  0.00000000000E+00 0. -1.
         21   -1    0    0  503  504 -0.00000000000E+00 -0.00000000000E+00 -0.15370168149E+03  0.15370168149E+03  0.00000000000E+00 0. -1.
         25    2    1    2    0    0 -0.47808520817E+02  0.49601897114E+02  0.79355771407E+02  0.16327694469E+03  0.12496407224E+03 0.  0.
         25    2    1    2    0    0  0.47808520817E+02 -0.49601897114E+02 -0.66164387038E+02  0.15731780265E+03  0.12500064824E+03 0.  0.
          5    1    3    3  501    0 -0.39759759563E+02  0.91085125881E+02  0.48135060224E+02  0.11052788182E+03  0.47000000000E+01 0.  1.
         -5    1    3    3    0  501 -0.80487612543E+01 -0.41483228767E+02  0.31220711182E+02  0.52749062867E+02  0.47000000000E+01 0.  1.
          5    1    4    4  502    0 -0.40625300198E+02 -0.13316543683E+01 -0.11058002879E+02  0.42385820119E+02  0.47000000000E+01 0.  1.
         -5    1    4    4    0  502  0.88433821015E+02 -0.48270242746E+02 -0.55106384160E+02  0.11493198253E+03  0.47000000000E+01 0.  1.
<mgrwt>
<rscale>  0 0.32032324E+03</rscale>
<asrwt>0</asrwt>
<pdfrwt beam="1">  1       21 0.25675856E-01 0.32032324E+03</pdfrwt>
<pdfrwt beam="2">  1       21 0.23646412E-01 0.32032324E+03</pdfrwt>
<totfact> 0.23493835E+05</totfact>
</mgrwt>
</event>
<event>
 8    1  0.9569852E-006  0.3212708E+03  0.7546771E-02  0.1075066E+00
         21   -1    0    0  504  503  0.00000000000E+00  0.00000000000E+00  0.73371718335E+02  0.73371718335E+02  0.00000000000E+00 0.  1.
         21   -1    0    0  503  504 -0.00000000000E+00 -0.00000000000E+00 -0.35168493470E+03  0.35168493470E+03  0.00000000000E+00 0.  1.
         25    2    1    2    0    0  0.32627692755E+02 -0.49436767599E+02 -0.24720332666E+03  0.28327430260E+03  0.12500514181E+03 0.  0.
         25    2    1    2    0    0 -0.32627692755E+02  0.49436767599E+02 -0.31109889705E+02  0.14178235043E+03  0.12500339728E+03 0.  0.
          5    1    3    3  501    0  0.19288811143E+02  0.20560673952E+02 -0.28770635569E+01  0.28725720937E+02  0.47000000000E+01 0.  1.
         -5    1    3    3    0  501  0.13338881612E+02 -0.69997441551E+02 -0.24432626310E+03  0.25454858166E+03  0.47000000000E+01 0.  1.
          5    1    4    4  502    0  0.41684510176E+02  0.95628997335E+01  0.14983313615E+02  0.45559160734E+02  0.47000000000E+01 0.  1.
         -5    1    4    4    0  502 -0.74312202931E+02  0.39873867866E+02 -0.46093203320E+02  0.96223189696E+02  0.47000000000E+01 0.  1.
<mgrwt>
<rscale>  0 0.32127078E+03</rscale>
<asrwt>0</asrwt>
<pdfrwt beam="1">  1       21 0.11287957E-01 0.32127078E+03</pdfrwt>
<pdfrwt beam="2">  1       21 0.54105374E-01 0.32127078E+03</pdfrwt>
<totfact> 0.20433176E+05</totfact>
</mgrwt>
</event>
<event>
 8    1  0.9569852E-006  0.2987714E+03  0.7546771E-02  0.1085856E+00
         21   -1    0    0  504  503  0.00000000000E+00  0.00000000000E+00  0.83651081340E+03  0.83651081340E+03  0.00000000000E+00 0.  1.
         21   -1    0    0  503  504 -0.00000000000E+00 -0.00000000000E+00 -0.26677588468E+02  0.26677588468E+02  0.00000000000E+00 0.  1.
         25    2    1    2    0    0 -0.28261637531E+02 -0.71398888236E+02  0.32358145476E+03  0.35528864476E+03  0.12501416653E+03 0.  0.
         25    2    1    2    0    0  0.28261637531E+02  0.71398888236E+02  0.48625177017E+03  0.50789975711E+03  0.12499943152E+03 0.  0.
          5    1    3    3  501    0  0.35768164926E+02 -0.60888684206E+02  0.23472205366E+03  0.24515979679E+03  0.47000000000E+01 0.  1.
         -5    1    3    3    0  501 -0.64029802457E+02 -0.10510204029E+02  0.88859401101E+02  0.11012884797E+03  0.47000000000E+01 0.  1.
          5    1    4    4  502    0  0.62436029068E+02  0.87713774072E+02  0.33495313594E+03  0.35186312277E+03  0.47000000000E+01 0.  1.
         -5    1    4    4    0  502 -0.34174391537E+02 -0.16314885836E+02  0.15129863423E+03  0.15603663434E+03  0.47000000000E+01 0.  1.
<mgrwt>
<rscale>  0 0.29877143E+03</rscale>
<asrwt>0</asrwt>
<pdfrwt beam="1">  1       21 0.12869395E+00 0.29877143E+03</pdfrwt>
<pdfrwt beam="2">  1       21 0.41042450E-02 0.29877143E+03</pdfrwt>
<totfact> 0.16043261E+05</totfact>
</mgrwt>
</event>
<event>
 8    1  0.9569852E-006  0.3080300E+03  0.7546771E-02  0.1081294E+00
         21   -1    0    0  504  503  0.00000000000E+00  0.00000000000E+00  0.28972662363E+02  0.28972662363E+02  0.00000000000E+00 0. -1.
         21   -1    0    0  503  504 -0.00000000000E+00 -0.00000000000E+00 -0.81872414218E+03  0.81872414218E+03  0.00000000000E+00 0. -1.
         25    2    1    2    0    0 -0.45167736888E+02 -0.39030349169E+02 -0.58016773097E+03  0.59647577535E+03  0.12500104764E+03 0.  0.
         25    2    1    2    0    0  0.45167736888E+02  0.39030349169E+02 -0.20958374885E+03  0.25122102919E+03  0.12499266025E+03 0.  0.
          5    1    3    3  501    0 -0.66004075524E+02  0.16172796478E+02 -0.18996418244E+03  0.20180827025E+03  0.47000000000E+01 0.  1.
         -5    1    3    3    0  501  0.20836338636E+02 -0.55203145648E+02 -0.39020354853E+03  0.39466750510E+03  0.47000000000E+01 0.  1.
          5    1    4    4  502    0  0.28031997291E+02  0.61033911714E+01  0.82327083506E+01  0.30214429379E+02  0.47000000000E+01 0.  1.
         -5    1    4    4    0  502  0.17135739597E+02  0.32926957998E+02 -0.21781645720E+03  0.22100659981E+03  0.47000000000E+01 0.  1.
<mgrwt>
<rscale>  0 0.30802999E+03</rscale>
<asrwt>0</asrwt>
<pdfrwt beam="1">  1       21 0.44573324E-02 0.30802999E+03</pdfrwt>
<pdfrwt beam="2">  1       21 0.12595757E+00 0.30802999E+03</pdfrwt>
<totfact> 0.14692475E+05</totfact>
</mgrwt>
</event>
<event>
 8    1  0.9569852E-006  0.3777702E+03  0.7546771E-02  0.1051761E+00
         21   -1    0    0  504  503  0.00000000000E+00  0.00000000000E+00  0.12521038370E+03  0.12521038370E+03  0.00000000000E+00 0.  1.
         21   -1    0    0  503  504 -0.00000000000E+00 -0.00000000000E+00 -0.28494112778E+03  0.28494112778E+03  0.00000000000E+00 0.  1.
         25    2    1    2    0    0 -0.72132850829E+02 -0.11548081481E+03 -0.12212987228E+03  0.22153973613E+03  0.12500072890E+03 0.  0.
         25    2    1    2    0    0  0.72132850829E+02  0.11548081481E+03 -0.37600871803E+02  0.18861177535E+03  0.12498643720E+03 0.  0.
          5    1    3    3  501    0 -0.85769696481E+02 -0.53731645520E+02 -0.23054566233E+02  0.10390925651E+03  0.47000000000E+01 0.  1.
         -5    1    3    3    0  501  0.13636845652E+02 -0.61749169285E+02 -0.99075306049E+02  0.11763047962E+03  0.47000000000E+01 0.  1.
          5    1    4    4  502    0  0.67866335637E+02  0.11405938261E+03  0.16763201327E+02  0.13385991631E+03  0.47000000000E+01 0.  1.
         -5    1    4    4    0  502  0.42665151924E+01  0.14214321934E+01 -0.54364073131E+02  0.54751859043E+02  0.47000000000E+01 0.  1.
<mgrwt>
<rscale>  0 0.37777024E+03</rscale>
<asrwt>0</asrwt>
<pdfrwt beam="1">  1       21 0.19263136E-01 0.37777024E+03</pdfrwt>
<pdfrwt beam="2">  1       21 0.43837096E-01 0.37777024E+03</pdfrwt>
<totfact> 0.11745340E+05</totfact>
</mgrwt>
</event>
<event>
 8    1  0.9569852E-006  0.6569807E+03  0.7546771E-02  0.9793768E-01
         21   -1    0    0  504  503  0.00000000000E+00  0.00000000000E+00  0.43406655597E+03  0.43406655597E+03  0.00000000000E+00 0. -1.
         21   -1    0    0  503  504 -0.00000000000E+00 -0.00000000000E+00 -0.24859303406E+03  0.24859303406E+03  0.00000000000E+00 0. -1.
         25    2    1    2    0    0 -0.30039877110E+03 -0.81855909323E+01  0.46570265159E+02  0.32878690882E+03  0.12500246491E+03 0.  0.
         25    2    1    2    0    0  0.30039877110E+03  0.81855909323E+01  0.13890325676E+03  0.35387268121E+03  0.12500133677E+03 0.  0.
          5    1    3    3  501    0 -0.14211094935E+03  0.57549699980E+02  0.11874322898E+02  0.15385245997E+03  0.47000000000E+01 0. -1.
         -5    1    3    3    0  501 -0.15828782175E+03 -0.65735290912E+02  0.34695942262E+02  0.17493444885E+03  0.47000000000E+01 0. -1.
          5    1    4    4  502    0  0.43486367861E+02  0.81631776862E+01  0.77999498843E+02  0.89798181939E+02  0.47000000000E+01 0.  1.
         -5    1    4    4    0  502  0.25691240324E+03  0.22413246159E-01  0.60903757916E+02  0.26407449928E+03  0.47000000000E+01 0.  1.
<mgrwt>
<rscale>  0 0.65698074E+03</rscale>
<asrwt>0</asrwt>
<pdfrwt beam="1">  1       21 0.66779470E-01 0.65698074E+03</pdfrwt>
<pdfrwt beam="2">  1       21 0.38245082E-01 0.65698074E+03</pdfrwt>
<totfact> 0.11563317E+04</totfact>
</mgrwt>
</event>
<event>
 8    1  0.9569852E-006  0.2912632E+03  0.7546771E-02  0.1089691E+00
         21   -1    0    0  504  503  0.00000000000E+00  0.00000000000E+00  0.21699481809E+03  0.21699481809E+03  0.00000000000E+00 0. -1.
         21   -1    0    0  503  504 -0.00000000000E+00 -0.00000000000E+00 -0.97737622671E+02  0.97737622671E+02  0.00000000000E+00 0. -1.
         25    2    1    2    0    0 -0.63771332330E+02 -0.19200354437E+02  0.23008923893E+02  0.14349097465E+03  0.12499925116E+03 0.  0.
         25    2    1    2    0    0  0.63771332330E+02  0.19200354437E+02  0.96248271531E+02  0.17124146611E+03  0.12499789401E+03 0.  0.
          5    1    3    3  501    0 -0.10581197124E+02 -0.60214868890E+02  0.41043444429E+02  0.73786492657E+02  0.47000000000E+01 0. -1.
         -5    1    3    3    0  501 -0.53190135206E+02  0.41014514453E+02 -0.18034520536E+02  0.69704481994E+02  0.47000000000E+01 0. -1.
          5    1    4    4  502    0  0.39836327171E+02  0.30664952934E+01 -0.24432463335E+02  0.47067734389E+02  0.47000000000E+01 0.  1.
         -5    1    4    4    0  502  0.23935005159E+02  0.16133859143E+02  0.12068073487E+03  0.12417373173E+03  0.47000000000E+01 0.  1.
<mgrwt>
<rscale>  0 0.29126316E+03</rscale>
<asrwt>0</asrwt>
<pdfrwt beam="1">  1       21 0.33383818E-01 0.29126316E+03</pdfrwt>
<pdfrwt beam="2">  1       21 0.15036557E-01 0.29126316E+03</pdfrwt>
<totfact> 0.33008868E+05</totfact>
</mgrwt>
</event>
<event>
 8    1  0.9569852E-006  0.2654907E+03  0.7546771E-02  0.1103888E+00
         21   -1    0    0  504  503  0.00000000000E+00  0.00000000000E+00  0.20580474136E+03  0.20580474136E+03  0.00000000000E+00 0. -1.
         21   -1    0    0  503  504 -0.00000000000E+00 -0.00000000000E+00 -0.85621612668E+02  0.85621612668E+02  0.00000000000E+00 0. -1.
         25    2    1    2    0    0  0.16293464025E+02  0.27585136803E+02  0.25907632877E+02  0.13161498367E+03  0.12499952696E+03 0.  0.
         25    2    1    2    0    0 -0.16293464025E+02 -0.27585136803E+02  0.94275495818E+02  0.15981137037E+03  0.12500155297E+03 0.  0.
          5    1    3    3  501    0 -0.22655953323E+02  0.63368505409E+02 -0.90149594588E+01  0.68060408409E+02  0.47000000000E+01 0. -1.
         -5    1    3    3    0  501  0.38949417348E+02 -0.35783368606E+02  0.34922592336E+02  0.63554575256E+02  0.47000000000E+01 0. -1.
          5    1    4    4  502    0  0.44082095994E+02  0.61080400879E+01  0.25139167534E+01  0.44821302060E+02  0.47000000000E+01 0. -1.
         -5    1    4    4    0  502 -0.60375560019E+02 -0.33693176891E+02  0.91761579064E+02  0.11499006831E+03  0.47000000000E+01 0. -1.
<mgrwt>
<rscale>  0 0.26549074E+03</rscale>
<asrwt>0</asrwt>
<pdfrwt beam="1">  1       21 0.31662268E-01 0.26549074E+03</pdfrwt>
<pdfrwt beam="2">  1       21 0.13172556E-01 0.26549074E+03</pdfrwt>
<totfact> 0.46918043E+05</totfact>
</mgrwt>
</event>
<event>
 8    1  0.9569852E-006  0.3393220E+03  0.7546771E-02  0.1067085E+00
         21   -1    0    0  504  503  0.00000000000E+00  0.00000000000E+00  0.24848095208E+03  0.24848095208E+03  0.00000000000E+00 0. -1.
         21   -1    0    0  503  504 -0.00000000000E+00 -0.00000000000E+00 -0.11584333039E+03  0.11584333039E+03  0.00000000000E+00 0. -1.
         25    2    1    2    0    0  0.24914733867E+01  0.11165635382E+03  0.38181583086E+02  0.17191646141E+03  0.12499635045E+03 0.  0.
         25    2    1    2    0    0 -0.24914733867E+01 -0.11165635382E+03  0.94456038602E+02  0.19240782106E+03  0.12500191033E+03 0.  0.
          5    1    3    3  501    0 -0.59298575569E+02  0.34957816706E+02  0.17112330564E+02  0.71086509766E+02  0.47000000000E+01 0. -1.
         -5    1    3    3    0  501  0.61790048955E+02  0.76698537118E+02  0.21069252523E+02  0.10082995164E+03  0.47000000000E+01 0. -1.
          5    1    4    4  502    0  0.31977050641E+02 -0.30294418384E+02 -0.19273162347E+02  0.48309712686E+02  0.47000000000E+01 0. -1.
         -5    1    4    4    0  502 -0.34468524028E+02 -0.81361935441E+02  0.11372920095E+03  0.14409810837E+03  0.47000000000E+01 0. -1.
<mgrwt>
<rscale>  0 0.33932204E+03</rscale>
<asrwt>0</asrwt>
<pdfrwt beam="1">  1       21 0.38227839E-01 0.33932204E+03</pdfrwt>
<pdfrwt beam="2">  1       21 0.17822051E-01 0.33932204E+03</pdfrwt>
<totfact> 0.18160611E+05</totfact>
</mgrwt>
</event>
<event>
 8    1  0.9569852E-006  0.3940854E+03  0.7546771E-02  0.1045847E+00
         21   -1    0    0  504  503  0.00000000000E+00  0.00000000000E+00  0.43434223478E+03  0.43434223478E+03  0.00000000000E+00 0.  1.
         21   -1    0    0  503  504 -0.00000000000E+00 -0.00000000000E+00 -0.89389925420E+02  0.89389925420E+02  0.00000000000E+00 0.  1.
         25    2    1    2    0    0  0.23038841631E+02 -0.13065629630E+03  0.27191667941E+03  0.32736089269E+03  0.12499847013E+03 0.  0.
         25    2    1    2    0    0 -0.23038841631E+02  0.13065629630E+03  0.73035629951E+02  0.19637126751E+03  0.12500246187E+03 0.  0.
          5    1    3    3  501    0 -0.33767673800E+02  0.54604659333E+01  0.45963610047E+02  0.57487528479E+02  0.47000000000E+01 0. -1.
         -5    1    3    3    0  501  0.56806515431E+02 -0.13611676223E+03  0.22595306936E+03  0.26987336421E+03  0.47000000000E+01 0. -1.
          5    1    4    4  502    0  0.66508183753E+01  0.35588721348E+02 -0.34142772403E+02  0.49986091861E+02  0.47000000000E+01 0. -1.
         -5    1    4    4    0  502 -0.29689660007E+02  0.95067574952E+02  0.10717840235E+03  0.14638517565E+03  0.47000000000E+01 0. -1.
<mgrwt>
<rscale>  0 0.39408537E+03</rscale>
<asrwt>0</asrwt>
<pdfrwt beam="1">  1       21 0.66821881E-01 0.39408537E+03</pdfrwt>
<pdfrwt beam="2">  1       21 0.13752296E-01 0.39408537E+03</pdfrwt>
<totfact> 0.88618914E+04</totfact>
</mgrwt>
</event>
<event>
 8    1  0.9569852E-006  0.3755739E+03  0.7546771E-02  0.1052582E+00
         21   -1    0    0  504  503  0.00000000000E+00  0.00000000000E+00  0.22677622833E+03  0.22677622833E+03  0.00000000000E+00 0.  1.
         21   -1    0    0  503  504 -0.00000000000E+00 -0.00000000000E+00 -0.15550101986E+03  0.15550101986E+03  0.00000000000E+00 0.  1.
         25    2    1    2    0    0 -0.13481702418E+02 -0.13349751891E+03  0.76788656706E+02  0.19880453298E+03  0.12499360256E+03 0.  0.
         25    2    1    2    0    0  0.13481702418E+02  0.13349751891E+03 -0.55134482366E+01  0.18347271521E+03  0.12501398026E+03 0.  0.
          5    1    3    3  501    0 -0.18128041372E+02 -0.99191557964E+02 -0.13640314898E+02  0.10186137269E+03  0.47000000000E+01 0.  1.
         -5    1    3    3    0  501  0.46463389546E+01 -0.34305960941E+02  0.90428971604E+02  0.96943160290E+02  0.47000000000E+01 0.  1.
          5    1    4    4  502    0 -0.87811578227E+01  0.11218152678E+02 -0.49362200386E+02  0.51591399565E+02  0.47000000000E+01 0. -1.
         -5    1    4    4    0  502  0.22262860240E+02  0.12227936623E+03  0.43848752149E+02  0.13188131564E+03  0.47000000000E+01 0. -1.
<mgrwt>
<rscale>  0 0.37557388E+03</rscale>
<asrwt>0</asrwt>
<pdfrwt beam="1">  1       21 0.34888650E-01 0.37557388E+03</pdfrwt>
<pdfrwt beam="2">  1       21 0.23923234E-01 0.37557388E+03</pdfrwt>
<totfact> 0.12396059E+05</totfact>
</mgrwt>
</event>
<event>
 8    1  0.9569852E-006  0.3321890E+03  0.7546771E-02  0.1070172E+00
         21   -1    0    0  504  503  0.00000000000E+00  0.00000000000E+00  0.73119291845E+03  0.73119291845E+03  0.00000000000E+00 0. -1.
         21   -1    0    0  503  504 -0.00000000000E+00 -0.00000000000E+00 -0.37729283079E+02  0.37729283079E+02  0.00000000000E+00 0. -1.
         25    2    1    2    0    0 -0.59750351398E+02 -0.61444258888E+02  0.50400866673E+03  0.52630340833E+03  0.12500016014E+03 0.  0.
         25    2    1    2    0    0  0.59750351398E+02  0.61444258888E+02  0.18945496864E+03  0.24261879320E+03  0.12500076891E+03 0.  0.
          5    1    3    3  501    0  0.17316675658E+02 -0.69089971001E+02  0.29026781797E+03  0.29891602081E+03  0.47000000000E+01 0. -1.
         -5    1    3    3    0  501 -0.77067027056E+02  0.76457121132E+01  0.21374084877E+03  0.22738738752E+03  0.47000000000E+01 0. -1.
          5    1    4    4  502    0  0.52014159771E+02 -0.22086771381E+02  0.12318357036E+03  0.13560818668E+03  0.47000000000E+01 0. -1.
         -5    1    4    4    0  502  0.77361916268E+01  0.83531030269E+02  0.66271398277E+02  0.10701060652E+03  0.47000000000E+01 0. -1.
<mgrwt>
<rscale>  0 0.33218901E+03</rscale>
<asrwt>0</asrwt>
<pdfrwt beam="1">  1       21 0.11249121E+00 0.33218901E+03</pdfrwt>
<pdfrwt beam="2">  1       21 0.58045056E-02 0.33218901E+03</pdfrwt>
<totfact> 0.12320738E+05</totfact>
</mgrwt>
</event>
<event>
 8    1  0.9569852E-006  0.6174096E+03  0.7546771E-02  0.9869931E-01
         21   -1    0    0  504  503  0.00000000000E+00  0.00000000000E+00  0.15375961968E+03  0.15375961968E+03  0.00000000000E+00 0. -1.
         21   -1    0    0  503  504 -0.00000000000E+00 -0.00000000000E+00 -0.61978985521E+03  0.61978985521E+03  0.00000000000E+00 0. -1.
         25    2    1    2    0    0 -0.24504078940E+03 -0.93962628868E+02 -0.10283319469E+03  0.30834962947E+03  0.12502345367E+03 0.  0.
         25    2    1    2    0    0  0.24504078940E+03  0.93962628868E+02 -0.36319704083E+03  0.46519984543E+03  0.12499936648E+03 0.  0.
          5    1    3    3  501    0 -0.15386640302E+03 -0.12047874656E+03 -0.64522971438E+02  0.20585262251E+03  0.47000000000E+01 0.  1.
         -5    1    3    3    0  501 -0.91174386383E+02  0.26516117690E+02 -0.38310223256E+02  0.10249700696E+03  0.47000000000E+01 0.  1.
          5    1    4    4  502    0  0.21407730811E+03  0.50781994809E+02 -0.34427366188E+03  0.40860047615E+03  0.47000000000E+01 0. -1.
         -5    1    4    4    0  502  0.30963481294E+02  0.43180634059E+02 -0.18923378951E+02  0.56599369276E+02  0.47000000000E+01 0. -1.
<mgrwt>
<rscale>  0 0.61740960E+03</rscale>
<asrwt>0</asrwt>
<pdfrwt beam="1">  1       21 0.23655326E-01 0.61740960E+03</pdfrwt>
<pdfrwt beam="2">  1       21 0.95352286E-01 0.61740960E+03</pdfrwt>
<totfact> 0.13297583E+04</totfact>
</mgrwt>
</event>
<event>
 8    1  0.9569852E-006  0.2904930E+03  0.7546771E-02  0.1090092E+00
         21   -1    0    0  504  503  0.00000000000E+00  0.00000000000E+00  0.26780807257E+02  0.26780807257E+02  0.00000000000E+00 0. -1.
         21   -1    0    0  503  504 -0.00000000000E+00 -0.00000000000E+00 -0.78774868605E+03  0.78774868605E+03  0.00000000000E+00 0. -1.
         25    2    1    2    0    0  0.29492566288E+02 -0.11510461112E+02 -0.19313014556E+03  0.23223432032E+03  0.12502489444E+03 0.  0.
         25    2    1    2    0    0 -0.29492566288E+02  0.11510461112E+02 -0.56783773323E+03  0.58229517298E+03  0.12500270004E+03 0.  0.
          5    1    3    3  501    0 -0.43765284134E+02 -0.23311716539E+02 -0.48029570111E+02  0.69193683442E+02  0.47000000000E+01 0. -1.
         -5    1    3    3    0  501  0.73257850422E+02  0.11801255427E+02 -0.14510057545E+03  0.16304063688E+03  0.47000000000E+01 0. -1.
          5    1    4    4  502    0  0.24449457003E+02 -0.44423865725E+02 -0.20986734481E+03  0.21595751483E+03  0.47000000000E+01 0.  1.
         -5    1    4    4    0  502 -0.53942023291E+02  0.55934326838E+02 -0.35797038841E+03  0.36633765815E+03  0.47000000000E+01 0.  1.
<mgrwt>
<rscale>  0 0.29049300E+03</rscale>
<asrwt>0</asrwt>
<pdfrwt beam="1">  1       21 0.41201238E-02 0.29049300E+03</pdfrwt>
<pdfrwt beam="2">  1       21 0.12119212E+00 0.29049300E+03</pdfrwt>
<totfact> 0.18605523E+05</totfact>
</mgrwt>
</event>
<event>
 8    1  0.9569852E-006  0.3309603E+03  0.7546771E-02  0.1070713E+00
         21   -1    0    0  504  503  0.00000000000E+00  0.00000000000E+00  0.63327211071E+02  0.63327211071E+02  0.00000000000E+00 0. -1.
         21   -1    0    0  503  504 -0.00000000000E+00 -0.00000000000E+00 -0.43241556980E+03  0.43241556980E+03  0.00000000000E+00 0. -1.
         25    2    1    2    0    0 -0.55010736701E+02 -0.87200731234E+02 -0.23485214391E+03  0.28532127941E+03  0.12499021682E+03 0.  0.
         25    2    1    2    0    0  0.55010736701E+02  0.87200731234E+02 -0.13423621481E+03  0.21042150146E+03  0.12501079245E+03 0.  0.
          5    1    3    3  501    0 -0.39048605391E+02  0.26000789608E+02 -0.78595539393E+02  0.91652514727E+02  0.47000000000E+01 0.  1.
         -5    1    3    3    0  501 -0.15962131310E+02 -0.11320152084E+03 -0.15625660452E+03  0.19366876468E+03  0.47000000000E+01 0.  1.
          5    1    4    4  502    0  0.10052178849E+02  0.10829221530E+03 -0.11072918927E+03  0.15527811678E+03  0.47000000000E+01 0.  1.
         -5    1    4    4    0  502  0.44958557852E+02 -0.21091484066E+02 -0.23507025542E+02  0.55143384681E+02  0.47000000000E+01 0.  1.
<mgrwt>
<rscale>  0 0.33096025E+03</rscale>
<asrwt>0</asrwt>
<pdfrwt beam="1">  1       21 0.97426479E-02 0.33096025E+03</pdfrwt>
<pdfrwt beam="2">  1       21 0.66525472E-01 0.33096025E+03</pdfrwt>
<totfact> 0.16936867E+05</totfact>
</mgrwt>
</event>
<event>
 8    1  0.9569852E-006  0.3114359E+03  0.7546771E-02  0.1079660E+00
         21   -1    0    0  504  503  0.00000000000E+00  0.00000000000E+00  0.87659075358E+02  0.87659075358E+02  0.00000000000E+00 0.  1.
         21   -1    0    0  503  504 -0.00000000000E+00 -0.00000000000E+00 -0.27661804246E+03  0.27661804246E+03  0.00000000000E+00 0.  1.
         25    2    1    2    0    0 -0.40576719484E+02 -0.42491867631E+02 -0.10371647433E+02  0.13851085032E+03  0.12500262240E+03 0.  0.
         25    2    1    2    0    0  0.40576719484E+02  0.42491867631E+02 -0.17858731967E+03  0.22576626749E+03  0.12499979125E+03 0.  0.
          5    1    3    3  501    0 -0.62471412791E+02 -0.23566675469E+02  0.41622374254E+02  0.78819906416E+02  0.47000000000E+01 0.  1.
         -5    1    3    3    0  501  0.21894693308E+02 -0.18925192162E+02 -0.51994021687E+02  0.59690943908E+02  0.47000000000E+01 0.  1.
          5    1    4    4  502    0 -0.11052982828E+02  0.36869109671E+02  0.97164357359E+00  0.38788320002E+02  0.47000000000E+01 0. -1.
         -5    1    4    4    0  502  0.51629702312E+02  0.56227579607E+01 -0.17955896324E+03  0.18697794749E+03  0.47000000000E+01 0. -1.
<mgrwt>
<rscale>  0 0.31143591E+03</rscale>
<asrwt>0</asrwt>
<pdfrwt beam="1">  1       21 0.13486012E-01 0.31143591E+03</pdfrwt>
<pdfrwt beam="2">  1       21 0.42556621E-01 0.31143591E+03</pdfrwt>
<totfact> 0.24541551E+05</totfact>
</mgrwt>
</event>
<event>
 8    1  0.9569852E-006  0.3934888E+03  0.7546771E-02  0.1046058E+00
         21   -1    0    0  504  503  0.00000000000E+00  0.00000000000E+00  0.28170688597E+03  0.28170688597E+03  0.00000000000E+00 0. -1.
         21   -1    0    0  503  504 -0.00000000000E+00 -0.00000000000E+00 -0.13740651171E+03  0.13740651171E+03  0.00000000000E+00 0. -1.
         25    2    1    2    0    0  0.10728856138E+03 -0.84461875011E+02  0.14312524599E+03  0.23399321480E+03  0.12499337902E+03 0.  0.
         25    2    1    2    0    0 -0.10728856138E+03  0.84461875011E+02  0.11751282790E+01  0.18512018288E+03  0.12499382966E+03 0.  0.
          5    1    3    3  501    0  0.18724855873E+02 -0.78266987829E+02  0.21667214112E+02  0.83473946706E+02  0.47000000000E+01 0. -1.
         -5    1    3    3    0  501  0.88563705503E+02 -0.61948871816E+01  0.12145803188E+03  0.15051926809E+03  0.47000000000E+01 0. -1.
          5    1    4    4  502    0 -0.28877216393E+02 -0.63931113367E+01 -0.46986859937E+02  0.55719121547E+02  0.47000000000E+01 0. -1.
         -5    1    4    4    0  502 -0.78411344982E+02  0.90854986348E+02  0.48161988216E+02  0.12940106134E+03  0.47000000000E+01 0. -1.
<mgrwt>
<rscale>  0 0.39348881E+03</rscale>
<asrwt>0</asrwt>
<pdfrwt beam="1">  1       21 0.43339521E-01 0.39348881E+03</pdfrwt>
<pdfrwt beam="2">  1       21 0.21139463E-01 0.39348881E+03</pdfrwt>
<totfact> 0.10047866E+05</totfact>
</mgrwt>
</event>
<event>
 8    1  0.9569852E-006  0.3357427E+03  0.7546771E-02  0.1068624E+00
         21   -1    0    0  504  503  0.00000000000E+00  0.00000000000E+00  0.76483692225E+03  0.76483692225E+03  0.00000000000E+00 0.  1.
         21   -1    0    0  503  504 -0.00000000000E+00 -0.00000000000E+00 -0.36845478277E+02  0.36845478277E+02  0.00000000000E+00 0.  1.
         25    2    1    2    0    0  0.64427974949E+02 -0.71900419807E+02  0.22816246025E+03  0.27749297562E+03  0.12499443559E+03 0.  0.
         25    2    1    2    0    0 -0.64427974949E+02  0.71900419807E+02  0.49982898372E+03  0.52418942490E+03  0.12499962354E+03 0.  0.
          5    1    3    3  501    0 -0.19137397119E+02 -0.35695708153E+02  0.15589039057E+03  0.16113450102E+03  0.47000000000E+01 0.  1.
         -5    1    3    3    0  501  0.83565372068E+02 -0.36204711654E+02  0.72272069681E+02  0.11635847460E+03  0.47000000000E+01 0.  1.
          5    1    4    4  502    0  0.16209270457E+02 -0.72827923021E+01  0.24129372580E+03  0.24199283382E+03  0.47000000000E+01 0. -1.
         -5    1    4    4    0  502 -0.80637245406E+02  0.79183212109E+02  0.25853525792E+03  0.28219659108E+03  0.47000000000E+01 0. -1.
<mgrwt>
<rscale>  0 0.33574265E+03</rscale>
<asrwt>0</asrwt>
<pdfrwt beam="1">  1       21 0.11766721E+00 0.33574265E+03</pdfrwt>
<pdfrwt beam="2">  1       21 0.56685357E-02 0.33574265E+03</pdfrwt>
<totfact> 0.11469906E+05</totfact>
</mgrwt>
</event>
<event>
 8    1  0.9569852E-006  0.3063453E+03  0.7546771E-02  0.1082111E+00
         21   -1    0    0  504  503  0.00000000000E+00  0.00000000000E+00  0.49288099779E+02  0.49288099779E+02  0.00000000000E+00 0. -1.
         21   -1    0    0  503  504 -0.00000000000E+00 -0.00000000000E+00 -0.47601478091E+03  0.47601478091E+03  0.00000000000E+00 0. -1.
         25    2    1    2    0    0  0.86444375794E+02 -0.18971021218E+02 -0.21191896634E+03  0.26146807369E+03  0.12499350187E+03 0.  0.
         25    2    1    2    0    0 -0.86444375794E+02  0.18971021218E+02 -0.21480771479E+03  0.26383480700E+03  0.12503568011E+03 0.  0.
          5    1    3    3  501    0 -0.27499990510E+02 -0.12554731204E+02 -0.15605988077E+02  0.34343960423E+02  0.47000000000E+01 0.  1.
         -5    1    3    3    0  501  0.11394436630E+03 -0.64162900131E+01 -0.19631297826E+03  0.22712411326E+03  0.47000000000E+01 0.  1.
          5    1    4    4  502    0  0.18026487238E+02  0.40278950560E+02 -0.84093947093E+02  0.95085382883E+02  0.47000000000E+01 0. -1.
         -5    1    4    4    0  502 -0.10447086303E+03 -0.21307929343E+02 -0.13071376770E+03  0.16874942412E+03  0.47000000000E+01 0. -1.
<mgrwt>
<rscale>  0 0.30634532E+03</rscale>
<asrwt>0</asrwt>
<pdfrwt beam="1">  1       21 0.75827847E-02 0.30634532E+03</pdfrwt>
<pdfrwt beam="2">  1       21 0.73233042E-01 0.30634532E+03</pdfrwt>
<totfact> 0.21407585E+05</totfact>
</mgrwt>
</event>
<event>
 8    1  0.9569852E-006  0.5702042E+03  0.7546771E-02  0.9969227E-01
         21   -1    0    0  504  503  0.00000000000E+00  0.00000000000E+00  0.30398091264E+03  0.30398091264E+03  0.00000000000E+00 0. -1.
         21   -1    0    0  503  504 -0.00000000000E+00 -0.00000000000E+00 -0.26739572500E+03  0.26739572500E+03  0.00000000000E+00 0. -1.
         25    2    1    2    0    0 -0.82242190303E+02  0.87530311253E+02  0.24510116332E+03  0.30021446631E+03  0.12501524814E+03 0.  0.
         25    2    1    2    0    0  0.82242190303E+02 -0.87530311253E+02 -0.20851597568E+03  0.27116217132E+03  0.12499871115E+03 0.  0.
          5    1    3    3  501    0  0.42339917631E+01  0.69999834548E+02  0.17105037819E+03  0.18492762207E+03  0.47000000000E+01 0. -1.
         -5    1    3    3    0  501 -0.86476182066E+02  0.17530476704E+02  0.74050785125E+02  0.11528684424E+03  0.47000000000E+01 0. -1.
          5    1    4    4  502    0  0.38844040554E+02 -0.97936890513E+02 -0.72618078314E+02  0.12804674657E+03  0.47000000000E+01 0.  1.
         -5    1    4    4    0  502  0.43398149750E+02  0.10406579260E+02 -0.13589789737E+03  0.14311542475E+03  0.47000000000E+01 0.  1.
<mgrwt>
<rscale>  0 0.57020416E+03</rscale>
<asrwt>0</asrwt>
<pdfrwt beam="1">  1       21 0.46766294E-01 0.57020416E+03</pdfrwt>
<pdfrwt beam="2">  1       21 0.41137804E-01 0.57020416E+03</pdfrwt>
<totfact> 0.21994788E+04</totfact>
</mgrwt>
</event>
<event>
 8    1  0.9569852E-006  0.3340456E+03  0.7546771E-02  0.1069361E+00
         21   -1    0    0  504  503  0.00000000000E+00  0.00000000000E+00  0.18504036399E+03  0.18504036399E+03  0.00000000000E+00 0.  1.
         21   -1    0    0  503  504 -0.00000000000E+00 -0.00000000000E+00 -0.15075963026E+03  0.15075963026E+03  0.00000000000E+00 0.  1.
         25    2    1    2    0    0  0.54112448715E+02  0.92029650146E+02 -0.12618447981E+02  0.16486251378E+03  0.12499123812E+03 0.  0.
         25    2    1    2    0    0 -0.54112448715E+02 -0.92029650146E+02  0.46899181710E+02  0.17093748047E+03  0.12498990108E+03 0.  0.
          5    1    3    3  501    0  0.18234677634E+02  0.71605190764E+02  0.50266040497E+02  0.89490623196E+02  0.47000000000E+01 0. -1.
         -5    1    3    3    0  501  0.35877771081E+02  0.20424459382E+02 -0.62884488478E+02  0.75371890583E+02  0.47000000000E+01 0. -1.
          5    1    4    4  502    0 -0.45376354247E+02  0.17163467049E+02  0.36320703874E+02  0.60785538213E+02  0.47000000000E+01 0. -1.
         -5    1    4    4    0  502 -0.87360944679E+01 -0.10919311720E+03  0.10578477837E+02  0.11015194226E+03  0.47000000000E+01 0. -1.
<mgrwt>
<rscale>  0 0.33404561E+03</rscale>
<asrwt>0</asrwt>
<pdfrwt beam="1">  1       21 0.28467748E-01 0.33404561E+03</pdfrwt>
<pdfrwt beam="2">  1       21 0.23193789E-01 0.33404561E+03</pdfrwt>
<totfact> 0.19883270E+05</totfact>
</mgrwt>
</event>
<event>
 8    1  0.9569852E-006  0.3153525E+03  0.7546771E-02  0.1077808E+00
         21   -1    0    0  504  503  0.00000000000E+00  0.00000000000E+00  0.33923784637E+03  0.33923784637E+03  0.00000000000E+00 0. -1.
         21   -1    0    0  503  504 -0.00000000000E+00 -0.00000000000E+00 -0.73287210510E+02  0.73287210510E+02  0.00000000000E+00 0. -1.
         25    2    1    2    0    0 -0.92846353289E+02  0.19496558038E+02  0.15306659014E+03  0.21921516348E+03  0.12500138314E+03 0.  0.
         25    2    1    2    0    0  0.92846353289E+02 -0.19496558038E+02  0.11288404572E+03  0.19330989340E+03  0.12500138405E+03 0.  0.
          5    1    3    3  501    0 -0.12150032108E+03  0.26966619981E+02  0.13718181395E+03  0.18528482586E+03  0.47000000000E+01 0. -1.
         -5    1    3    3    0  501  0.28653967796E+02 -0.74700619429E+01  0.15884776191E+02  0.33930337613E+02  0.47000000000E+01 0. -1.
          5    1    4    4  502    0  0.10201044220E+03  0.21778969880E+02  0.10843849405E+03  0.15053720749E+03  0.47000000000E+01 0. -1.
         -5    1    4    4    0  502 -0.91640889119E+01 -0.41275527918E+02  0.44455516655E+01  0.42772685911E+02  0.47000000000E+01 0. -1.
<mgrwt>
<rscale>  0 0.31535247E+03</rscale>
<asrwt>0</asrwt>
<pdfrwt beam="1">  1       21 0.52190437E-01 0.31535247E+03</pdfrwt>
<pdfrwt beam="2">  1       21 0.11274956E-01 0.31535247E+03</pdfrwt>
<totfact> 0.22136851E+05</totfact>
</mgrwt>
</event>
<event>
 8    1  0.9569852E-006  0.3255507E+03  0.7546771E-02  0.1073123E+00
         21   -1    0    0  504  503  0.00000000000E+00  0.00000000000E+00  0.22961783622E+04  0.22961783622E+04  0.00000000000E+00 0. -1.
         21   -1    0    0  503  504 -0.00000000000E+00 -0.00000000000E+00 -0.11539091258E+02  0.11539091258E+02  0.00000000000E+00 0. -1.
         25    2    1    2    0    0 -0.39124923016E+02  0.30564284655E+02  0.49245769327E+03  0.51049611859E+03  0.12500708916E+03 0.  0.
         25    2    1    2    0    0  0.39124923016E+02 -0.30564284655E+02  0.17921815777E+04  0.17972213349E+04  0.12499913621E+03 0.  0.
          5    1    3    3  501    0 -0.24506241632E+02  0.38779631606E+01  0.47384730481E+03  0.47451970744E+03  0.47000000000E+01 0. -1.
         -5    1    3    3    0  501 -0.14618681383E+02  0.26686321495E+02  0.18610388456E+02  0.35976411144E+02  0.47000000000E+01 0. -1.
          5    1    4    4  502    0  0.20109732370E+02 -0.72180739244E+02  0.14526057366E+04  0.14545445942E+04  0.47000000000E+01 0.  1.
         -5    1    4    4    0  502  0.19015190646E+02  0.41616454589E+02  0.33957584114E+03  0.34267674075E+03  0.47000000000E+01 0.  1.
<mgrwt>
<rscale>  0 0.32555068E+03</rscale>
<asrwt>0</asrwt>
<pdfrwt beam="1">  1       21 0.35325785E+00 0.32555068E+03</pdfrwt>
<pdfrwt beam="2">  1       21 0.17752466E-02 0.32555068E+03</pdfrwt>
<totfact> 0.22350204E+04</totfact>
</mgrwt>
</event>
<event>
 8    1  0.9569852E-006  0.2684112E+03  0.7546771E-02  0.1102192E+00
         21   -1    0    0  504  503  0.00000000000E+00  0.00000000000E+00  0.81086288835E+02  0.81086288835E+02  0.00000000000E+00 0. -1.
         21   -1    0    0  503  504 -0.00000000000E+00 -0.00000000000E+00 -0.22212312664E+03  0.22212312664E+03  0.00000000000E+00 0. -1.
         25    2    1    2    0    0  0.43435075846E+02  0.17929234300E+02 -0.85452747031E+02  0.15855609738E+03  0.12501920166E+03 0.  0.
         25    2    1    2    0    0 -0.43435075846E+02 -0.17929234300E+02 -0.55584090777E+02  0.14465331810E+03  0.12500771189E+03 0.  0.
          5    1    3    3  501    0 -0.14755007535E+02  0.57069334312E+02 -0.58785161462E+02  0.83381079235E+02  0.47000000000E+01 0. -1.
         -5    1    3    3    0  501  0.58190083381E+02 -0.39140100012E+02 -0.26667585568E+02  0.75175018144E+02  0.47000000000E+01 0. -1.
          5    1    4    4  502    0  0.42423353546E+02 -0.20186772057E+02 -0.14983979787E+02  0.49536414308E+02  0.47000000000E+01 0. -1.
         -5    1    4    4    0  502 -0.85858429392E+02  0.22575377573E+01 -0.40600110990E+02  0.95116903791E+02  0.47000000000E+01 0. -1.
<mgrwt>
<rscale>  0 0.26841118E+03</rscale>
<asrwt>0</asrwt>
<pdfrwt beam="1">  1       21 0.12474814E-01 0.26841118E+03</pdfrwt>
<pdfrwt beam="2">  1       21 0.34172788E-01 0.26841118E+03</pdfrwt>
<totfact> 0.44477151E+05</totfact>
</mgrwt>
</event>
<event>
 8    1  0.9569852E-006  0.3032979E+03  0.7546771E-02  0.1083604E+00
         21   -1    0    0  504  503  0.00000000000E+00  0.00000000000E+00  0.38853816875E+03  0.38853816875E+03  0.00000000000E+00 0.  1.
         21   -1    0    0  503  504 -0.00000000000E+00 -0.00000000000E+00 -0.59189557185E+02  0.59189557185E+02  0.00000000000E+00 0.  1.
         25    2    1    2    0    0  0.72387884836E+02 -0.25806558363E+02  0.22120405299E+03  0.26544753961E+03  0.12500071559E+03 0.  0.
         25    2    1    2    0    0 -0.72387884836E+02  0.25806558363E+02  0.10814455857E+03  0.18228018633E+03  0.12499934581E+03 0.  0.
          5    1    3    3  501    0 -0.32052931084E+02  0.11960323465E+02  0.39783553375E+02  0.52680744562E+02  0.47000000000E+01 0.  1.
         -5    1    3    3    0  501  0.10444081592E+03 -0.37766881827E+02  0.18142049961E+03  0.21276679504E+03  0.47000000000E+01 0.  1.
          5    1    4    4  502    0  0.30571333188E+02  0.25995112006E+02  0.14209312475E+02  0.42829275293E+02  0.47000000000E+01 0.  1.
         -5    1    4    4    0  502 -0.10295921802E+03 -0.18855364347E+00  0.93935246099E+02  0.13945091103E+03  0.47000000000E+01 0.  1.
<mgrwt>
<rscale>  0 0.30329789E+03</rscale>
<asrwt>0</asrwt>
<pdfrwt beam="1">  1       21 0.59775101E-01 0.30329789E+03</pdfrwt>
<pdfrwt beam="2">  1       21 0.91060860E-02 0.30329789E+03</pdfrwt>
<totfact> 0.24296132E+05</totfact>
</mgrwt>
</event>
<event>
 8    1  0.9569852E-006  0.2865762E+03  0.7546771E-02  0.1092150E+00
         21   -1    0    0  504  503  0.00000000000E+00  0.00000000000E+00  0.21348629937E+03  0.21348629937E+03  0.00000000000E+00 0. -1.
         21   -1    0    0  503  504 -0.00000000000E+00 -0.00000000000E+00 -0.96172340608E+02  0.96172340608E+02  0.00000000000E+00 0. -1.
         25    2    1    2    0    0  0.53491885048E+02 -0.35045906721E+02  0.27761046332E+02  0.14312377554E+03  0.12499656830E+03 0.  0.
         25    2    1    2    0    0 -0.53491885048E+02  0.35045906721E+02  0.89552912426E+02  0.16653486443E+03  0.12499815840E+03 0.  0.
          5    1    3    3  501    0  0.19549585880E+02 -0.74083613760E+02 -0.12017535577E+02  0.77698644114E+02  0.47000000000E+01 0.  1.
         -5    1    3    3    0  501  0.33942299168E+02  0.39037707039E+02  0.39778581908E+02  0.65425131427E+02  0.47000000000E+01 0.  1.
          5    1    4    4  502    0 -0.64590699474E+02  0.48609377500E+02  0.61800146054E+01  0.81210298731E+02  0.47000000000E+01 0. -1.
         -5    1    4    4    0  502  0.11098814425E+02 -0.13563470779E+02  0.83372897821E+02  0.85324565702E+02  0.47000000000E+01 0. -1.
<mgrwt>
<rscale>  0 0.28657618E+03</rscale>
<asrwt>0</asrwt>
<pdfrwt beam="1">  1       21 0.32844046E-01 0.28657618E+03</pdfrwt>
<pdfrwt beam="2">  1       21 0.14795745E-01 0.28657618E+03</pdfrwt>
<totfact> 0.35155437E+05</totfact>
</mgrwt>
</event>
<event>
 8    1  0.9569852E-006  0.3531845E+03  0.7546771E-02  0.1061316E+00
         21   -1    0    0  504  503  0.00000000000E+00  0.00000000000E+00  0.32964887686E+03  0.32964887686E+03  0.00000000000E+00 0.  1.
         21   -1    0    0  503  504 -0.00000000000E+00 -0.00000000000E+00 -0.94600144171E+02  0.94600144171E+02  0.00000000000E+00 0.  1.
         25    2    1    2    0    0 -0.36289167837E+01 -0.98408815058E+02  0.25553618211E+02  0.16117091158E+03  0.12500244565E+03 0.  0.
         25    2    1    2    0    0  0.36289167837E+01  0.98408815058E+02  0.20949511447E+03  0.26307810944E+03  0.12499769902E+03 0.  0.
          5    1    3    3  501    0 -0.27335256957E+02  0.15009820499E+02  0.32127559439E+02  0.45019785204E+02  0.47000000000E+01 0. -1.
         -5    1    3    3    0  501  0.23706340173E+02 -0.11341863556E+03 -0.65739412285E+01  0.11615112638E+03  0.47000000000E+01 0. -1.
          5    1    4    4  502    0  0.47373234634E+02  0.31710477187E+02  0.15796120718E+03  0.16799884136E+03  0.47000000000E+01 0. -1.
         -5    1    4    4    0  502 -0.43744317850E+02  0.66698337872E+02  0.51533907295E+02  0.95079268087E+02  0.47000000000E+01 0. -1.
<mgrwt>
<rscale>  0 0.35318455E+03</rscale>
<asrwt>0</asrwt>
<pdfrwt beam="1">  1       21 0.50715211E-01 0.35318455E+03</pdfrwt>
<pdfrwt beam="2">  1       21 0.14553868E-01 0.35318455E+03</pdfrwt>
<totfact> 0.14663406E+05</totfact>
</mgrwt>
</event>
<event>
 8    1  0.9569852E-006  0.2888242E+03  0.7546771E-02  0.1090965E+00
         21   -1    0    0  504  503  0.00000000000E+00  0.00000000000E+00  0.17240403690E+03  0.17240403690E+03  0.00000000000E+00 0.  1.
         21   -1    0    0  503  504 -0.00000000000E+00 -0.00000000000E+00 -0.12096503431E+03  0.12096503431E+03  0.00000000000E+00 0.  1.
         25    2    1    2    0    0  0.66509615822E+02 -0.22644614515E+02  0.83470727112E+01  0.14363148182E+03  0.12499608547E+03 0.  0.
         25    2    1    2    0    0 -0.66509615822E+02  0.22644614515E+02  0.43091929874E+02  0.14973758940E+03  0.12501249415E+03 0.  0.
          5    1    3    3  501    0 -0.10683493479E+02  0.35450242708E+02 -0.20648266387E+02  0.42653225502E+02  0.47000000000E+01 0.  1.
         -5    1    3    3    0  501  0.77193109301E+02 -0.58094857222E+02  0.28995339098E+02  0.10097825632E+03  0.47000000000E+01 0.  1.
          5    1    4    4  502    0  0.49878411631E+01 -0.32854517654E+01 -0.37829986054E+02  0.38585885990E+02  0.47000000000E+01 0.  1.
         -5    1    4    4    0  502 -0.71497456985E+02  0.25930066280E+02  0.80921915927E+02  0.11115170341E+03  0.47000000000E+01 0.  1.
<mgrwt>
<rscale>  0 0.28882424E+03</rscale>
<asrwt>0</asrwt>
<pdfrwt beam="1">  1       21 0.26523698E-01 0.28882424E+03</pdfrwt>
<pdfrwt beam="2">  1       21 0.18610005E-01 0.28882424E+03</pdfrwt>
<totfact> 0.34955214E+05</totfact>
</mgrwt>
</event>
<event>
 8    1  0.9569852E-006  0.4340669E+03  0.7546771E-02  0.1032583E+00
         21   -1    0    0  504  503  0.00000000000E+00  0.00000000000E+00  0.22032412529E+03  0.22032412529E+03  0.00000000000E+00 0. -1.
         21   -1    0    0  503  504 -0.00000000000E+00 -0.00000000000E+00 -0.21379193100E+03  0.21379193100E+03  0.00000000000E+00 0. -1.
         25    2    1    2    0    0 -0.16186469408E+03 -0.77338970122E+01 -0.68981462111E+02  0.21596978969E+03  0.12499806236E+03 0.  0.
         25    2    1    2    0    0  0.16186469408E+03  0.77338970122E+01  0.75513656401E+02  0.21814626661E+03  0.12500195591E+03 0.  0.
          5    1    3    3  501    0 -0.16313692450E+03 -0.35144556013E+02 -0.81105749136E+02  0.18560449481E+03  0.47000000000E+01 0. -1.
         -5    1    3    3    0  501  0.12722304240E+01  0.27410659001E+02  0.12124287025E+02  0.30365294877E+02  0.47000000000E+01 0. -1.
          5    1    4    4  502    0  0.10423275999E+03 -0.21464219870E+01 -0.19804737375E+02  0.10622331667E+03  0.47000000000E+01 0.  1.
         -5    1    4    4    0  502  0.57631934084E+02  0.98803189993E+01  0.95318393777E+02  0.11192294993E+03  0.47000000000E+01 0.  1.
<mgrwt>
<rscale>  0 0.43406691E+03</rscale>
<asrwt>0</asrwt>
<pdfrwt beam="1">  1       21 0.33896019E-01 0.43406691E+03</pdfrwt>
<pdfrwt beam="2">  1       21 0.32891066E-01 0.43406691E+03</pdfrwt>
<totfact> 0.69384442E+04</totfact>
</mgrwt>
</event>
<event>
 8    1  0.9569852E-006  0.3400260E+03  0.7546771E-02  0.1066785E+00
         21   -1    0    0  504  503  0.00000000000E+00  0.00000000000E+00  0.50463944822E+02  0.50463944822E+02  0.00000000000E+00 0.  1.
         21   -1    0    0  503  504 -0.00000000000E+00 -0.00000000000E+00 -0.57277376339E+03  0.57277376339E+03  0.00000000000E+00 0.  1.
         25    2    1    2    0    0  0.19035971674E+02 -0.10644107494E+03 -0.33421804710E+03  0.37284783776E+03  0.12498694518E+03 0.  0.
         25    2    1    2    0    0 -0.19035971674E+02  0.10644107494E+03 -0.18809177147E+03  0.25038987045E+03  0.12499800830E+03 0.  0.
          5    1    3    3  501    0 -0.15461631844E+02 -0.86043483716E+02 -0.90890202574E+02  0.12619691784E+03  0.47000000000E+01 0.  1.
         -5    1    3    3    0  501  0.34497603518E+02 -0.20397591224E+02 -0.24332784452E+03  0.24665091992E+03  0.47000000000E+01 0.  1.
          5    1    4    4  502    0 -0.66553442625E+01 -0.14184734951E+02 -0.97734881887E+02  0.99094386574E+02  0.47000000000E+01 0. -1.
         -5    1    4    4    0  502 -0.12380627412E+02  0.12062580989E+03 -0.90356889587E+02  0.15129548388E+03  0.47000000000E+01 0. -1.
<mgrwt>
<rscale>  0 0.34002602E+03</rscale>
<asrwt>0</asrwt>
<pdfrwt beam="1">  1       21 0.77636842E-02 0.34002602E+03</pdfrwt>
<pdfrwt beam="2">  1       21 0.88119037E-01 0.34002602E+03</pdfrwt>
<totfact> 0.13330279E+05</totfact>
</mgrwt>
</event>
<event>
 8    1  0.9569852E-006  0.3000477E+03  0.7546771E-02  0.1085217E+00
         21   -1    0    0  504  503  0.00000000000E+00  0.00000000000E+00  0.21382658120E+03  0.21382658120E+03  0.00000000000E+00 0.  1.
         21   -1    0    0  503  504 -0.00000000000E+00 -0.00000000000E+00 -0.10525889680E+03  0.10525889680E+03  0.00000000000E+00 0.  1.
         25    2    1    2    0    0 -0.32277019198E+02 -0.71982047631E+02  0.26996963502E+02  0.15025941521E+03  0.12500333865E+03 0.  0.
         25    2    1    2    0    0  0.32277019198E+02  0.71982047631E+02  0.81570720899E+02  0.16882606279E+03  0.12500094328E+03 0.  0.
          5    1    3    3  501    0 -0.11088778955E+02 -0.10616531846E+03  0.24927027017E+02  0.10971546171E+03  0.47000000000E+01 0.  1.
         -5    1    3    3    0  501 -0.21188240243E+02  0.34183270825E+02  0.20699364849E+01  0.40543953507E+02  0.47000000000E+01 0.  1.
          5    1    4    4  502    0 -0.26869713718E+02  0.11857764809E+02  0.78891889883E+02  0.84312563660E+02  0.47000000000E+01 0. -1.
         -5    1    4    4    0  502  0.59146732916E+02  0.60124282823E+02  0.26788310155E+01  0.84513499130E+02  0.47000000000E+01 0. -1.
<mgrwt>
<rscale>  0 0.30004766E+03</rscale>
<asrwt>0</asrwt>
<pdfrwt beam="1">  1       21 0.32896397E-01 0.30004766E+03</pdfrwt>
<pdfrwt beam="2">  1       21 0.16193676E-01 0.30004766E+03</pdfrwt>
<totfact> 0.29595381E+05</totfact>
</mgrwt>
</event>
<event>
 8    1  0.9569852E-006  0.5534664E+03  0.7546771E-02  0.1000695E+00
         21   -1    0    0  504  503  0.00000000000E+00  0.00000000000E+00  0.22943908557E+03  0.22943908557E+03  0.00000000000E+00 0. -1.
         21   -1    0    0  503  504 -0.00000000000E+00 -0.00000000000E+00 -0.33377603471E+03  0.33377603471E+03  0.00000000000E+00 0. -1.
         25    2    1    2    0    0  0.13517823391E+03  0.30400050248E+01  0.15804523149E+03  0.24266563609E+03  0.12500367671E+03 0.  0.
         25    2    1    2    0    0 -0.13517823391E+03 -0.30400050248E+01 -0.26238218063E+03  0.32054948419E+03  0.12500066619E+03 0.  0.
          5    1    3    3  501    0  0.38712309228E+01 -0.25726932732E+02  0.86227845996E+02  0.90189760626E+02  0.47000000000E+01 0.  1.
         -5    1    3    3    0  501  0.13130700299E+03  0.28766937757E+02  0.71817385492E+02  0.15247587547E+03  0.47000000000E+01 0.  1.
          5    1    4    4  502    0 -0.35893257886E+02 -0.59197909008E+02 -0.86981796458E+02  0.11126833021E+03  0.47000000000E+01 0. -1.
         -5    1    4    4    0  502 -0.99284976023E+02  0.56157903983E+02 -0.17540038417E+03  0.20928115398E+03  0.47000000000E+01 0. -1.
<mgrwt>
<rscale>  0 0.55346642E+03</rscale>
<asrwt>0</asrwt>
<pdfrwt beam="1">  1       21 0.35298321E-01 0.55346642E+03</pdfrwt>
<pdfrwt beam="2">  1       21 0.51350159E-01 0.55346642E+03</pdfrwt>
<totfact> 0.24770217E+04</totfact>
</mgrwt>
</event>
<event>
 8    1  0.9569852E-006  0.3176100E+03  0.7546771E-02  0.1076755E+00
         21   -1    0    0  504  503  0.00000000000E+00  0.00000000000E+00  0.27249862303E+02  0.27249862303E+02  0.00000000000E+00 0. -1.
         21   -1    0    0  503  504 -0.00000000000E+00 -0.00000000000E+00 -0.92547359303E+03  0.92547359303E+03  0.00000000000E+00 0. -1.
         25    2    1    2    0    0  0.87182546053E+02  0.38071803088E+02 -0.51906951942E+03  0.54231790586E+03  0.12500114599E+03 0.  0.
         25    2    1    2    0    0 -0.87182546053E+02 -0.38071803088E+02 -0.37915421131E+03  0.41040554947E+03  0.12499816223E+03 0.  0.
          5    1    3    3  501    0 -0.13643122797E+02 -0.19152604336E+02 -0.24354927344E+02  0.34179080422E+02  0.47000000000E+01 0.  1.
         -5    1    3    3    0  501  0.10082566885E+03  0.57224407425E+02 -0.49471459207E+03  0.50813882543E+03  0.47000000000E+01 0.  1.
          5    1    4    4  502    0  0.27716799080E+02  0.13328657673E+02 -0.73280855452E+02  0.79611857423E+02  0.47000000000E+01 0. -1.
         -5    1    4    4    0  502 -0.11489934513E+03 -0.51400460762E+02 -0.30587335585E+03  0.33079369205E+03  0.47000000000E+01 0. -1.
<mgrwt>
<rscale>  0 0.31761000E+03</rscale>
<asrwt>0</asrwt>
<pdfrwt beam="1">  1       21 0.41922861E-02 0.31761000E+03</pdfrwt>
<pdfrwt beam="2">  1       21 0.14238057E+00 0.31761000E+03</pdfrwt>
<totfact> 0.11839839E+05</totfact>
</mgrwt>
</event>
<event>
 8    1  0.9569852E-006  0.2595681E+03  0.7546771E-02  0.1107403E+00
         21   -1    0    0  504  503  0.00000000000E+00  0.00000000000E+00  0.71217151114E+03  0.71217151114E+03  0.00000000000E+00 0.  1.
         21   -1    0    0  503  504 -0.00000000000E+00 -0.00000000000E+00 -0.23651462081E+02  0.23651462081E+02  0.00000000000E+00 0.  1.
         25    2    1    2    0    0 -0.25996156743E+00  0.27692053739E+02  0.28390656142E+03  0.31143828426E+03  0.12499580738E+03 0.  0.
         25    2    1    2    0    0  0.25996156743E+00 -0.27692053739E+02  0.40461348764E+03  0.42438468897E+03  0.12499348954E+03 0.  0.
          5    1    3    3  501    0 -0.59093228248E+02  0.25971813785E+02  0.18783757610E+03  0.19867458250E+03  0.47000000000E+01 0. -1.
         -5    1    3    3    0  501  0.58833266681E+02  0.17202399544E+01  0.96068985319E+02  0.11276370176E+03  0.47000000000E+01 0. -1.
          5    1    4    4  502    0  0.25063202273E+02  0.34183113259E+02  0.27766813122E+03  0.28092406525E+03  0.47000000000E+01 0.  1.
         -5    1    4    4    0  502 -0.24803240706E+02 -0.61875166999E+02  0.12694535642E+03  0.14346062372E+03  0.47000000000E+01 0.  1.
<mgrwt>
<rscale>  0 0.25956808E+03</rscale>
<asrwt>0</asrwt>
<pdfrwt beam="1">  1       21 0.10956483E+00 0.25956808E+03</pdfrwt>
<pdfrwt beam="2">  1       21 0.36386870E-02 0.25956808E+03</pdfrwt>
<totfact> 0.29686181E+05</totfact>
</mgrwt>
</event>
<event>
 8    1  0.9569852E-006  0.3784649E+03  0.7546771E-02  0.1051503E+00
         21   -1    0    0  504  503  0.00000000000E+00  0.00000000000E+00  0.39621669802E+03  0.39621669802E+03  0.00000000000E+00 0.  1.
         21   -1    0    0  503  504 -0.00000000000E+00 -0.00000000000E+00 -0.90377094295E+02  0.90377094295E+02  0.00000000000E+00 0.  1.
         25    2    1    2    0    0 -0.64947849179E+02  0.64514091913E+02  0.29260255277E+03  0.33109604573E+03  0.12501218515E+03 0.  0.
         25    2    1    2    0    0  0.64947849179E+02 -0.64514091913E+02  0.13237050952E+02  0.15549774659E+03  0.12499615398E+03 0.  0.
          5    1    3    3  501    0 -0.74298713019E+02  0.73336637579E+01  0.24436181586E+03  0.25555599862E+03  0.47000000000E+01 0.  1.
         -5    1    3    3    0  501  0.93508638406E+01  0.57180428155E+02  0.48240736911E+02  0.75540047103E+02  0.47000000000E+01 0.  1.
          5    1    4    4  502    0  0.74601359998E+02 -0.95147408328E+02  0.15816372740E+01  0.12100819725E+03  0.47000000000E+01 0.  1.
         -5    1    4    4    0  502 -0.96535108190E+01  0.30633316416E+02  0.11655413678E+02  0.34489549341E+02  0.47000000000E+01 0.  1.
<mgrwt>
<rscale>  0 0.37846487E+03</rscale>
<asrwt>0</asrwt>
<pdfrwt beam="1">  1       21 0.60956414E-01 0.37846487E+03</pdfrwt>
<pdfrwt beam="2">  1       21 0.13904169E-01 0.37846487E+03</pdfrwt>
<totfact> 0.10674051E+05</totfact>
</mgrwt>
</event>
<event>
 8    1  0.9569852E-006  0.2901859E+03  0.7546771E-02  0.1090252E+00
         21   -1    0    0  504  503  0.00000000000E+00  0.00000000000E+00  0.51828054869E+02  0.51828054869E+02  0.00000000000E+00 0.  1.
         21   -1    0    0  503  504 -0.00000000000E+00 -0.00000000000E+00 -0.40618862789E+03  0.40618862789E+03  0.00000000000E+00 0.  1.
         25    2    1    2    0    0 -0.57922609842E+02  0.43907905312E+02 -0.15821490754E+03  0.21433663073E+03  0.12500120570E+03 0.  0.
         25    2    1    2    0    0  0.57922609842E+02 -0.43907905312E+02 -0.19614566549E+03  0.24368005203E+03  0.12499565108E+03 0.  0.
          5    1    3    3  501    0 -0.80419361710E+02  0.69979596359E+02 -0.98369829945E+02  0.14513142695E+03  0.47000000000E+01 0. -1.
         -5    1    3    3    0  501  0.22496751869E+02 -0.26071691047E+02 -0.59845077592E+02  0.69205203783E+02  0.47000000000E+01 0. -1.
          5    1    4    4  502    0  0.84525730745E+02 -0.66050390323E+02 -0.16511359963E+03  0.19695645205E+03  0.47000000000E+01 0. -1.
         -5    1    4    4    0  502 -0.26603120903E+02  0.22142485011E+02 -0.31032065856E+02  0.46723599985E+02  0.47000000000E+01 0. -1.
<mgrwt>
<rscale>  0 0.29018592E+03</rscale>
<asrwt>0</asrwt>
<pdfrwt beam="1">  1       21 0.79735468E-02 0.29018592E+03</pdfrwt>
<pdfrwt beam="2">  1       21 0.62490559E-01 0.29018592E+03</pdfrwt>
<totfact> 0.27958338E+05</totfact>
</mgrwt>
</event>
<event>
 8    1  0.9569852E-006  0.4510711E+03  0.7546771E-02  0.1027403E+00
         21   -1    0    0  504  503  0.00000000000E+00  0.00000000000E+00  0.23374195318E+03  0.23374195318E+03  0.00000000000E+00 0. -1.
         21   -1    0    0  503  504 -0.00000000000E+00 -0.00000000000E+00 -0.21761722562E+03  0.21761722562E+03  0.00000000000E+00 0. -1.
         25    2    1    2    0    0  0.10139913467E+03 -0.15795557418E+03  0.50319821796E+01  0.22557160904E+03  0.12500192813E+03 0.  0.
         25    2    1    2    0    0 -0.10139913467E+03  0.15795557418E+03  0.11092745384E+02  0.22578756975E+03  0.12500091891E+03 0.  0.
          5    1    3    3  501    0  0.94971557705E+02 -0.17881783965E+03 -0.65405012439E+00  0.20252884815E+03  0.47000000000E+01 0.  1.
         -5    1    3    3    0  501  0.64275769658E+01  0.20862265474E+02  0.56860323040E+01  0.23042760896E+02  0.47000000000E+01 0.  1.
          5    1    4    4  502    0 -0.61637700823E+02  0.37722300731E+01 -0.16561698759E+02  0.64107844670E+02  0.47000000000E+01 0. -1.
         -5    1    4    4    0  502 -0.39761433848E+02  0.15418334411E+03  0.27654444143E+02  0.16167972508E+03  0.47000000000E+01 0. -1.
<mgrwt>
<rscale>  0 0.45107106E+03</rscale>
<asrwt>0</asrwt>
<pdfrwt beam="1">  1       21 0.35960301E-01 0.45107106E+03</pdfrwt>
<pdfrwt beam="2">  1       21 0.33479573E-01 0.45107106E+03</pdfrwt>
<totfact> 0.59200235E+04</totfact>
</mgrwt>
</event>
<event>
 8    1  0.9569852E-006  0.3041098E+03  0.7546771E-02  0.1083204E+00
         21   -1    0    0  504  503  0.00000000000E+00  0.00000000000E+00  0.98234175539E+03  0.98234175539E+03  0.00000000000E+00 0.  1.
         21   -1    0    0  503  504 -0.00000000000E+00 -0.00000000000E+00 -0.23536299022E+02  0.23536299022E+02  0.00000000000E+00 0.  1.
         25    2    1    2    0    0  0.46158430879E+02 -0.33067313508E+02  0.69556972969E+03  0.70898912532E+03  0.12499713194E+03 0.  0.
         25    2    1    2    0    0 -0.46158430879E+02  0.33067313508E+02  0.26323572667E+03  0.29688892909E+03  0.12500376177E+03 0.  0.
          5    1    3    3  501    0  0.13342219174E+02 -0.79544991065E+01  0.47376723598E+01  0.16906342239E+02  0.47000000000E+01 0.  1.
         -5    1    3    3    0  501  0.32816211705E+02 -0.25112814402E+02  0.69083205733E+03  0.69208278308E+03  0.47000000000E+01 0.  1.
          5    1    4    4  502    0 -0.22519973213E+02 -0.36461094702E+02  0.30535341852E+02  0.52830462069E+02  0.47000000000E+01 0.  1.
         -5    1    4    4    0  502 -0.23638457666E+02  0.69528408210E+02  0.23270038482E+03  0.24405846702E+03  0.47000000000E+01 0.  1.
<mgrwt>
<rscale>  0 0.30410978E+03</rscale>
<asrwt>0</asrwt>
<pdfrwt beam="1">  1       21 0.15112947E+00 0.30410978E+03</pdfrwt>
<pdfrwt beam="2">  1       21 0.36209698E-02 0.30410978E+03</pdfrwt>
<totfact> 0.12994903E+05</totfact>
</mgrwt>
</event>
<event>
 8    1  0.9569852E-006  0.2781269E+03  0.7546771E-02  0.1096716E+00
         21   -1    0    0  504  503  0.00000000000E+00  0.00000000000E+00  0.41086733219E+02  0.41086733219E+02  0.00000000000E+00 0.  1.
         21   -1    0    0  503  504 -0.00000000000E+00 -0.00000000000E+00 -0.47067866537E+03  0.47067866537E+03  0.00000000000E+00 0.  1.
         25    2    1    2    0    0 -0.31563964284E+02  0.42249251257E+01 -0.11912541976E+03  0.17558049458E+03  0.12499404230E+03 0.  0.
         25    2    1    2    0    0  0.31563964284E+02 -0.42249251257E+01 -0.31046651238E+03  0.33618490400E+03  0.12496679772E+03 0.  0.
          5    1    3    3  501    0  0.31450070130E+02  0.43570608368E+01  0.84703138165E+01  0.33195287414E+02  0.47000000000E+01 0. -1.
         -5    1    3    3    0  501 -0.63014034415E+02 -0.13213571112E+00 -0.12759573358E+03  0.14238520717E+03  0.47000000000E+01 0. -1.
          5    1    4    4  502    0  0.49135190821E+02  0.29363152916E+02 -0.28391622650E+03  0.28966700778E+03  0.47000000000E+01 0. -1.
         -5    1    4    4    0  502 -0.17571226536E+02 -0.33588078041E+02 -0.26550285887E+02  0.46517896225E+02  0.47000000000E+01 0. -1.
<mgrwt>
<rscale>  0 0.27812694E+03</rscale>
<asrwt>0</asrwt>
<pdfrwt beam="1">  1       21 0.63210360E-02 0.27812694E+03</pdfrwt>
<pdfrwt beam="2">  1       21 0.72412101E-01 0.27812694E+03</pdfrwt>
<totfact> 0.30335958E+05</totfact>
</mgrwt>
</event>
<event>
 8    1  0.9569852E-006  0.4173387E+03  0.7546771E-02  0.1037936E+00
         21   -1    0    0  504  503  0.00000000000E+00  0.00000000000E+00  0.39361960574E+03  0.39361960574E+03  0.00000000000E+00 0.  1.
         21   -1    0    0  503  504 -0.00000000000E+00 -0.00000000000E+00 -0.11062176655E+03  0.11062176655E+03  0.00000000000E+00 0.  1.
         25    2    1    2    0    0  0.55390524169E+02 -0.11400032072E+03  0.27304337575E+03  0.32594733585E+03  0.12499918966E+03 0.  0.
         25    2    1    2    0    0 -0.55390524169E+02  0.11400032072E+03  0.99544634395E+01  0.17829403644E+03  0.12500195517E+03 0.  0.
          5    1    3    3  501    0  0.50238675607E+02 -0.32441541578E+01  0.30064968508E+02  0.58825516524E+02  0.47000000000E+01 0.  1.
         -5    1    3    3    0  501  0.51518485620E+01 -0.11075616656E+03  0.24297840724E+03  0.26712181932E+03  0.47000000000E+01 0.  1.
          5    1    4    4  502    0 -0.26011212319E+02  0.10150639712E+03  0.58424010754E+02  0.12006492767E+03  0.47000000000E+01 0. -1.
         -5    1    4    4    0  502 -0.29379311849E+02  0.12493923594E+02 -0.48469547314E+02  0.58229108772E+02  0.47000000000E+01 0. -1.
<mgrwt>
<rscale>  0 0.41733869E+03</rscale>
<asrwt>0</asrwt>
<pdfrwt beam="1">  1       21 0.60556862E-01 0.41733869E+03</pdfrwt>
<pdfrwt beam="2">  1       21 0.17018733E-01 0.41733869E+03</pdfrwt>
<totfact> 0.73813252E+04</totfact>
</mgrwt>
</event>
<event>
 8    1  0.9569852E-006  0.3250548E+03  0.7546771E-02  0.1073346E+00
         21   -1    0    0  504  503  0.00000000000E+00  0.00000000000E+00  0.33505528494E+02  0.33505528494E+02  0.00000000000E+00 0. -1.
         21   -1    0    0  503  504 -0.00000000000E+00 -0.00000000000E+00 -0.78838177850E+03  0.78838177850E+03  0.00000000000E+00 0. -1.
         25    2    1    2    0    0 -0.74653085420E+01  0.39139228460E+02 -0.61998938830E+03  0.63371908335E+03  0.12500169983E+03 0.  0.
         25    2    1    2    0    0  0.74653085420E+01 -0.39139228460E+02 -0.13488686170E+03  0.18816822364E+03  0.12500081957E+03 0.  0.
          5    1    3    3  501    0  0.43005739062E+01 -0.10143067065E+02 -0.33863946270E+00  0.11982546561E+02  0.47000000000E+01 0.  1.
         -5    1    3    3    0  501 -0.11765882448E+02  0.49282295525E+02 -0.61965074884E+03  0.62173653679E+03  0.47000000000E+01 0.  1.
          5    1    4    4  502    0  0.19638875755E+02  0.21229767167E+02 -0.12148411732E+03  0.12496747263E+03  0.47000000000E+01 0. -1.
         -5    1    4    4    0  502 -0.12173567213E+02 -0.60368995627E+02 -0.13402744388E+02  0.63200751015E+02  0.47000000000E+01 0. -1.
<mgrwt>
<rscale>  0 0.32505475E+03</rscale>
<asrwt>0</asrwt>
<pdfrwt beam="1">  1       21 0.51546968E-02 0.32505475E+03</pdfrwt>
<pdfrwt beam="2">  1       21 0.12128950E+00 0.32505475E+03</pdfrwt>
<totfact> 0.12552623E+05</totfact>
</mgrwt>
</event>
<event>
 8    1  0.9569852E-006  0.2946738E+03  0.7546771E-02  0.1087934E+00
         21   -1    0    0  504  503  0.00000000000E+00  0.00000000000E+00  0.17668226046E+03  0.17668226046E+03  0.00000000000E+00 0.  1.
         21   -1    0    0  503  504 -0.00000000000E+00 -0.00000000000E+00 -0.12286558127E+03  0.12286558127E+03  0.00000000000E+00 0.  1.
         25    2    1    2    0    0  0.56584479180E+02  0.53418333134E+02  0.32326235777E+02  0.15074592085E+03  0.12499610207E+03 0.  0.
         25    2    1    2    0    0 -0.56584479180E+02 -0.53418333134E+02  0.21490443412E+02  0.14880192089E+03  0.12499940361E+03 0.  0.
          5    1    3    3  501    0  0.13887254244E+02  0.25074250407E+01  0.71794988839E+02  0.73319529685E+02  0.47000000000E+01 0. -1.
         -5    1    3    3    0  501  0.42697224936E+02  0.50910908094E+02 -0.39468753063E+02  0.77426391163E+02  0.47000000000E+01 0. -1.
          5    1    4    4  502    0  0.31615013647E+02  0.59612313481E+01 -0.15642647549E+02  0.36080850730E+02  0.47000000000E+01 0.  1.
         -5    1    4    4    0  502 -0.88199492827E+02 -0.59379564483E+02  0.37133090961E+02  0.11272107016E+03  0.47000000000E+01 0.  1.
<mgrwt>
<rscale>  0 0.29467384E+03</rscale>
<asrwt>0</asrwt>
<pdfrwt beam="1">  1       21 0.27181886E-01 0.29467384E+03</pdfrwt>
<pdfrwt beam="2">  1       21 0.18902397E-01 0.29467384E+03</pdfrwt>
<totfact> 0.32334407E+05</totfact>
</mgrwt>
</event>
<event>
 8    1  0.9569852E-006  0.3252173E+03  0.7546771E-02  0.1073273E+00
         21   -1    0    0  504  503  0.00000000000E+00  0.00000000000E+00  0.20436575568E+03  0.20436575568E+03  0.00000000000E+00 0. -1.
         21   -1    0    0  503  504 -0.00000000000E+00 -0.00000000000E+00 -0.12938355515E+03  0.12938355515E+03  0.00000000000E+00 0. -1.
         25    2    1    2    0    0 -0.91545524899E+02  0.17145379824E+02 -0.10041316861E+02  0.15620378568E+03  0.12499698972E+03 0.  0.
         25    2    1    2    0    0  0.91545524899E+02 -0.17145379824E+02  0.85023517384E+02  0.17754552515E+03  0.12497546885E+03 0.  0.
          5    1    3    3  501    0 -0.65965326240E+02  0.37961743852E+02 -0.59397327739E+02  0.96657388775E+02  0.47000000000E+01 0. -1.
         -5    1    3    3    0  501 -0.25580198660E+02 -0.20816364027E+02  0.49356010879E+02  0.59546396907E+02  0.47000000000E+01 0. -1.
          5    1    4    4  502    0  0.17732812330E+02 -0.61647953872E+02  0.14147532088E+02  0.65857159930E+02  0.47000000000E+01 0.  1.
         -5    1    4    4    0  502  0.73812712569E+02  0.44502574048E+02  0.70875985295E+02  0.11168836522E+03  0.47000000000E+01 0.  1.
<mgrwt>
<rscale>  0 0.32521727E+03</rscale>
<asrwt>0</asrwt>
<pdfrwt beam="1">  1       21 0.31440886E-01 0.32521727E+03</pdfrwt>
<pdfrwt beam="2">  1       21 0.19905162E-01 0.32521727E+03</pdfrwt>
<totfact> 0.21906617E+05</totfact>
</mgrwt>
</event>
<event>
 8    1  0.9569852E-006  0.2719710E+03  0.7546771E-02  0.1100157E+00
         21   -1    0    0  504  503  0.00000000000E+00  0.00000000000E+00  0.10798024954E+03  0.10798024954E+03  0.00000000000E+00 0. -1.
         21   -1    0    0  503  504 -0.00000000000E+00 -0.00000000000E+00 -0.17125409249E+03  0.17125409249E+03  0.00000000000E+00 0. -1.
         25    2    1    2    0    0  0.25965657296E+01 -0.52443851741E+02 -0.42428889288E+02  0.14206179430E+03  0.12499697202E+03 0.  0.
         25    2    1    2    0    0 -0.25965657296E+01  0.52443851741E+02 -0.20844953663E+02  0.13717254772E+03  0.12499878406E+03 0.  0.
          5    1    3    3  501    0 -0.35390642466E+02 -0.56829478070E+02 -0.68220422713E+02  0.95698501697E+02  0.47000000000E+01 0. -1.
         -5    1    3    3    0  501  0.37987208195E+02  0.43856263295E+01  0.25791533425E+02  0.46363292605E+02  0.47000000000E+01 0. -1.
          5    1    4    4  502    0  0.60960302301E+01  0.65100742596E+02 -0.63701191116E+02  0.91406783232E+02  0.47000000000E+01 0. -1.
         -5    1    4    4    0  502 -0.86925959596E+01 -0.12656890856E+02  0.42856237454E+02  0.45765764490E+02  0.47000000000E+01 0. -1.
<mgrwt>
<rscale>  0 0.27197103E+03</rscale>
<asrwt>0</asrwt>
<pdfrwt beam="1">  1       21 0.16612346E-01 0.27197103E+03</pdfrwt>
<pdfrwt beam="2">  1       21 0.26346783E-01 0.27197103E+03</pdfrwt>
<totfact> 0.43879527E+05</totfact>
</mgrwt>
</event>
<event>
 8    1  0.9569852E-006  0.2707797E+03  0.7546771E-02  0.1100834E+00
         21   -1    0    0  504  503  0.00000000000E+00  0.00000000000E+00  0.15934252165E+03  0.15934252165E+03  0.00000000000E+00 0. -1.
         21   -1    0    0  503  504 -0.00000000000E+00 -0.00000000000E+00 -0.11503780979E+03  0.11503780979E+03  0.00000000000E+00 0. -1.
         25    2    1    2    0    0 -0.41000465095E+02  0.12915686224E+02  0.51835756164E+02  0.14197797540E+03  0.12499178690E+03 0.  0.
         25    2    1    2    0    0  0.41000465095E+02 -0.12915686224E+02 -0.75310443097E+01  0.13240235604E+03  0.12500325663E+03 0.  0.
          5    1    3    3  501    0  0.31376914654E+02  0.42464245678E+02  0.28883343966E+02  0.60366054144E+02  0.47000000000E+01 0. -1.
         -5    1    3    3    0  501 -0.72377379749E+02 -0.29548559454E+02  0.22952412198E+02  0.81611921254E+02  0.47000000000E+01 0. -1.
          5    1    4    4  502    0  0.84293118054E+02 -0.14629655671E+02 -0.18066517558E+02  0.87566235690E+02  0.47000000000E+01 0. -1.
         -5    1    4    4    0  502 -0.43292652959E+02  0.17139694468E+01  0.10535473248E+02  0.44836120350E+02  0.47000000000E+01 0. -1.
<mgrwt>
<rscale>  0 0.27077972E+03</rscale>
<asrwt>0</asrwt>
<pdfrwt beam="1">  1       21 0.24514234E-01 0.27077972E+03</pdfrwt>
<pdfrwt beam="2">  1       21 0.17698125E-01 0.27077972E+03</pdfrwt>
<totfact> 0.44842146E+05</totfact>
</mgrwt>
</event>
<event>
 8    1  0.9569852E-006  0.3040078E+03  0.7546771E-02  0.1083254E+00
         21   -1    0    0  504  503  0.00000000000E+00  0.00000000000E+00  0.26470947937E+03  0.26470947937E+03  0.00000000000E+00 0.  1.
         21   -1    0    0  503  504 -0.00000000000E+00 -0.00000000000E+00 -0.87285054623E+02  0.87285054623E+02  0.00000000000E+00 0.  1.
         25    2    1    2    0    0  0.68483244727E+02 -0.26584747303E+02  0.14157960954E+03  0.20264132330E+03  0.12498806533E+03 0.  0.
         25    2    1    2    0    0 -0.68483244727E+02  0.26584747303E+02  0.35844815202E+02  0.14935321069E+03  0.12499930867E+03 0.  0.
          5    1    3    3  501    0 -0.71298201043E+01 -0.27124789173E+02 -0.12407513996E+02  0.31026197414E+02  0.47000000000E+01 0. -1.
         -5    1    3    3    0  501  0.75613064831E+02  0.54004187057E+00  0.15398712354E+03  0.17161512589E+03  0.47000000000E+01 0. -1.
          5    1    4    4  502    0  0.11791991162E+02 -0.37397906942E+02  0.23232799344E+02  0.45820382632E+02  0.47000000000E+01 0. -1.
         -5    1    4    4    0  502 -0.80275235889E+02  0.63982654245E+02  0.12612015859E+02  0.10353282806E+03  0.47000000000E+01 0. -1.
<mgrwt>
<rscale>  0 0.30400777E+03</rscale>
<asrwt>0</asrwt>
<pdfrwt beam="1">  1       21 0.40724535E-01 0.30400777E+03</pdfrwt>
<pdfrwt beam="2">  1       21 0.13428470E-01 0.30400777E+03</pdfrwt>
<totfact> 0.27114641E+05</totfact>
</mgrwt>
</event>
<event>
 8    1  0.9569852E-006  0.3051515E+03  0.7546771E-02  0.1082693E+00
         21   -1    0    0  504  503  0.00000000000E+00  0.00000000000E+00  0.45392304159E+03  0.45392304159E+03  0.00000000000E+00 0.  1.
         21   -1    0    0  503  504 -0.00000000000E+00 -0.00000000000E+00 -0.51284811088E+02  0.51284811088E+02  0.00000000000E+00 0.  1.
         25    2    1    2    0    0  0.61057878664E+02 -0.18295186523E+02  0.10210859769E+03  0.17353648328E+03  0.12500386758E+03 0.  0.
         25    2    1    2    0    0 -0.61057878664E+02  0.18295186523E+02  0.30052963281E+03  0.33167136940E+03  0.12500023474E+03 0.  0.
          5    1    3    3  501    0  0.14876862281E+02 -0.69484337449E+02  0.51925372102E+02  0.88134717620E+02  0.47000000000E+01 0. -1.
         -5    1    3    3    0  501  0.46181016384E+02  0.51189150926E+02  0.50183225591E+02  0.85401765658E+02  0.47000000000E+01 0. -1.
          5    1    4    4  502    0  0.13688357190E+02  0.35759535553E+02  0.20709998214E+03  0.21066230823E+03  0.47000000000E+01 0.  1.
         -5    1    4    4    0  502 -0.74746235855E+02 -0.17464349030E+02  0.93429650669E+02  0.12100906117E+03  0.47000000000E+01 0.  1.
<mgrwt>
<rscale>  0 0.30515149E+03</rscale>
<asrwt>0</asrwt>
<pdfrwt beam="1">  1       21 0.69834311E-01 0.30515149E+03</pdfrwt>
<pdfrwt beam="2">  1       21 0.78899713E-02 0.30515149E+03</pdfrwt>
<totfact> 0.22214883E+05</totfact>
</mgrwt>
</event>
<event>
 8    1  0.9569852E-006  0.3077508E+03  0.7546771E-02  0.1081429E+00
         21   -1    0    0  504  503  0.00000000000E+00  0.00000000000E+00  0.10056917775E+03  0.10056917775E+03  0.00000000000E+00 0.  1.
         21   -1    0    0  503  504 -0.00000000000E+00 -0.00000000000E+00 -0.23543638184E+03  0.23543638184E+03  0.00000000000E+00 0.  1.
         25    2    1    2    0    0  0.56482904461E+02  0.69255455942E+02 -0.58487059259E+02  0.16440352723E+03  0.12498458701E+03 0.  0.
         25    2    1    2    0    0 -0.56482904461E+02 -0.69255455942E+02 -0.76380144831E+02  0.17160203236E+03  0.12500677707E+03 0.  0.
          5    1    3    3  501    0  0.60225220351E+02  0.72614311488E+02  0.10532345527E+02  0.95041757672E+02  0.47000000000E+01 0.  1.
         -5    1    3    3    0  501 -0.37423158899E+01 -0.33588555466E+01 -0.69019404786E+02  0.69361769555E+02  0.47000000000E+01 0.  1.
          5    1    4    4  502    0  0.39221338605E+02 -0.22244003509E+02 -0.11765481296E+02  0.46836157445E+02  0.47000000000E+01 0. -1.
         -5    1    4    4    0  502 -0.95704243066E+02 -0.47011452432E+02 -0.64614663536E+02  0.12476587492E+03  0.47000000000E+01 0. -1.
<mgrwt>
<rscale>  0 0.30775083E+03</rscale>
<asrwt>0</asrwt>
<pdfrwt beam="1">  1       21 0.15472181E-01 0.30775083E+03</pdfrwt>
<pdfrwt beam="2">  1       21 0.36220982E-01 0.30775083E+03</pdfrwt>
<totfact> 0.26509114E+05</totfact>
</mgrwt>
</event>
<event>
 8    1  0.9569852E-006  0.2695340E+03  0.7546771E-02  0.1101547E+00
         21   -1    0    0  504  503  0.00000000000E+00  0.00000000000E+00  0.13259412785E+03  0.13259412785E+03  0.00000000000E+00 0. -1.
         21   -1    0    0  503  504 -0.00000000000E+00 -0.00000000000E+00 -0.13697545577E+03  0.13697545577E+03  0.00000000000E+00 0. -1.
         25    2    1    2    0    0  0.17027507633E+02 -0.31156123971E+01  0.45133832650E+02  0.13401776614E+03  0.12499622288E+03 0.  0.
         25    2    1    2    0    0 -0.17027507633E+02  0.31156123971E+01 -0.49515160576E+02  0.13555181748E+03  0.12499160387E+03 0.  0.
          5    1    3    3  501    0 -0.16733842654E+02 -0.27931035508E+02 -0.32138645959E+02  0.45990725137E+02  0.47000000000E+01 0. -1.
         -5    1    3    3    0  501  0.33761350286E+02  0.24815423111E+02  0.77272478609E+02  0.88027041003E+02  0.47000000000E+01 0. -1.
          5    1    4    4  502    0 -0.40016669000E+02  0.54567284912E+02 -0.15565127341E+02  0.69593717889E+02  0.47000000000E+01 0.  1.
         -5    1    4    4    0  502  0.22989161367E+02 -0.51451672515E+02 -0.33950033235E+02  0.65958099591E+02  0.47000000000E+01 0.  1.
<mgrwt>
<rscale>  0 0.26953398E+03</rscale>
<asrwt>0</asrwt>
<pdfrwt beam="1">  1       21 0.20399097E-01 0.26953398E+03</pdfrwt>
<pdfrwt beam="2">  1       21 0.21073147E-01 0.26953398E+03</pdfrwt>
<totfact> 0.45859676E+05</totfact>
</mgrwt>
</event>
<event>
 8    1  0.9569852E-006  0.3064559E+03  0.7546771E-02  0.1082057E+00
         21   -1    0    0  504  503  0.00000000000E+00  0.00000000000E+00  0.23798849389E+03  0.23798849389E+03  0.00000000000E+00 0. -1.
         21   -1    0    0  503  504 -0.00000000000E+00 -0.00000000000E+00 -0.98655186484E+02  0.98655186484E+02  0.00000000000E+00 0. -1.
         25    2    1    2    0    0 -0.78186469842E+02 -0.24592907859E+02  0.10676630947E+03  0.18366686699E+03  0.12496614745E+03 0.  0.
         25    2    1    2    0    0  0.78186469842E+02  0.24592907859E+02  0.32566997931E+02  0.15297681338E+03  0.12499344340E+03 0.  0.
          5    1    3    3  501    0 -0.75968799223E+02 -0.17524610228E+02  0.15862495717E+01  0.78121550207E+02  0.47000000000E+01 0. -1.
         -5    1    3    3    0  501 -0.22176706184E+01 -0.70682976310E+01  0.10518005990E+03  0.10554531679E+03  0.47000000000E+01 0. -1.
          5    1    4    4  502    0 -0.93443320719E+01 -0.96454514780E+01  0.54518195483E+02  0.56344253610E+02  0.47000000000E+01 0. -1.
         -5    1    4    4    0  502  0.87530801914E+02  0.34238359337E+02 -0.21951197552E+02  0.96632559770E+02  0.47000000000E+01 0. -1.
<mgrwt>
<rscale>  0 0.30645586E+03</rscale>
<asrwt>0</asrwt>
<pdfrwt beam="1">  1       21 0.36613614E-01 0.30645586E+03</pdfrwt>
<pdfrwt beam="2">  1       21 0.15177721E-01 0.30645586E+03</pdfrwt>
<totfact> 0.26881077E+05</totfact>
</mgrwt>
</event>
<event>
 8    1  0.9569852E-006  0.2834722E+03  0.7546771E-02  0.1093807E+00
         21   -1    0    0  504  503  0.00000000000E+00  0.00000000000E+00  0.69036239474E+02  0.69036239474E+02  0.00000000000E+00 0.  1.
         21   -1    0    0  503  504 -0.00000000000E+00 -0.00000000000E+00 -0.29099379896E+03  0.29099379896E+03  0.00000000000E+00 0.  1.
         25    2    1    2    0    0 -0.38716337024E+02 -0.34587021154E+02 -0.57571447323E+02  0.14708803600E+03  0.12500080800E+03 0.  0.
         25    2    1    2    0    0  0.38716337024E+02  0.34587021154E+02 -0.16438611216E+03  0.21294200243E+03  0.12500514288E+03 0.  0.
          5    1    3    3  501    0  0.49888157159E+01 -0.39581890538E+01  0.37301975460E+02  0.38132439157E+02  0.47000000000E+01 0.  1.
         -5    1    3    3    0  501 -0.43705152740E+02 -0.30628832100E+02 -0.94873422783E+02  0.10895559684E+03  0.47000000000E+01 0.  1.
          5    1    4    4  502    0  0.77737025354E+01 -0.28255548057E+01  0.20035226246E+02  0.22179145651E+02  0.47000000000E+01 0. -1.
         -5    1    4    4    0  502  0.30942634489E+02  0.37412575959E+02 -0.18442133840E+03  0.19076285678E+03  0.47000000000E+01 0. -1.
<mgrwt>
<rscale>  0 0.28347217E+03</rscale>
<asrwt>0</asrwt>
<pdfrwt beam="1">  1       21 0.10620960E-01 0.28347217E+03</pdfrwt>
<pdfrwt beam="2">  1       21 0.44768277E-01 0.28347217E+03</pdfrwt>
<totfact> 0.34216752E+05</totfact>
</mgrwt>
</event>
<event>
 8    1  0.9569852E-006  0.4335528E+03  0.7546771E-02  0.1032744E+00
         21   -1    0    0  504  503  0.00000000000E+00  0.00000000000E+00  0.17645133782E+03  0.17645133782E+03  0.00000000000E+00 0. -1.
         21   -1    0    0  503  504 -0.00000000000E+00 -0.00000000000E+00 -0.26631705524E+03  0.26631705524E+03  0.00000000000E+00 0. -1.
         25    2    1    2    0    0  0.14553546446E+03  0.57362177176E+02  0.39848725005E+02  0.20416843580E+03  0.12500335398E+03 0.  0.
         25    2    1    2    0    0 -0.14553546446E+03 -0.57362177176E+02 -0.12971444242E+03  0.23859995725E+03  0.12503244475E+03 0.  0.
          5    1    3    3  501    0  0.14529724324E+03  0.87477840701E+02  0.31480673753E+02  0.17255950952E+03  0.47000000000E+01 0.  1.
         -5    1    3    3    0  501  0.23822122505E+00 -0.30115663525E+02  0.83680512520E+01  0.31608926281E+02  0.47000000000E+01 0.  1.
          5    1    4    4  502    0 -0.11342749136E+03  0.10616109220E+02 -0.11481957335E+03  0.16181508581E+03  0.47000000000E+01 0. -1.
         -5    1    4    4    0  502 -0.32107973104E+02 -0.67978286395E+02 -0.14894869076E+02  0.76784871445E+02  0.47000000000E+01 0. -1.
<mgrwt>
<rscale>  0 0.43355277E+03</rscale>
<asrwt>0</asrwt>
<pdfrwt beam="1">  1       21 0.27146360E-01 0.43355277E+03</pdfrwt>
<pdfrwt beam="2">  1       21 0.40971855E-01 0.43355277E+03</pdfrwt>
<totfact> 0.69006490E+04</totfact>
</mgrwt>
</event>
<event>
 8    1  0.9569852E-006  0.7170938E+03  0.7546771E-02  0.9688438E-01
         21   -1    0    0  504  503  0.00000000000E+00  0.00000000000E+00  0.67255489985E+03  0.67255489985E+03  0.00000000000E+00 0.  1.
         21   -1    0    0  503  504 -0.00000000000E+00 -0.00000000000E+00 -0.19114554456E+03  0.19114554456E+03  0.00000000000E+00 0.  1.
         25    2    1    2    0    0  0.15266492821E+03 -0.49491216250E+02  0.59631872102E+03  0.63006706024E+03  0.12503008669E+03 0.  0.
         25    2    1    2    0    0 -0.15266492821E+03  0.49491216250E+02 -0.11490936573E+03  0.23363338417E+03  0.12499774028E+03 0.  0.
          5    1    3    3  501    0  0.41410967486E+02 -0.76986004510E+02  0.29247297281E+03  0.30529369948E+03  0.47000000000E+01 0. -1.
         -5    1    3    3    0  501  0.11125396072E+03  0.27494788260E+02  0.30384574821E+03  0.32477336077E+03  0.47000000000E+01 0. -1.
          5    1    4    4  502    0 -0.13172915617E+03  0.59518452397E+02 -0.13846901717E+03  0.20022681009E+03  0.47000000000E+01 0.  1.
         -5    1    4    4    0  502 -0.20935772034E+02 -0.10027236147E+02  0.23559651445E+02  0.33406574078E+02  0.47000000000E+01 0.  1.
<mgrwt>
<rscale>  0 0.71709378E+03</rscale>
<asrwt>0</asrwt>
<pdfrwt beam="1">  1       21 0.10346998E+00 0.71709378E+03</pdfrwt>
<pdfrwt beam="2">  1       21 0.29407007E-01 0.71709378E+03</pdfrwt>
<totfact> 0.69445220E+03</totfact>
</mgrwt>
</event>
<event>
 8    1  0.9569852E-006  0.2884513E+03  0.7546771E-02  0.1091161E+00
         21   -1    0    0  504  503  0.00000000000E+00  0.00000000000E+00  0.42609963562E+03  0.42609963562E+03  0.00000000000E+00 0.  1.
         21   -1    0    0  503  504 -0.00000000000E+00 -0.00000000000E+00 -0.48817293562E+02  0.48817293562E+02  0.00000000000E+00 0.  1.
         25    2    1    2    0    0  0.30718528964E+02 -0.33565863185E+02  0.28040132295E+03  0.31035299336E+03  0.12499513343E+03 0.  0.
         25    2    1    2    0    0 -0.30718528964E+02  0.33565863185E+02  0.96881019105E+02  0.16456393582E+03  0.12500024767E+03 0.  0.
          5    1    3    3  501    0  0.24734302866E+01  0.45600716998E+02  0.69753148841E+02  0.83505299361E+02  0.47000000000E+01 0. -1.
         -5    1    3    3    0  501  0.28245098677E+02 -0.79166580183E+02  0.21064817411E+03  0.22684769400E+03  0.47000000000E+01 0. -1.
          5    1    4    4  502    0 -0.48052899203E+02  0.52850332218E+02  0.82027268784E+01  0.72052851891E+02  0.47000000000E+01 0. -1.
         -5    1    4    4    0  502  0.17334370239E+02 -0.19284469034E+02  0.88678292227E+02  0.92511083929E+02  0.47000000000E+01 0. -1.
<mgrwt>
<rscale>  0 0.28845125E+03</rscale>
<asrwt>0</asrwt>
<pdfrwt beam="1">  1       21 0.65553788E-01 0.28845125E+03</pdfrwt>
<pdfrwt beam="2">  1       21 0.75103531E-02 0.28845125E+03</pdfrwt>
<totfact> 0.27967300E+05</totfact>
</mgrwt>
</event>
<event>
 8    1  0.9569852E-006  0.2675080E+03  0.7546771E-02  0.1102714E+00
         21   -1    0    0  504  503  0.00000000000E+00  0.00000000000E+00  0.36597135946E+03  0.36597135946E+03  0.00000000000E+00 0.  1.
         21   -1    0    0  503  504 -0.00000000000E+00 -0.00000000000E+00 -0.48883953821E+02  0.48883953821E+02  0.00000000000E+00 0.  1.
         25    2    1    2    0    0 -0.30882690273E+02 -0.31476702597E+02  0.18629780952E+03  0.22864005249E+03  0.12499950563E+03 0.  0.
         25    2    1    2    0    0  0.30882690273E+02  0.31476702597E+02  0.13078959612E+03  0.18621526079E+03  0.12500272610E+03 0.  0.
          5    1    3    3  501    0 -0.78398643424E+02 -0.10007382932E+02  0.97972100535E+02  0.12596474700E+03  0.47000000000E+01 0. -1.
         -5    1    3    3    0  501  0.47515953152E+02 -0.21469319665E+02  0.88325708982E+02  0.10267530549E+03  0.47000000000E+01 0. -1.
          5    1    4    4  502    0  0.50532267136E+02  0.29209859735E+02  0.14826305622E+03  0.15940749596E+03  0.47000000000E+01 0.  1.
         -5    1    4    4    0  502 -0.19649576863E+02  0.22668428618E+01 -0.17473460097E+02  0.26807764831E+02  0.47000000000E+01 0.  1.
<mgrwt>
<rscale>  0 0.26750796E+03</rscale>
<asrwt>0</asrwt>
<pdfrwt beam="1">  1       21 0.56303284E-01 0.26750796E+03</pdfrwt>
<pdfrwt beam="2">  1       21 0.75206085E-02 0.26750796E+03</pdfrwt>
<totfact> 0.38991513E+05</totfact>
</mgrwt>
</event>
<event>
 8    1  0.9569852E-006  0.2791199E+03  0.7546771E-02  0.1096171E+00
         21   -1    0    0  504  503  0.00000000000E+00  0.00000000000E+00  0.19107615102E+04  0.19107615102E+04  0.00000000000E+00 0.  1.
         21   -1    0    0  503  504 -0.00000000000E+00 -0.00000000000E+00 -0.10193305000E+02  0.10193305000E+02  0.00000000000E+00 0.  1.
         25    2    1    2    0    0 -0.25813097703E+02 -0.26987902295E+02  0.60916941244E+03  0.62298356119E+03  0.12500592617E+03 0.  0.
         25    2    1    2    0    0  0.25813097703E+02  0.26987902295E+02  0.12913987928E+04  0.12979712540E+04  0.12499548555E+03 0.  0.
          5    1    3    3  501    0 -0.58313399716E+02  0.20490730576E+02  0.43745640108E+03  0.44182634085E+03  0.47000000000E+01 0.  1.
         -5    1    3    3    0  501  0.32500302013E+02 -0.47478632871E+02  0.17171301136E+03  0.18115722034E+03  0.47000000000E+01 0.  1.
          5    1    4    4  502    0  0.10709119859E+02 -0.34894382402E+02  0.13854987438E+03  0.14335431930E+03  0.47000000000E+01 0.  1.
         -5    1    4    4    0  502  0.15103977844E+02  0.61882284697E+02  0.11528489184E+04  0.11546169347E+04  0.47000000000E+01 0.  1.
<mgrwt>
<rscale>  0 0.27911987E+03</rscale>
<asrwt>0</asrwt>
<pdfrwt beam="1">  1       21 0.29396303E+00 0.27911987E+03</pdfrwt>
<pdfrwt beam="2">  1       21 0.15682023E-02 0.27911987E+03</pdfrwt>
<totfact> 0.63418694E+04</totfact>
</mgrwt>
</event>
<event>
 8    1  0.9569852E-006  0.4435556E+03  0.7546771E-02  0.1029661E+00
         21   -1    0    0  504  503  0.00000000000E+00  0.00000000000E+00  0.86620947245E+03  0.86620947245E+03  0.00000000000E+00 0.  1.
         21   -1    0    0  503  504 -0.00000000000E+00 -0.00000000000E+00 -0.56782337590E+02  0.56782337590E+02  0.00000000000E+00 0.  1.
         25    2    1    2    0    0 -0.13531385191E+03  0.11516293885E+03  0.49752099951E+03  0.54288405090E+03  0.12499442695E+03 0.  0.
         25    2    1    2    0    0  0.13531385191E+03 -0.11516293885E+03  0.31190613535E+03  0.38010775913E+03  0.12499652109E+03 0.  0.
          5    1    3    3  501    0 -0.10779936346E+03  0.10210068116E+02  0.26181920408E+03  0.28336607750E+03  0.47000000000E+01 0.  1.
         -5    1    3    3    0  501 -0.27514488448E+02  0.10495287074E+03  0.23570179543E+03  0.25951797341E+03  0.47000000000E+01 0.  1.
          5    1    4    4  502    0  0.88698307691E+01 -0.25907397786E+02 -0.42132894018E+01  0.28101760896E+02  0.47000000000E+01 0.  1.
         -5    1    4    4    0  502  0.12644402114E+03 -0.89255541066E+02  0.31611942475E+03  0.35200599824E+03  0.47000000000E+01 0.  1.
<mgrwt>
<rscale>  0 0.44355563E+03</rscale>
<asrwt>0</asrwt>
<pdfrwt beam="1">  1       21 0.13326299E+00 0.44355563E+03</pdfrwt>
<pdfrwt beam="2">  1       21 0.87357449E-02 0.44355563E+03</pdfrwt>
<totfact> 0.37973963E+04</totfact>
</mgrwt>
</event>
<event>
 8    1  0.9569852E-006  0.3070384E+03  0.7546771E-02  0.1081774E+00
         21   -1    0    0  504  503  0.00000000000E+00  0.00000000000E+00  0.20543094677E+03  0.20543094677E+03  0.00000000000E+00 0.  1.
         21   -1    0    0  503  504 -0.00000000000E+00 -0.00000000000E+00 -0.11472538901E+03  0.11472538901E+03  0.00000000000E+00 0.  1.
         25    2    1    2    0    0  0.34242940420E+02  0.57949720649E+02 -0.15557632877E+02  0.14282420811E+03  0.12500386150E+03 0.  0.
         25    2    1    2    0    0 -0.34242940420E+02 -0.57949720649E+02  0.10626319064E+03  0.17733212767E+03  0.12499627485E+03 0.  0.
          5    1    3    3  501    0 -0.35467725039E+02 -0.10687925897E+02  0.14977437219E+02  0.40231889156E+02  0.47000000000E+01 0. -1.
         -5    1    3    3    0  501  0.69710665459E+02  0.68637646547E+02 -0.30535070096E+02  0.10259231895E+03  0.47000000000E+01 0. -1.
          5    1    4    4  502    0 -0.23474865226E+02 -0.96851248524E+02  0.63083640572E+02  0.11803757599E+03  0.47000000000E+01 0.  1.
         -5    1    4    4    0  502 -0.10768075194E+02  0.38901527874E+02  0.43179550070E+02  0.59294551677E+02  0.47000000000E+01 0.  1.
<mgrwt>
<rscale>  0 0.30703840E+03</rscale>
<asrwt>0</asrwt>
<pdfrwt beam="1">  1       21 0.31604761E-01 0.30703840E+03</pdfrwt>
<pdfrwt beam="2">  1       21 0.17650060E-01 0.30703840E+03</pdfrwt>
<totfact> 0.27270629E+05</totfact>
</mgrwt>
</event>
<event>
 8    1  0.9569852E-006  0.3058725E+03  0.7546771E-02  0.1082341E+00
         21   -1    0    0  504  503  0.00000000000E+00  0.00000000000E+00  0.63128316304E+03  0.63128316304E+03  0.00000000000E+00 0. -1.
         21   -1    0    0  503  504 -0.00000000000E+00 -0.00000000000E+00 -0.37050728519E+02  0.37050728519E+02  0.00000000000E+00 0. -1.
         25    2    1    2    0    0 -0.34309929626E+02 -0.81131224378E+02  0.29226504921E+03  0.32985304741E+03  0.12499890821E+03 0.  0.
         25    2    1    2    0    0  0.34309929626E+02  0.81131224378E+02  0.30196738530E+03  0.33848084415E+03  0.12500213289E+03 0.  0.
          5    1    3    3  501    0 -0.19235161858E+01 -0.99118817020E+02  0.13117228665E+03  0.16448859714E+03  0.47000000000E+01 0. -1.
         -5    1    3    3    0  501 -0.32386413441E+02  0.17987592642E+02  0.16109276256E+03  0.16536445027E+03  0.47000000000E+01 0. -1.
          5    1    4    4  502    0  0.86179215665E+01  0.61148129989E+02  0.29912871893E+03  0.30547249117E+03  0.47000000000E+01 0.  1.
         -5    1    4    4    0  502  0.25692008060E+02  0.19983094389E+02  0.28386663745E+01  0.33008352977E+02  0.47000000000E+01 0.  1.
<mgrwt>
<rscale>  0 0.30587253E+03</rscale>
<asrwt>0</asrwt>
<pdfrwt beam="1">  1       21 0.97120479E-01 0.30587253E+03</pdfrwt>
<pdfrwt beam="2">  1       21 0.57001125E-02 0.30587253E+03</pdfrwt>
<totfact> 0.18295587E+05</totfact>
</mgrwt>
</event>
<event>
 8    1  0.9569852E-006  0.3102950E+03  0.7546771E-02  0.1080205E+00
         21   -1    0    0  504  503  0.00000000000E+00  0.00000000000E+00  0.87562123880E+02  0.87562123880E+02  0.00000000000E+00 0.  1.
         21   -1    0    0  503  504 -0.00000000000E+00 -0.00000000000E+00 -0.27489915761E+03  0.27489915761E+03  0.00000000000E+00 0.  1.
         25    2    1    2    0    0 -0.53589051486E+02 -0.70202050998E+02 -0.63887415518E+02  0.16585113940E+03  0.12499953670E+03 0.  0.
         25    2    1    2    0    0  0.53589051486E+02  0.70202050998E+02 -0.12344961821E+03  0.19661014209E+03  0.12496249571E+03 0.  0.
          5    1    3    3  501    0  0.30024221872E+02  0.94966246817E+01 -0.33711162529E+02  0.46369949951E+02  0.47000000000E+01 0. -1.
         -5    1    3    3    0  501 -0.83613273359E+02 -0.79698675680E+02 -0.30176252989E+02  0.11948118945E+03  0.47000000000E+01 0. -1.
          5    1    4    4  502    0  0.54536467819E+02  0.31995397019E+02  0.39420398002E+01  0.63526068903E+02  0.47000000000E+01 0. -1.
         -5    1    4    4    0  502 -0.94741633266E+00  0.38206653980E+02 -0.12739165801E+03  0.13308407319E+03  0.47000000000E+01 0. -1.
<mgrwt>
<rscale>  0 0.31029505E+03</rscale>
<asrwt>0</asrwt>
<pdfrwt beam="1">  1       21 0.13471096E-01 0.31029505E+03</pdfrwt>
<pdfrwt beam="2">  1       21 0.42292178E-01 0.31029505E+03</pdfrwt>
<totfact> 0.24914780E+05</totfact>
</mgrwt>
</event>
<event>
 8    1  0.9569852E-006  0.2839150E+03  0.7546771E-02  0.1093570E+00
         21   -1    0    0  504  503  0.00000000000E+00  0.00000000000E+00  0.23179386919E+02  0.23179386919E+02  0.00000000000E+00 0. -1.
         21   -1    0    0  503  504 -0.00000000000E+00 -0.00000000000E+00 -0.86939026031E+03  0.86939026031E+03  0.00000000000E+00 0. -1.
         25    2    1    2    0    0 -0.55406569490E+02  0.36568790939E+02 -0.45764514193E+03  0.47903207871E+03  0.12500196834E+03 0.  0.
         25    2    1    2    0    0  0.55406569490E+02 -0.36568790939E+02 -0.38856573146E+03  0.41353756852E+03  0.12499131369E+03 0.  0.
          5    1    3    3  501    0 -0.43476117376E+02  0.12880921566E+01 -0.43047507457E+03  0.43269239858E+03  0.47000000000E+01 0. -1.
         -5    1    3    3    0  501 -0.11930452113E+02  0.35280698782E+02 -0.27170067359E+02  0.46339680129E+02  0.47000000000E+01 0. -1.
          5    1    4    4  502    0 -0.20482033415E+02 -0.52520796811E+02 -0.23146029577E+03  0.23827275612E+03  0.47000000000E+01 0.  1.
         -5    1    4    4    0  502  0.75888602905E+02  0.15952005872E+02 -0.15710543569E+03  0.17526481240E+03  0.47000000000E+01 0.  1.
<mgrwt>
<rscale>  0 0.28391501E+03</rscale>
<asrwt>0</asrwt>
<pdfrwt beam="1">  1       21 0.35660599E-02 0.28391501E+03</pdfrwt>
<pdfrwt beam="2">  1       21 0.13375233E+00 0.28391501E+03</pdfrwt>
<totfact> 0.18502442E+05</totfact>
</mgrwt>
</event>
<event>
 8    1  0.9569852E-006  0.2578599E+03  0.7546771E-02  0.1108436E+00
         21   -1    0    0  504  503  0.00000000000E+00  0.00000000000E+00  0.10911642953E+02  0.10911642953E+02  0.00000000000E+00 0.  1.
         21   -1    0    0  503  504 -0.00000000000E+00 -0.00000000000E+00 -0.15234123231E+04  0.15234123231E+04  0.00000000000E+00 0.  1.
         25    2    1    2    0    0 -0.15172020808E+02 -0.39597947925E+01 -0.59397148957E+03  0.60718352659E+03  0.12499533732E+03 0.  0.
         25    2    1    2    0    0  0.15172020808E+02  0.39597947925E+01 -0.91852919059E+03  0.92714043948E+03  0.12509056860E+03 0.  0.
          5    1    3    3  501    0 -0.20024640948E+02  0.52384031009E+02 -0.43006390762E+03  0.43373047805E+03  0.47000000000E+01 0. -1.
         -5    1    3    3    0  501  0.48526201399E+01 -0.56343825802E+02 -0.16390758195E+03  0.17345304854E+03  0.47000000000E+01 0. -1.
          5    1    4    4  502    0  0.14081971230E+02 -0.13694000271E+01 -0.86569051735E+01  0.17239755722E+02  0.47000000000E+01 0. -1.
         -5    1    4    4    0  502  0.10900495783E+01  0.53291948196E+01 -0.90987228542E+03  0.90990068375E+03  0.47000000000E+01 0. -1.
<mgrwt>
<rscale>  0 0.25785989E+03</rscale>
<asrwt>0</asrwt>
<pdfrwt beam="1">  1       21 0.16787145E-02 0.25785989E+03</pdfrwt>
<pdfrwt beam="2">  1       21 0.23437110E+00 0.25785989E+03</pdfrwt>
<totfact> 0.12977276E+05</totfact>
</mgrwt>
</event>
<event>
 8    1  0.9569852E-006  0.2972027E+03  0.7546771E-02  0.1086647E+00
         21   -1    0    0  504  503  0.00000000000E+00  0.00000000000E+00  0.12637926489E+04  0.12637926489E+04  0.00000000000E+00 0.  1.
         21   -1    0    0  503  504 -0.00000000000E+00 -0.00000000000E+00 -0.17473086204E+02  0.17473086204E+02  0.00000000000E+00 0.  1.
         25    2    1    2    0    0  0.26319534015E+02 -0.35605110046E+02  0.33407043282E+03  0.35942864236E+03  0.12500181250E+03 0.  0.
         25    2    1    2    0    0 -0.26319534015E+02  0.35605110046E+02  0.91224912986E+03  0.92183709274E+03  0.12499883551E+03 0.  0.
          5    1    3    3  501    0 -0.32370212536E+02 -0.36277357602E+02  0.52264682418E+02  0.71537153721E+02  0.47000000000E+01 0.  1.
         -5    1    3    3    0  501  0.58689746551E+02  0.67224755651E+00  0.28180575041E+03  0.28789148864E+03  0.47000000000E+01 0.  1.
          5    1    4    4  502    0 -0.53423027775E+02  0.21922749405E+02  0.85416951621E+03  0.85613216226E+03  0.47000000000E+01 0. -1.
         -5    1    4    4    0  502  0.27103493760E+02  0.13682360641E+02  0.58079613654E+02  0.65704930476E+02  0.47000000000E+01 0. -1.
<mgrwt>
<rscale>  0 0.29720268E+03</rscale>
<asrwt>0</asrwt>
<pdfrwt beam="1">  1       21 0.19442957E+00 0.29720268E+03</pdfrwt>
<pdfrwt beam="2">  1       21 0.26881681E-02 0.29720268E+03</pdfrwt>
<totfact> 0.10535199E+05</totfact>
</mgrwt>
</event>
<event>
 8    1  0.9569852E-006  0.6646646E+03  0.7546771E-02  0.9779645E-01
         21   -1    0    0  504  503  0.00000000000E+00  0.00000000000E+00  0.23575504106E+03  0.23575504106E+03  0.00000000000E+00 0. -1.
         21   -1    0    0  503  504 -0.00000000000E+00 -0.00000000000E+00 -0.46847249643E+03  0.46847249643E+03  0.00000000000E+00 0. -1.
         25    2    1    2    0    0 -0.91816124160E+02  0.24740578041E+03 -0.28448664490E+03  0.40767234252E+03  0.12499706754E+03 0.  0.
         25    2    1    2    0    0  0.91816124160E+02 -0.24740578041E+03  0.51769189525E+02  0.29655519497E+03  0.12500045538E+03 0.  0.
          5    1    3    3  501    0  0.11827097554E+02  0.72276367149E+02 -0.13994164924E+03  0.15801743156E+03  0.47000000000E+01 0. -1.
         -5    1    3    3    0  501 -0.10364322171E+03  0.17512941326E+03 -0.14454499566E+03  0.24965491096E+03  0.47000000000E+01 0. -1.
          5    1    4    4  502    0  0.90987823254E+02 -0.99670641121E+02  0.61584372951E+02  0.14841747092E+03  0.47000000000E+01 0.  1.
         -5    1    4    4    0  502  0.82830090590E+00 -0.14773513929E+03 -0.98151834256E+01  0.14813772405E+03  0.47000000000E+01 0.  1.
<mgrwt>
<rscale>  0 0.66466458E+03</rscale>
<asrwt>0</asrwt>
<pdfrwt beam="1">  1       21 0.36270007E-01 0.66466458E+03</pdfrwt>
<pdfrwt beam="2">  1       21 0.72072691E-01 0.66466458E+03</pdfrwt>
<totfact> 0.10830605E+04</totfact>
</mgrwt>
</event>
<event>
 8    1  0.9569852E-006  0.2696309E+03  0.7546771E-02  0.1101491E+00
         21   -1    0    0  504  503  0.00000000000E+00  0.00000000000E+00  0.25344916712E+02  0.25344916712E+02  0.00000000000E+00 0.  1.
         21   -1    0    0  503  504 -0.00000000000E+00 -0.00000000000E+00 -0.71711465166E+03  0.71711465166E+03  0.00000000000E+00 0.  1.
         25    2    1    2    0    0 -0.19946476128E+02  0.45189322618E+02 -0.37482255858E+03  0.39819148460E+03  0.12499828479E+03 0.  0.
         25    2    1    2    0    0  0.19946476128E+02 -0.45189322618E+02 -0.31694717637E+03  0.34426808377E+03  0.12500025642E+03 0.  0.
          5    1    3    3  501    0 -0.37615140665E+02  0.86380833038E+01 -0.25521195526E+02  0.46507383408E+02  0.47000000000E+01 0. -1.
         -5    1    3    3    0  501  0.17668664537E+02  0.36551239314E+02 -0.34930136305E+03  0.35168410119E+03  0.47000000000E+01 0. -1.
          5    1    4    4  502    0 -0.49878588868E+02 -0.32596682429E+02 -0.18450226275E+03  0.19394223958E+03  0.47000000000E+01 0.  1.
         -5    1    4    4    0  502  0.69825064996E+02 -0.12592640189E+02 -0.13244491362E+03  0.15032584420E+03  0.47000000000E+01 0.  1.
<mgrwt>
<rscale>  0 0.26963094E+03</rscale>
<asrwt>0</asrwt>
<pdfrwt beam="1">  1       21 0.38992182E-02 0.26963094E+03</pdfrwt>
<pdfrwt beam="2">  1       21 0.11032532E+00 0.26963094E+03</pdfrwt>
<totfact> 0.25913330E+05</totfact>
</mgrwt>
</event>
<event>
 8    1  0.9569852E-006  0.2628314E+03  0.7546771E-02  0.1105454E+00
         21   -1    0    0  504  503  0.00000000000E+00  0.00000000000E+00  0.14757230168E+03  0.14757230168E+03  0.00000000000E+00 0. -1.
         21   -1    0    0  503  504 -0.00000000000E+00 -0.00000000000E+00 -0.11702800679E+03  0.11702800679E+03  0.00000000000E+00 0. -1.
         25    2    1    2    0    0  0.11844378915E+02  0.27676579689E+02  0.42635079074E+02  0.13545467987E+03  0.12499575175E+03 0.  0.
         25    2    1    2    0    0 -0.11844378915E+02 -0.27676579689E+02 -0.12090784177E+02  0.12914562860E+03  0.12500449572E+03 0.  0.
          5    1    3    3  501    0  0.22604598729E+02  0.42391326245E+02 -0.32372292527E+02  0.58120975112E+02  0.47000000000E+01 0. -1.
         -5    1    3    3    0  501 -0.10760219814E+02 -0.14714746556E+02  0.75007371601E+02  0.77333704755E+02  0.47000000000E+01 0. -1.
          5    1    4    4  502    0  0.38068804227E+02 -0.30930886685E+01  0.38037229380E+02  0.54108426994E+02  0.47000000000E+01 0.  1.
         -5    1    4    4    0  502 -0.49913183142E+02 -0.24583491021E+02 -0.50128013557E+02  0.75037201609E+02  0.47000000000E+01 0.  1.
<mgrwt>
<rscale>  0 0.26283145E+03</rscale>
<asrwt>0</asrwt>
<pdfrwt beam="1">  1       21 0.22703431E-01 0.26283145E+03</pdfrwt>
<pdfrwt beam="2">  1       21 0.18004309E-01 0.26283145E+03</pdfrwt>
<totfact> 0.50367735E+05</totfact>
</mgrwt>
</event>
<event>
 8    1  0.9569852E-006  0.2949564E+03  0.7546771E-02  0.1087789E+00
         21   -1    0    0  504  503  0.00000000000E+00  0.00000000000E+00  0.10868144125E+03  0.10868144125E+03  0.00000000000E+00 0.  1.
         21   -1    0    0  503  504 -0.00000000000E+00 -0.00000000000E+00 -0.20012452625E+03  0.20012452625E+03  0.00000000000E+00 0.  1.
         25    2    1    2    0    0  0.58349498966E+02  0.32670675401E+02 -0.88285831095E+02  0.16700882440E+03  0.12500208956E+03 0.  0.
         25    2    1    2    0    0 -0.58349498966E+02 -0.32670675401E+02 -0.31572539050E+01  0.14179714310E+03  0.12499769789E+03 0.  0.
          5    1    3    3  501    0  0.76365976477E+02 -0.10654128124E+02 -0.91493909807E+02  0.11974346889E+03  0.47000000000E+01 0.  1.
         -5    1    3    3    0  501 -0.18016477511E+02  0.43324803526E+02  0.32080787120E+01  0.47265355510E+02  0.47000000000E+01 0.  1.
          5    1    4    4  502    0 -0.50391349004E+02 -0.68902182501E+02 -0.35295932623E+02  0.92491576198E+02  0.47000000000E+01 0. -1.
         -5    1    4    4    0  502 -0.79581499617E+01  0.36231507099E+02  0.32138678718E+02  0.49305566899E+02  0.47000000000E+01 0. -1.
<mgrwt>
<rscale>  0 0.29495642E+03</rscale>
<asrwt>0</asrwt>
<pdfrwt beam="1">  1       21 0.16720222E-01 0.29495642E+03</pdfrwt>
<pdfrwt beam="2">  1       21 0.30788388E-01 0.29495642E+03</pdfrwt>
<totfact> 0.31836349E+05</totfact>
</mgrwt>
</event>
<event>
 8    1  0.9569852E-006  0.2553735E+03  0.7546771E-02  0.1109955E+00
         21   -1    0    0  504  503  0.00000000000E+00  0.00000000000E+00  0.48105475782E+02  0.48105475782E+02  0.00000000000E+00 0.  1.
         21   -1    0    0  503  504 -0.00000000000E+00 -0.00000000000E+00 -0.33891993304E+03  0.33891993304E+03  0.00000000000E+00 0.  1.
         25    2    1    2    0    0  0.24018408286E+02  0.50348648015E+01 -0.15870315652E+03  0.20350472408E+03  0.12500098813E+03 0.  0.
         25    2    1    2    0    0 -0.24018408286E+02 -0.50348648015E+01 -0.13211130073E+03  0.18352068474E+03  0.12499684854E+03 0.  0.
          5    1    3    3  501    0 -0.13273171765E+02 -0.34445409760E+01  0.17736584796E+02  0.22906732449E+02  0.47000000000E+01 0. -1.
         -5    1    3    3    0  501  0.37291580051E+02  0.84794057774E+01 -0.17643974132E+03  0.18059799163E+03  0.47000000000E+01 0. -1.
          5    1    4    4  502    0  0.18633159652E+02 -0.50709574586E+02 -0.98415603525E+02  0.11236715094E+03  0.47000000000E+01 0.  1.
         -5    1    4    4    0  502 -0.42651567938E+02  0.45674709784E+02 -0.33695697208E+02  0.71153533797E+02  0.47000000000E+01 0.  1.
<mgrwt>
<rscale>  0 0.25537349E+03</rscale>
<asrwt>0</asrwt>
<pdfrwt beam="1">  1       21 0.74008422E-02 0.25537349E+03</pdfrwt>
<pdfrwt beam="2">  1       21 0.52141530E-01 0.25537349E+03</pdfrwt>
<totfact> 0.47324670E+05</totfact>
</mgrwt>
</event>
<event>
 8    1  0.9569852E-006  0.2898040E+03  0.7546771E-02  0.1090452E+00
         21   -1    0    0  504  503  0.00000000000E+00  0.00000000000E+00  0.56698584026E+03  0.56698584026E+03  0.00000000000E+00 0. -1.
         21   -1    0    0  503  504 -0.00000000000E+00 -0.00000000000E+00 -0.37031941050E+02  0.37031941050E+02  0.00000000000E+00 0. -1.
         25    2    1    2    0    0  0.49008227752E+02 -0.63965820733E+01  0.37780276122E+03  0.40100132344E+03  0.12499764945E+03 0.  0.
         25    2    1    2    0    0 -0.49008227752E+02  0.63965820733E+01  0.15215113799E+03  0.20301645787E+03  0.12499196263E+03 0.  0.
          5    1    3    3  501    0  0.20051331629E+01  0.55833603504E+02  0.14665860739E+03  0.15701034666E+03  0.47000000000E+01 0.  1.
         -5    1    3    3    0  501  0.47003094589E+02 -0.62230185577E+02  0.23114415383E+03  0.24399097678E+03  0.47000000000E+01 0.  1.
          5    1    4    4  502    0 -0.42695987818E+02  0.12520134880E+02 -0.54750944030E+01  0.45075135185E+02  0.47000000000E+01 0.  1.
         -5    1    4    4    0  502 -0.63122399341E+01 -0.61235528072E+01  0.15762623239E+03  0.15794132268E+03  0.47000000000E+01 0.  1.
<mgrwt>
<rscale>  0 0.28980398E+03</rscale>
<asrwt>0</asrwt>
<pdfrwt beam="1">  1       21 0.87228584E-01 0.28980398E+03</pdfrwt>
<pdfrwt beam="2">  1       21 0.56972221E-02 0.28980398E+03</pdfrwt>
<totfact> 0.23672731E+05</totfact>
</mgrwt>
</event>
<event>
 8    1  0.9569852E-006  0.4134748E+03  0.7546771E-02  0.1039211E+00
         21   -1    0    0  504  503  0.00000000000E+00  0.00000000000E+00  0.33084940102E+03  0.33084940102E+03  0.00000000000E+00 0. -1.
         21   -1    0    0  503  504 -0.00000000000E+00 -0.00000000000E+00 -0.12918373315E+03  0.12918373315E+03  0.00000000000E+00 0. -1.
         25    2    1    2    0    0  0.10201548457E+03 -0.12872947591E+03  0.87612332051E+02  0.22420950557E+03  0.12496217268E+03 0.  0.
         25    2    1    2    0    0 -0.10201548457E+03  0.12872947591E+03  0.11405333582E+03  0.23582362859E+03  0.12500473323E+03 0.  0.
          5    1    3    3  501    0  0.95749802094E+02 -0.13215256093E+03  0.30035526803E+02  0.16600164708E+03  0.47000000000E+01 0.  1.
         -5    1    3    3    0  501  0.62656824735E+01  0.34230850198E+01  0.57576805248E+02  0.58207858495E+02  0.47000000000E+01 0.  1.
          5    1    4    4  502    0  0.17968935211E+02  0.24695487443E+02  0.60902647542E+02  0.68293280858E+02  0.47000000000E+01 0. -1.
         -5    1    4    4    0  502 -0.11998441978E+03  0.10403398847E+03  0.53150688280E+02  0.16753034773E+03  0.47000000000E+01 0. -1.
<mgrwt>
<rscale>  0 0.41347484E+03</rscale>
<asrwt>0</asrwt>
<pdfrwt beam="1">  1       21 0.50899908E-01 0.41347484E+03</pdfrwt>
<pdfrwt beam="2">  1       21 0.19874421E-01 0.41347484E+03</pdfrwt>
<totfact> 0.80242447E+04</totfact>
</mgrwt>
</event>
<event>
 8    1  0.9569852E-006  0.4303737E+03  0.7546771E-02  0.1033742E+00
         21   -1    0    0  504  503  0.00000000000E+00  0.00000000000E+00  0.10380735596E+04  0.10380735596E+04  0.00000000000E+00 0.  1.
         21   -1    0    0  503  504 -0.00000000000E+00 -0.00000000000E+00 -0.44607022698E+02  0.44607022698E+02  0.00000000000E+00 0.  1.
         25    2    1    2    0    0 -0.83499709981E+01  0.11589053705E+03  0.16699461827E+03  0.23877175606E+03  0.12499764145E+03 0.  0.
         25    2    1    2    0    0  0.83499709981E+01 -0.11589053705E+03  0.82647191864E+03  0.84390882625E+03  0.12500374443E+03 0.  0.
          5    1    3    3  501    0  0.41968320787E+02 -0.70068587671E+00  0.29313122060E+02  0.51411866677E+02  0.47000000000E+01 0.  1.
         -5    1    3    3    0  501 -0.50318291785E+02  0.11659122292E+03  0.13768149621E+03  0.18735988938E+03  0.47000000000E+01 0.  1.
          5    1    4    4  502    0  0.17164505795E+02  0.21405546646E+02  0.23425415062E+03  0.23590234159E+03  0.47000000000E+01 0.  1.
         -5    1    4    4    0  502 -0.88145347968E+01 -0.13729608369E+03  0.59221776803E+03  0.60800648466E+03  0.47000000000E+01 0.  1.
<mgrwt>
<rscale>  0 0.43037366E+03</rscale>
<asrwt>0</asrwt>
<pdfrwt beam="1">  1       21 0.15970361E+00 0.43037366E+03</pdfrwt>
<pdfrwt beam="2">  1       21 0.68626196E-02 0.43037366E+03</pdfrwt>
<totfact> 0.35870011E+04</totfact>
</mgrwt>
</event>
<event>
 8    1  0.9569852E-006  0.3417563E+03  0.7546771E-02  0.1066050E+00
         21   -1    0    0  504  503  0.00000000000E+00  0.00000000000E+00  0.13307656287E+03  0.13307656287E+03  0.00000000000E+00 0.  1.
         21   -1    0    0  503  504 -0.00000000000E+00 -0.00000000000E+00 -0.21941762899E+03  0.21941762899E+03  0.00000000000E+00 0.  1.
         25    2    1    2    0    0  0.13069687317E+02  0.11052816572E+03 -0.78739382973E+02  0.18496464685E+03  0.12499895203E+03 0.  0.
         25    2    1    2    0    0 -0.13069687317E+02 -0.11052816572E+03 -0.76016831400E+01  0.16752954502E+03  0.12498428190E+03 0.  0.
          5    1    3    3  501    0 -0.23586384911E+02  0.48650265356E+02  0.24102471666E+02  0.59381689205E+02  0.47000000000E+01 0. -1.
         -5    1    3    3    0  501  0.36656072229E+02  0.61877900363E+02 -0.10284185464E+03  0.12558295764E+03  0.47000000000E+01 0. -1.
          5    1    4    4  502    0  0.49284451154E+02 -0.73322217965E+02  0.18206646098E+02  0.90325393633E+02  0.47000000000E+01 0.  1.
         -5    1    4    4    0  502 -0.62354138471E+02 -0.37205947754E+02 -0.25808329238E+02  0.77204151383E+02  0.47000000000E+01 0.  1.
<mgrwt>
<rscale>  0 0.34175631E+03</rscale>
<asrwt>0</asrwt>
<pdfrwt beam="1">  1       21 0.20473318E-01 0.34175631E+03</pdfrwt>
<pdfrwt beam="2">  1       21 0.33756558E-01 0.34175631E+03</pdfrwt>
<totfact> 0.17966732E+05</totfact>
</mgrwt>
</event>
<event>
 8    1  0.9569852E-006  0.2746629E+03  0.7546771E-02  0.1098640E+00
         21   -1    0    0  504  503  0.00000000000E+00  0.00000000000E+00  0.16876167217E+03  0.16876167217E+03  0.00000000000E+00 0. -1.
         21   -1    0    0  503  504 -0.00000000000E+00 -0.00000000000E+00 -0.11175481218E+03  0.11175481218E+03  0.00000000000E+00 0. -1.
         25    2    1    2    0    0 -0.53674634196E+02 -0.15354059469E+02  0.17081259654E+02  0.13791340776E+03  0.12494648899E+03 0.  0.
         25    2    1    2    0    0  0.53674634196E+02  0.15354059469E+02  0.39925600335E+02  0.14260307659E+03  0.12499948157E+03 0.  0.
          5    1    3    3  501    0 -0.32465406041E+02  0.11106254836E+02  0.68141774678E+02  0.76437837110E+02  0.47000000000E+01 0.  1.
         -5    1    3    3    0  501 -0.21209228154E+02 -0.26460314305E+02 -0.51060515023E+02  0.61475570648E+02  0.47000000000E+01 0.  1.
          5    1    4    4  502    0 -0.40686994384E+02  0.46877425059E+01  0.18255024340E+02  0.45085944101E+02  0.47000000000E+01 0. -1.
         -5    1    4    4    0  502  0.94361628580E+02  0.10666316963E+02  0.21670575995E+02  0.97517132494E+02  0.47000000000E+01 0. -1.
<mgrwt>
<rscale>  0 0.27466291E+03</rscale>
<asrwt>0</asrwt>
<pdfrwt beam="1">  1       21 0.25963334E-01 0.27466291E+03</pdfrwt>
<pdfrwt beam="2">  1       21 0.17193048E-01 0.27466291E+03</pdfrwt>
<totfact> 0.42335787E+05</totfact>
</mgrwt>
</event>
<event>
 8    1  0.9569852E-006  0.2806968E+03  0.7546771E-02  0.1095309E+00
         21   -1    0    0  504  503  0.00000000000E+00  0.00000000000E+00  0.23085546409E+03  0.23085546409E+03  0.00000000000E+00 0.  1.
         21   -1    0    0  503  504 -0.00000000000E+00 -0.00000000000E+00 -0.85324706156E+02  0.85324706156E+02  0.00000000000E+00 0.  1.
         25    2    1    2    0    0  0.27631624377E+02 -0.55451741171E+02  0.89995046280E+02  0.16601843607E+03  0.12499844198E+03 0.  0.
         25    2    1    2    0    0 -0.27631624377E+02  0.55451741171E+02  0.55535711651E+02  0.15016173417E+03  0.12500371544E+03 0.  0.
          5    1    3    3  501    0 -0.44895891916E+02 -0.60873994144E+01  0.55084480656E+02  0.71477881556E+02  0.47000000000E+01 0. -1.
         -5    1    3    3    0  501  0.72527516292E+02 -0.49364341757E+02  0.34910565623E+02  0.94540554519E+02  0.47000000000E+01 0. -1.
          5    1    4    4  502    0 -0.44942465114E+02  0.45708979070E+02 -0.23573655595E+02  0.68461253101E+02  0.47000000000E+01 0.  1.
         -5    1    4    4    0  502  0.17310840737E+02  0.97427621015E+01  0.79109367246E+02  0.81700481066E+02  0.47000000000E+01 0.  1.
<mgrwt>
<rscale>  0 0.28069681E+03</rscale>
<asrwt>0</asrwt>
<pdfrwt beam="1">  1       21 0.35516225E-01 0.28069681E+03</pdfrwt>
<pdfrwt beam="2">  1       21 0.13126878E-01 0.28069681E+03</pdfrwt>
<totfact> 0.37459131E+05</totfact>
</mgrwt>
</event>
<event>
 8    1  0.9569852E-006  0.2787315E+03  0.7546771E-02  0.1096384E+00
         21   -1    0    0  504  503  0.00000000000E+00  0.00000000000E+00  0.39671390359E+02  0.39671390359E+02  0.00000000000E+00 0. -1.
         21   -1    0    0  503  504 -0.00000000000E+00 -0.00000000000E+00 -0.48959255606E+03  0.48959255606E+03  0.00000000000E+00 0. -1.
         25    2    1    2    0    0  0.17907022738E+02  0.51978631526E+02 -0.17210246423E+03  0.21969795352E+03  0.12500197194E+03 0.  0.
         25    2    1    2    0    0 -0.17907022738E+02 -0.51978631526E+02 -0.27781870147E+03  0.30956599290E+03  0.12500173388E+03 0.  0.
          5    1    3    3  501    0  0.11140714825E+02 -0.19501968872E+02  0.91363783519E+01  0.24698293992E+02  0.47000000000E+01 0.  1.
         -5    1    3    3    0  501  0.67663079131E+01  0.71480600399E+02 -0.18123884258E+03  0.19499965953E+03  0.47000000000E+01 0.  1.
          5    1    4    4  502    0 -0.26359055044E+02  0.20262950400E+02 -0.14906780138E+02  0.36738114212E+02  0.47000000000E+01 0.  1.
         -5    1    4    4    0  502  0.84520323062E+01 -0.72241581927E+02 -0.26291192133E+03  0.27282787869E+03  0.47000000000E+01 0.  1.
<mgrwt>
<rscale>  0 0.27873154E+03</rscale>
<asrwt>0</asrwt>
<pdfrwt beam="1">  1       21 0.61032906E-02 0.27873154E+03</pdfrwt>
<pdfrwt beam="2">  1       21 0.75321935E-01 0.27873154E+03</pdfrwt>
<totfact> 0.29496019E+05</totfact>
</mgrwt>
</event>
<event>
 8    1  0.9569852E-006  0.7812498E+03  0.7546771E-02  0.9587561E-01
         21   -1    0    0  504  503  0.00000000000E+00  0.00000000000E+00  0.99176269139E+02  0.99176269139E+02  0.00000000000E+00 0.  1.
         21   -1    0    0  503  504 -0.00000000000E+00 -0.00000000000E+00 -0.15385516819E+04  0.15385516819E+04  0.00000000000E+00 0.  1.
         25    2    1    2    0    0  0.70899566383E+02  0.35991529594E+03 -0.82232086251E+03  0.90906622813E+03  0.12499614970E+03 0.  0.
         25    2    1    2    0    0 -0.70899566383E+02 -0.35991529594E+03 -0.61705455028E+03  0.72866172294E+03  0.12500327875E+03 0.  0.
          5    1    3    3  501    0  0.35475469852E+02  0.13856781970E+02 -0.61724269698E+02  0.72680773507E+02  0.47000000000E+01 0.  1.
         -5    1    3    3    0  501  0.35424096530E+02  0.34605851397E+03 -0.76059659281E+03  0.83638545462E+03  0.47000000000E+01 0.  1.
          5    1    4    4  502    0  0.32941868538E+02 -0.13821873801E+03 -0.24510981346E+03  0.28335577794E+03  0.47000000000E+01 0. -1.
         -5    1    4    4    0  502 -0.10384143492E+03 -0.22169655792E+03 -0.37194473682E+03  0.44530594500E+03  0.47000000000E+01 0. -1.
<mgrwt>
<rscale>  0 0.78124981E+03</rscale>
<asrwt>0</asrwt>
<pdfrwt beam="1">  1       21 0.15257888E-01 0.78124981E+03</pdfrwt>
<pdfrwt beam="2">  1       21 0.23670025E+00 0.78124981E+03</pdfrwt>
<totfact> 0.22840838E+03</totfact>
</mgrwt>
</event>
<event>
 8    1  0.9569852E-006  0.3145733E+03  0.7546771E-02  0.1078174E+00
         21   -1    0    0  504  503  0.00000000000E+00  0.00000000000E+00  0.13070907595E+02  0.13070907595E+02  0.00000000000E+00 0.  1.
         21   -1    0    0  503  504 -0.00000000000E+00 -0.00000000000E+00 -0.18926829829E+04  0.18926829829E+04  0.00000000000E+00 0.  1.
         25    2    1    2    0    0  0.81178260325E+02 -0.45369515405E+02 -0.10704947525E+04  0.10817732153E+04  0.12500388574E+03 0.  0.
         25    2    1    2    0    0 -0.81178260325E+02  0.45369515405E+02 -0.80911732282E+03  0.82398067516E+03  0.12500003226E+03 0.  0.
          5    1    3    3  501    0 -0.22126154389E+02  0.22650327008E+02 -0.22605157780E+03  0.22830683268E+03  0.47000000000E+01 0.  1.
         -5    1    3    3    0  501  0.10330441471E+03 -0.68019842413E+02 -0.84444317467E+03  0.85346638265E+03  0.47000000000E+01 0.  1.
          5    1    4    4  502    0  0.31010804994E+02  0.23335815643E+01 -0.25713863521E+03  0.25905498132E+03  0.47000000000E+01 0.  1.
         -5    1    4    4    0  502 -0.11218906532E+03  0.43035933841E+02 -0.55197868762E+03  0.56492569384E+03  0.47000000000E+01 0.  1.
<mgrwt>
<rscale>  0 0.31457326E+03</rscale>
<asrwt>0</asrwt>
<pdfrwt beam="1">  1       21 0.20109093E-02 0.31457326E+03</pdfrwt>
<pdfrwt beam="2">  1       21 0.29118194E+00 0.31457326E+03</pdfrwt>
<totfact> 0.42990992E+04</totfact>
</mgrwt>
</event>
<event>
 8    1  0.9569852E-006  0.2849928E+03  0.7546771E-02  0.1092993E+00
         21   -1    0    0  504  503  0.00000000000E+00  0.00000000000E+00  0.14353245510E+03  0.14353245510E+03  0.00000000000E+00 0.  1.
         21   -1    0    0  503  504 -0.00000000000E+00 -0.00000000000E+00 -0.14146786265E+03  0.14146786265E+03  0.00000000000E+00 0.  1.
         25    2    1    2    0    0 -0.77887705013E+01 -0.24241450446E+02 -0.62468972289E+02  0.14203850986E+03  0.12499701164E+03 0.  0.
         25    2    1    2    0    0  0.77887705013E+01  0.24241450446E+02  0.64533564742E+02  0.14296180789E+03  0.12500073868E+03 0.  0.
          5    1    3    3  501    0  0.73298695440E+01  0.45416343148E+02 -0.52417659482E+02  0.69900445192E+02  0.47000000000E+01 0.  1.
         -5    1    3    3    0  501 -0.15118640045E+02 -0.69657793594E+02 -0.10051312808E+02  0.72138064670E+02  0.47000000000E+01 0.  1.
          5    1    4    4  502    0  0.58745705451E+02 -0.14935660879E+02  0.44933772098E+02  0.75599376649E+02  0.47000000000E+01 0.  1.
         -5    1    4    4    0  502 -0.50956934950E+02  0.39177111324E+02  0.19599792645E+02  0.67362431243E+02  0.47000000000E+01 0.  1.
<mgrwt>
<rscale>  0 0.28499284E+03</rscale>
<asrwt>0</asrwt>
<pdfrwt beam="1">  1       21 0.22081916E-01 0.28499284E+03</pdfrwt>
<pdfrwt beam="2">  1       21 0.21764287E-01 0.28499284E+03</pdfrwt>
<totfact> 0.37020185E+05</totfact>
</mgrwt>
</event>
<event>
 8    1  0.9569852E-006  0.3089345E+03  0.7546771E-02  0.1080858E+00
         21   -1    0    0  504  503  0.00000000000E+00  0.00000000000E+00  0.25706959043E+03  0.25706959043E+03  0.00000000000E+00 0. -1.
         21   -1    0    0  503  504 -0.00000000000E+00 -0.00000000000E+00 -0.92815873119E+02  0.92815873119E+02  0.00000000000E+00 0. -1.
         25    2    1    2    0    0 -0.67058029009E+02 -0.51013789903E+02  0.43945678884E+02  0.15701772500E+03  0.12499662899E+03 0.  0.
         25    2    1    2    0    0  0.67058029009E+02  0.51013789903E+02  0.12030803843E+03  0.19286773854E+03  0.12499901778E+03 0.  0.
          5    1    3    3  501    0 -0.42565839833E+02 -0.22848036949E+02 -0.41369594087E+02  0.63776303029E+02  0.47000000000E+01 0.  1.
         -5    1    3    3    0  501 -0.24492189176E+02 -0.28165752954E+02  0.85315272970E+02  0.93241421976E+02  0.47000000000E+01 0.  1.
          5    1    4    4  502    0  0.71535639379E+02 -0.21551725173E+02  0.80173674486E+02  0.10968925490E+03  0.47000000000E+01 0.  1.
         -5    1    4    4    0  502 -0.44776103701E+01  0.72565515076E+02  0.40134363941E+02  0.83178483647E+02  0.47000000000E+01 0.  1.
<mgrwt>
<rscale>  0 0.30893455E+03</rscale>
<asrwt>0</asrwt>
<pdfrwt beam="1">  1       21 0.39549168E-01 0.30893455E+03</pdfrwt>
<pdfrwt beam="2">  1       21 0.14279365E-01 0.30893455E+03</pdfrwt>
<totfact> 0.25703125E+05</totfact>
</mgrwt>
</event>
<event>
 8    1  0.9569852E-006  0.3336517E+03  0.7546771E-02  0.1069532E+00
         21   -1    0    0  504  503  0.00000000000E+00  0.00000000000E+00  0.65544271722E+03  0.65544271722E+03  0.00000000000E+00 0. -1.
         21   -1    0    0  503  504 -0.00000000000E+00 -0.00000000000E+00 -0.42461156952E+02  0.42461156952E+02  0.00000000000E+00 0. -1.
         25    2    1    2    0    0 -0.97690458384E+02 -0.35275578359E+02  0.22775037066E+03  0.27979272956E+03  0.12500379231E+03 0.  0.
         25    2    1    2    0    0  0.97690458384E+02  0.35275578359E+02  0.38523118961E+03  0.41811114461E+03  0.12500427079E+03 0.  0.
          5    1    3    3  501    0 -0.32257628153E+02 -0.76558665217E+02  0.13859190775E+03  0.16165268537E+03  0.47000000000E+01 0.  1.
         -5    1    3    3    0  501 -0.65432830230E+02  0.41283086859E+02  0.89158462909E+02  0.11814004419E+03  0.47000000000E+01 0.  1.
          5    1    4    4  502    0 -0.24663797327E+00 -0.26020527002E+02  0.15346982666E+02  0.30573657497E+02  0.47000000000E+01 0. -1.
         -5    1    4    4    0  502  0.97937096357E+02  0.61296105361E+02  0.36988420694E+03  0.38753748712E+03  0.47000000000E+01 0. -1.
<mgrwt>
<rscale>  0 0.33365165E+03</rscale>
<asrwt>0</asrwt>
<pdfrwt beam="1">  1       21 0.10083733E+00 0.33365165E+03</pdfrwt>
<pdfrwt beam="2">  1       21 0.65324862E-02 0.33365165E+03</pdfrwt>
<totfact> 0.13111581E+05</totfact>
</mgrwt>
</event>
<event>
 8    1  0.9569852E-006  0.3080311E+03  0.7546771E-02  0.1081293E+00
         21   -1    0    0  504  503  0.00000000000E+00  0.00000000000E+00  0.38084008064E+03  0.38084008064E+03  0.00000000000E+00 0. -1.
         21   -1    0    0  503  504 -0.00000000000E+00 -0.00000000000E+00 -0.62285430887E+02  0.62285430887E+02  0.00000000000E+00 0. -1.
         25    2    1    2    0    0 -0.18198152885E+02 -0.69267450948E+02  0.80952562332E+02  0.16526142651E+03  0.12501547591E+03 0.  0.
         25    2    1    2    0    0  0.18198152885E+02  0.69267450948E+02  0.23760208742E+03  0.27786408501E+03  0.12499818104E+03 0.  0.
          5    1    3    3  501    0  0.21309050848E+02 -0.48452877260E+01  0.86499660990E+02  0.89341109309E+02  0.47000000000E+01 0.  1.
         -5    1    3    3    0  501 -0.39507203733E+02 -0.64422163222E+02 -0.55470986575E+01  0.75920317205E+02  0.47000000000E+01 0.  1.
          5    1    4    4  502    0  0.12552116083E+02  0.75779151420E+02  0.54027264533E+02  0.94026968052E+02  0.47000000000E+01 0. -1.
         -5    1    4    4    0  502  0.56460368018E+01 -0.65117004719E+01  0.18357482288E+03  0.18383711696E+03  0.47000000000E+01 0. -1.
<mgrwt>
<rscale>  0 0.30803109E+03</rscale>
<asrwt>0</asrwt>
<pdfrwt beam="1">  1       21 0.58590780E-01 0.30803109E+03</pdfrwt>
<pdfrwt beam="2">  1       21 0.95823742E-02 0.30803109E+03</pdfrwt>
<totfact> 0.23152313E+05</totfact>
</mgrwt>
</event>
<event>
 8    1  0.9569852E-006  0.3079359E+03  0.7546771E-02  0.1081339E+00
         21   -1    0    0  504  503  0.00000000000E+00  0.00000000000E+00  0.32238074712E+03  0.32238074712E+03  0.00000000000E+00 0. -1.
         21   -1    0    0  503  504 -0.00000000000E+00 -0.00000000000E+00 -0.73534558471E+02  0.73534558471E+02  0.00000000000E+00 0. -1.
         25    2    1    2    0    0  0.69252578079E+02 -0.38237742350E+02  0.69658874957E+02  0.16355543077E+03  0.12505988791E+03 0.  0.
         25    2    1    2    0    0 -0.69252578079E+02  0.38237742350E+02  0.17918731369E+03  0.23235987482E+03  0.12499989411E+03 0.  0.
          5    1    3    3  501    0 -0.32382707822E+02 -0.15999508218E+02 -0.30322398576E+01  0.36550082184E+02  0.47000000000E+01 0. -1.
         -5    1    3    3    0  501  0.10163528590E+03 -0.22238234132E+02  0.72691114815E+02  0.12700534859E+03  0.47000000000E+01 0. -1.
          5    1    4    4  502    0  0.11060196844E+02  0.50570708375E+02  0.12279301614E+03  0.13334143884E+03  0.47000000000E+01 0. -1.
         -5    1    4    4    0  502 -0.80312774923E+02 -0.12332966025E+02  0.56394297553E+02  0.99018435977E+02  0.47000000000E+01 0. -1.
<mgrwt>
<rscale>  0 0.30793588E+03</rscale>
<asrwt>0</asrwt>
<pdfrwt beam="1">  1       21 0.49597037E-01 0.30793588E+03</pdfrwt>
<pdfrwt beam="2">  1       21 0.11313009E-01 0.30793588E+03</pdfrwt>
<totfact> 0.24545376E+05</totfact>
</mgrwt>
</event>
<event>
 8    1  0.9569852E-006  0.2900300E+03  0.7546771E-02  0.1090333E+00
         21   -1    0    0  504  503  0.00000000000E+00  0.00000000000E+00  0.40868363568E+03  0.40868363568E+03  0.00000000000E+00 0. -1.
         21   -1    0    0  503  504 -0.00000000000E+00 -0.00000000000E+00 -0.51456299721E+02  0.51456299721E+02  0.00000000000E+00 0. -1.
         25    2    1    2    0    0 -0.41821589462E+02 -0.45611247698E+02  0.11571277433E+03  0.18123824651E+03  0.12501369762E+03 0.  0.
         25    2    1    2    0    0  0.41821589462E+02  0.45611247698E+02  0.24151456162E+03  0.27890168889E+03  0.12500974892E+03 0.  0.
          5    1    3    3  501    0  0.24483741189E+02 -0.63403936356E+02  0.74827183639E+02  0.10119639391E+03  0.47000000000E+01 0. -1.
         -5    1    3    3    0  501 -0.66305330651E+02  0.17792688658E+02  0.40885590693E+02  0.80041852607E+02  0.47000000000E+01 0. -1.
          5    1    4    4  502    0  0.54618193539E+01 -0.41006171468E+02  0.10655420609E+03  0.11439941610E+03  0.47000000000E+01 0.  1.
         -5    1    4    4    0  502  0.36359770108E+02  0.86617419166E+02  0.13496035554E+03  0.16450227279E+03  0.47000000000E+01 0.  1.
<mgrwt>
<rscale>  0 0.29002998E+03</rscale>
<asrwt>0</asrwt>
<pdfrwt beam="1">  1       21 0.62874403E-01 0.29002998E+03</pdfrwt>
<pdfrwt beam="2">  1       21 0.79163541E-02 0.29002998E+03</pdfrwt>
<totfact> 0.27938474E+05</totfact>
</mgrwt>
</event>
<event>
 8    1  0.9569852E-006  0.2878513E+03  0.7546771E-02  0.1091476E+00
         21   -1    0    0  504  503  0.00000000000E+00  0.00000000000E+00  0.11779050905E+02  0.11779050905E+02  0.00000000000E+00 0.  1.
         21   -1    0    0  503  504 -0.00000000000E+00 -0.00000000000E+00 -0.17585956127E+04  0.17585956127E+04  0.00000000000E+00 0.  1.
         25    2    1    2    0    0 -0.19562033771E+02 -0.75062322294E+01 -0.45394401057E+03  0.47130450193E+03  0.12499500838E+03 0.  0.
         25    2    1    2    0    0  0.19562033771E+02  0.75062322294E+01 -0.12928725512E+04  0.12990701617E+04  0.12499933820E+03 0.  0.
          5    1    3    3  501    0 -0.36160478383E+02  0.36536852077E+02 -0.38023983441E+03  0.38372769437E+03  0.47000000000E+01 0. -1.
         -5    1    3    3    0  501  0.16598444612E+02 -0.44043084306E+02 -0.73704176159E+02  0.87576807558E+02  0.47000000000E+01 0. -1.
          5    1    4    4  502    0 -0.52192259770E+02 -0.41641719421E+01 -0.45158971220E+03  0.45463912114E+03  0.47000000000E+01 0.  1.
         -5    1    4    4    0  502  0.71754293541E+02  0.11670404172E+02 -0.84128283901E+03  0.84443104052E+03  0.47000000000E+01 0.  1.
<mgrwt>
<rscale>  0 0.28785126E+03</rscale>
<asrwt>0</asrwt>
<pdfrwt beam="1">  1       21 0.18121627E-02 0.28785126E+03</pdfrwt>
<pdfrwt beam="2">  1       21 0.27055302E+00 0.28785126E+03</pdfrwt>
<totfact> 0.68491916E+04</totfact>
</mgrwt>
</event>
<event>
 8    1  0.9569852E-006  0.2544456E+03  0.7546771E-02  0.1110527E+00
         21   -1    0    0  504  503  0.00000000000E+00  0.00000000000E+00  0.66012745674E+02  0.66012745674E+02  0.00000000000E+00 0. -1.
         21   -1    0    0  503  504 -0.00000000000E+00 -0.00000000000E+00 -0.24518962631E+03  0.24518962631E+03  0.00000000000E+00 0. -1.
         25    2    1    2    0    0  0.17627145359E+02 -0.10059382434E+02 -0.74660504927E+02  0.14700956539E+03  0.12500285553E+03 0.  0.
         25    2    1    2    0    0 -0.17627145359E+02  0.10059382434E+02 -0.10451637571E+03  0.16419280659E+03  0.12499478996E+03 0.  0.
          5    1    3    3  501    0  0.33092488903E+02 -0.41985051789E+02  0.10458300789E+02  0.54674705769E+02  0.47000000000E+01 0.  1.
         -5    1    3    3    0  501 -0.15465343545E+02  0.31925669355E+02 -0.85118805716E+02  0.92334859621E+02  0.47000000000E+01 0.  1.
          5    1    4    4  502    0 -0.56863671906E+01 -0.52666243176E+02 -0.17148392785E+02  0.55876876409E+02  0.47000000000E+01 0. -1.
         -5    1    4    4    0  502 -0.11940778168E+02  0.62725625610E+02 -0.87367982922E+02  0.10831593018E+03  0.47000000000E+01 0. -1.
<mgrwt>
<rscale>  0 0.25444560E+03</rscale>
<asrwt>0</asrwt>
<pdfrwt beam="1">  1       21 0.10155807E-01 0.25444560E+03</pdfrwt>
<pdfrwt beam="2">  1       21 0.37721481E-01 0.25444560E+03</pdfrwt>
<totfact> 0.52884739E+05</totfact>
</mgrwt>
</event>
<event>
 8    1  0.9569852E-006  0.2603608E+03  0.7546771E-02  0.1106927E+00
         21   -1    0    0  504  503  0.00000000000E+00  0.00000000000E+00  0.85328965527E+03  0.85328965527E+03  0.00000000000E+00 0.  1.
         21   -1    0    0  503  504 -0.00000000000E+00 -0.00000000000E+00 -0.19860707058E+02  0.19860707058E+02  0.00000000000E+00 0.  1.
         25    2    1    2    0    0  0.22998186474E+02 -0.27437969996E+02  0.39530973596E+03  0.41614320226E+03  0.12499447455E+03 0.  0.
         25    2    1    2    0    0 -0.22998186474E+02  0.27437969996E+02  0.43811921226E+03  0.45700716007E+03  0.12500136570E+03 0.  0.
          5    1    3    3  501    0  0.66968065106E+02 -0.46243290913E+02  0.23165096661E+03  0.24557569918E+03  0.47000000000E+01 0.  1.
         -5    1    3    3    0  501 -0.43969878633E+02  0.18805320917E+02  0.16365876935E+03  0.17056750308E+03  0.47000000000E+01 0.  1.
          5    1    4    4  502    0  0.36151394712E+02 -0.15169110464E+02  0.28071514089E+03  0.28347858046E+03  0.47000000000E+01 0. -1.
         -5    1    4    4    0  502 -0.59149581186E+02  0.42607080460E+02  0.15740407137E+03  0.17352857961E+03  0.47000000000E+01 0. -1.
<mgrwt>
<rscale>  0 0.26036079E+03</rscale>
<asrwt>0</asrwt>
<pdfrwt beam="1">  1       21 0.13127530E+00 0.26036079E+03</pdfrwt>
<pdfrwt beam="2">  1       21 0.30554941E-02 0.26036079E+03</pdfrwt>
<totfact> 0.25315989E+05</totfact>
</mgrwt>
</event>
<event>
 8    1  0.9569852E-006  0.3081165E+03  0.7546771E-02  0.1081252E+00
         21   -1    0    0  504  503  0.00000000000E+00  0.00000000000E+00  0.48236878295E+02  0.48236878295E+02  0.00000000000E+00 0. -1.
         21   -1    0    0  503  504 -0.00000000000E+00 -0.00000000000E+00 -0.49202887457E+03  0.49202887457E+03  0.00000000000E+00 0. -1.
         25    2    1    2    0    0 -0.55285243764E+02  0.19591578427E+02 -0.34168766531E+03  0.36853283253E+03  0.12500279960E+03 0.  0.
         25    2    1    2    0    0  0.55285243764E+02 -0.19591578427E+02 -0.10210433097E+03  0.17173292033E+03  0.12500645343E+03 0.  0.
          5    1    3    3  501    0 -0.25435225754E+02  0.51787541907E+02 -0.59877775997E+02  0.83284682050E+02  0.47000000000E+01 0.  1.
         -5    1    3    3    0  501 -0.29850018010E+02 -0.32195963480E+02 -0.28180988931E+03  0.28524815048E+03  0.47000000000E+01 0.  1.
          5    1    4    4  502    0  0.91944078841E+02  0.59805082196E+01 -0.59332957774E+02  0.10969033682E+03  0.47000000000E+01 0.  1.
         -5    1    4    4    0  502 -0.36658835077E+02 -0.25572086647E+02 -0.42771373192E+02  0.62042583516E+02  0.47000000000E+01 0.  1.
<mgrwt>
<rscale>  0 0.30811645E+03</rscale>
<asrwt>0</asrwt>
<pdfrwt beam="1">  1       21 0.74210581E-02 0.30811645E+03</pdfrwt>
<pdfrwt beam="2">  1       21 0.75696751E-01 0.30811645E+03</pdfrwt>
<totfact> 0.20623580E+05</totfact>
</mgrwt>
</event>
<event>
 8    1  0.9569852E-006  0.2728819E+03  0.7546771E-02  0.1099641E+00
         21   -1    0    0  504  503  0.00000000000E+00  0.00000000000E+00  0.87677078026E+03  0.87677078026E+03  0.00000000000E+00 0. -1.
         21   -1    0    0  503  504 -0.00000000000E+00 -0.00000000000E+00 -0.21232612026E+02  0.21232612026E+02  0.00000000000E+00 0. -1.
         25    2    1    2    0    0 -0.37775156343E+02  0.38834770653E+02  0.40320569212E+03  0.42559945232E+03  0.12499984721E+03 0.  0.
         25    2    1    2    0    0  0.37775156343E+02 -0.38834770653E+02  0.45233247611E+03  0.47240393997E+03  0.12500284679E+03 0.  0.
          5    1    3    3  501    0  0.27943189365E+02 -0.21242838768E+02  0.49729207511E+02  0.61050504589E+02  0.47000000000E+01 0.  1.
         -5    1    3    3    0  501 -0.65718345709E+02  0.60077609420E+02  0.35347648461E+03  0.36454894773E+03  0.47000000000E+01 0.  1.
          5    1    4    4  502    0 -0.40972247891E+01  0.19752539432E+02  0.32794254364E+03  0.32859603161E+03  0.47000000000E+01 0.  1.
         -5    1    4    4    0  502  0.41872381132E+02 -0.58587310085E+02  0.12438993247E+03  0.14380790836E+03  0.47000000000E+01 0.  1.
<mgrwt>
<rscale>  0 0.27288191E+03</rscale>
<asrwt>0</asrwt>
<pdfrwt beam="1">  1       21 0.13488778E+00 0.27288191E+03</pdfrwt>
<pdfrwt beam="2">  1       21 0.32665564E-02 0.27288191E+03</pdfrwt>
<totfact> 0.21042808E+05</totfact>
</mgrwt>
</event>
<event>
 8    1  0.9569852E-006  0.3120447E+03  0.7546771E-02  0.1079370E+00
         21   -1    0    0  504  503  0.00000000000E+00  0.00000000000E+00  0.33309949328E+03  0.33309949328E+03  0.00000000000E+00 0. -1.
         21   -1    0    0  503  504 -0.00000000000E+00 -0.00000000000E+00 -0.73080210185E+02  0.73080210185E+02  0.00000000000E+00 0. -1.
         25    2    1    2    0    0 -0.32871400527E+02  0.84390563296E+00  0.24375961216E+03  0.27590826671E+03  0.12500152787E+03 0.  0.
         25    2    1    2    0    0  0.32871400527E+02 -0.84390563296E+00  0.16259670938E+02  0.13027143676E+03  0.12500011675E+03 0.  0.
          5    1    3    3  501    0 -0.45245157732E+00 -0.59707647238E+02  0.12575294621E+03  0.13928783626E+03  0.47000000000E+01 0.  1.
         -5    1    3    3    0  501 -0.32418948950E+02  0.60551552871E+02  0.11800666595E+03  0.13662043044E+03  0.47000000000E+01 0.  1.
          5    1    4    4  502    0  0.43145389480E+02 -0.97826793867E+01 -0.47396316307E+02  0.65005586290E+02  0.47000000000E+01 0. -1.
         -5    1    4    4    0  502 -0.10273988953E+02  0.89387737538E+01  0.63655987245E+02  0.65265850469E+02  0.47000000000E+01 0. -1.
<mgrwt>
<rscale>  0 0.31204475E+03</rscale>
<asrwt>0</asrwt>
<pdfrwt beam="1">  1       21 0.51246075E-01 0.31204475E+03</pdfrwt>
<pdfrwt beam="2">  1       21 0.11243109E-01 0.31204475E+03</pdfrwt>
<totfact> 0.23144358E+05</totfact>
</mgrwt>
</event>
<event>
 8    1  0.9569852E-006  0.3698394E+03  0.7546771E-02  0.1054754E+00
         21   -1    0    0  504  503  0.00000000000E+00  0.00000000000E+00  0.27142350961E+03  0.27142350961E+03  0.00000000000E+00 0. -1.
         21   -1    0    0  503  504 -0.00000000000E+00 -0.00000000000E+00 -0.12598501447E+03  0.12598501447E+03  0.00000000000E+00 0. -1.
         25    2    1    2    0    0 -0.11037954578E+03 -0.13943618613E+02 -0.11790310507E+02  0.16779306339E+03  0.12504971841E+03 0.  0.
         25    2    1    2    0    0  0.11037954578E+03  0.13943618613E+02  0.15722880564E+03  0.22961546069E+03  0.12499717532E+03 0.  0.
          5    1    3    3  501    0  0.24872364761E+02 -0.16928381851E+02 -0.11139506306E+02  0.32425040349E+02  0.47000000000E+01 0. -1.
         -5    1    3    3    0  501 -0.13525191054E+03  0.29847632382E+01 -0.65080420065E+00  0.13536802304E+03  0.47000000000E+01 0. -1.
          5    1    4    4  502    0  0.91970788461E+02  0.60848410515E+02  0.13489877957E+03  0.17430124992E+03  0.47000000000E+01 0. -1.
         -5    1    4    4    0  502  0.18408757317E+02 -0.46904791902E+02  0.22330026069E+02  0.55314210774E+02  0.47000000000E+01 0. -1.
<mgrwt>
<rscale>  0 0.36983940E+03</rscale>
<asrwt>0</asrwt>
<pdfrwt beam="1">  1       21 0.41757463E-01 0.36983940E+03</pdfrwt>
<pdfrwt beam="2">  1       21 0.19382310E-01 0.36983940E+03</pdfrwt>
<totfact> 0.12860264E+05</totfact>
</mgrwt>
</event>
<event>
 8    1  0.9569852E-006  0.3116796E+03  0.7546771E-02  0.1079544E+00
         21   -1    0    0  504  503  0.00000000000E+00  0.00000000000E+00  0.19030196104E+04  0.19030196104E+04  0.00000000000E+00 0.  1.
         21   -1    0    0  503  504 -0.00000000000E+00 -0.00000000000E+00 -0.12761845787E+02  0.12761845787E+02  0.00000000000E+00 0.  1.
         25    2    1    2    0    0 -0.21232167132E+02  0.24634383484E+02  0.40916451528E+03  0.42906699025E+03  0.12500089516E+03 0.  0.
         25    2    1    2    0    0  0.21232167132E+02 -0.24634383484E+02  0.14810932494E+04  0.14867144660E+04  0.12500012887E+03 0.  0.
          5    1    3    3  501    0 -0.57482735785E+02 -0.74415647092E+01  0.33741218242E+03  0.34238678807E+03  0.47000000000E+01 0. -1.
         -5    1    3    3    0  501  0.36250568653E+02  0.32075948193E+02  0.71752332856E+02  0.86680202183E+02  0.47000000000E+01 0. -1.
          5    1    4    4  502    0  0.10938583163E+02 -0.75803946830E+02  0.89361940964E+03  0.89690781591E+03  0.47000000000E+01 0. -1.
         -5    1    4    4    0  502  0.10293583969E+02  0.51169563346E+02  0.58747383975E+03  0.58980665007E+03  0.47000000000E+01 0. -1.
<mgrwt>
<rscale>  0 0.31167960E+03</rscale>
<asrwt>0</asrwt>
<pdfrwt beam="1">  1       21 0.29277202E+00 0.31167960E+03</pdfrwt>
<pdfrwt beam="2">  1       21 0.19633624E-02 0.31167960E+03</pdfrwt>
<totfact> 0.43828036E+04</totfact>
</mgrwt>
</event>
<event>
 8    1  0.9569852E-006  0.3370584E+03  0.7546771E-02  0.1068056E+00
         21   -1    0    0  504  503  0.00000000000E+00  0.00000000000E+00  0.23560568542E+03  0.23560568542E+03  0.00000000000E+00 0.  1.
         21   -1    0    0  503  504 -0.00000000000E+00 -0.00000000000E+00 -0.12054926713E+03  0.12054926713E+03  0.00000000000E+00 0.  1.
         25    2    1    2    0    0 -0.15249750322E+02 -0.96587804555E+02  0.11750514978E+03  0.19746570272E+03  0.12499393846E+03 0.  0.
         25    2    1    2    0    0  0.15249750322E+02  0.96587804555E+02 -0.24487314881E+01  0.15868924983E+03  0.12495808438E+03 0.  0.
          5    1    3    3  501    0  0.24347768165E+02  0.40440185237E-01 -0.14777249734E+02  0.28866460811E+02  0.47000000000E+01 0.  1.
         -5    1    3    3    0  501 -0.39597518487E+02 -0.96628244740E+02  0.13228239951E+03  0.16859924191E+03  0.47000000000E+01 0.  1.
          5    1    4    4  502    0 -0.46108112898E+02  0.82867981329E+02  0.56854787057E+01  0.95118216303E+02  0.47000000000E+01 0. -1.
         -5    1    4    4    0  502  0.61357863220E+02  0.13719823226E+02 -0.81342101938E+01  0.63571033528E+02  0.47000000000E+01 0. -1.
<mgrwt>
<rscale>  0 0.33705841E+03</rscale>
<asrwt>0</asrwt>
<pdfrwt beam="1">  1       21 0.36247029E-01 0.33705841E+03</pdfrwt>
<pdfrwt beam="2">  1       21 0.18546041E-01 0.33705841E+03</pdfrwt>
<totfact> 0.18782516E+05</totfact>
</mgrwt>
</event>
<event>
 8    1  0.9569852E-006  0.3657928E+03  0.7546771E-02  0.1056313E+00
         21   -1    0    0  504  503  0.00000000000E+00  0.00000000000E+00  0.32435797577E+02  0.32435797577E+02  0.00000000000E+00 0. -1.
         21   -1    0    0  503  504 -0.00000000000E+00 -0.00000000000E+00 -0.10313016909E+04  0.10313016909E+04  0.00000000000E+00 0. -1.
         25    2    1    2    0    0  0.44384817830E+02  0.50266223211E+02 -0.16369278881E+03  0.21660356394E+03  0.12500027822E+03 0.  0.
         25    2    1    2    0    0 -0.44384817830E+02 -0.50266223211E+02 -0.83517310449E+03  0.84713392451E+03  0.12500026538E+03 0.  0.
          5    1    3    3  501    0  0.21736708774E+02  0.83297242173E+02 -0.15177832413E+03  0.17455562076E+03  0.47000000000E+01 0. -1.
         -5    1    3    3    0  501  0.22648109056E+02 -0.33031018963E+02 -0.11914464679E+02  0.42047943186E+02  0.47000000000E+01 0. -1.
          5    1    4    4  502    0  0.17736109812E+02  0.30182471742E+02 -0.32494826329E+03  0.32686237931E+03  0.47000000000E+01 0. -1.
         -5    1    4    4    0  502 -0.62120927642E+02 -0.80448694953E+02 -0.51022484119E+03  0.52027154520E+03  0.47000000000E+01 0. -1.
<mgrwt>
<rscale>  0 0.36579280E+03</rscale>
<asrwt>0</asrwt>
<pdfrwt beam="1">  1       21 0.49901236E-02 0.36579280E+03</pdfrwt>
<pdfrwt beam="2">  1       21 0.15866177E+00 0.36579280E+03</pdfrwt>
<totfact> 0.64727120E+04</totfact>
</mgrwt>
</event>
<event>
 8    1  0.9569852E-006  0.5277921E+03  0.7546771E-02  0.1006769E+00
         21   -1    0    0  504  503  0.00000000000E+00  0.00000000000E+00  0.53771342837E+03  0.53771342837E+03  0.00000000000E+00 0. -1.
         21   -1    0    0  503  504 -0.00000000000E+00 -0.00000000000E+00 -0.12951348175E+03  0.12951348175E+03  0.00000000000E+00 0. -1.
         25    2    1    2    0    0 -0.29244475518E+02  0.22939774819E+03  0.23342952631E+03  0.35155683755E+03  0.12499720018E+03 0.  0.
         25    2    1    2    0    0  0.29244475518E+02 -0.22939774819E+03  0.17477042031E+03  0.31567007258E+03  0.12499731472E+03 0.  0.
          5    1    3    3  501    0 -0.74899424719E+02  0.96477579936E+02  0.10616491571E+03  0.16189788937E+03  0.47000000000E+01 0.  1.
         -5    1    3    3    0  501  0.45654949202E+02  0.13292016825E+03  0.12726461059E+03  0.18965894818E+03  0.47000000000E+01 0.  1.
          5    1    4    4  502    0 -0.19535749563E+02 -0.13277646995E+03  0.34900031290E+02  0.13874919340E+03  0.47000000000E+01 0.  1.
         -5    1    4    4    0  502  0.48780225081E+02 -0.96621278235E+02  0.13987038902E+03  0.17692087919E+03  0.47000000000E+01 0.  1.
<mgrwt>
<rscale>  0 0.52779215E+03</rscale>
<asrwt>0</asrwt>
<pdfrwt beam="1">  1       21 0.82725142E-01 0.52779215E+03</pdfrwt>
<pdfrwt beam="2">  1       21 0.19925151E-01 0.52779215E+03</pdfrwt>
<totfact> 0.26436154E+04</totfact>
</mgrwt>
</event>
<event>
 8    1  0.9569852E-006  0.4176395E+03  0.7546771E-02  0.1037837E+00
         21   -1    0    0  504  503  0.00000000000E+00  0.00000000000E+00  0.11312090120E+04  0.11312090120E+04  0.00000000000E+00 0.  1.
         21   -1    0    0  503  504 -0.00000000000E+00 -0.00000000000E+00 -0.38547868104E+02  0.38547868104E+02  0.00000000000E+00 0.  1.
         25    2    1    2    0    0 -0.47161384396E+02  0.12609319494E+03  0.26827643367E+03  0.32514781789E+03  0.12500067452E+03 0.  0.
         25    2    1    2    0    0  0.47161384396E+02 -0.12609319494E+03  0.82438471021E+03  0.84460906219E+03  0.12502250808E+03 0.  0.
          5    1    3    3  501    0 -0.51541386761E+02  0.98526879555E+02  0.27446785611E+03  0.29617352107E+03  0.47000000000E+01 0. -1.
         -5    1    3    3    0  501  0.43800023653E+01  0.27566315385E+02 -0.61914224404E+01  0.28974296825E+02  0.47000000000E+01 0. -1.
          5    1    4    4  502    0  0.46908464917E+02 -0.11579136863E+02  0.99396023153E+02  0.11061708688E+03  0.47000000000E+01 0.  1.
         -5    1    4    4    0  502  0.25291947916E+00 -0.11451405808E+03  0.72498868705E+03  0.73399197531E+03  0.47000000000E+01 0.  1.
<mgrwt>
<rscale>  0 0.41763954E+03</rscale>
<asrwt>0</asrwt>
<pdfrwt beam="1">  1       21 0.17403213E+00 0.41763954E+03</pdfrwt>
<pdfrwt beam="2">  1       21 0.59304421E-02 0.41763954E+03</pdfrwt>
<totfact> 0.36458892E+04</totfact>
</mgrwt>
</event>
<event>
 8    1  0.9569852E-006  0.3798237E+03  0.7546771E-02  0.1050999E+00
         21   -1    0    0  504  503  0.00000000000E+00  0.00000000000E+00  0.13281275099E+03  0.13281275099E+03  0.00000000000E+00 0.  1.
         21   -1    0    0  503  504 -0.00000000000E+00 -0.00000000000E+00 -0.27155910691E+03  0.27155910691E+03  0.00000000000E+00 0.  1.
         25    2    1    2    0    0  0.17955908547E+02  0.10538587232E+03 -0.17037736504E+03  0.23681570240E+03  0.12499853458E+03 0.  0.
         25    2    1    2    0    0 -0.17955908547E+02 -0.10538587232E+03  0.31631009115E+02  0.16755615550E+03  0.12508376302E+03 0.  0.
          5    1    3    3  501    0  0.25841948974E+02  0.13001308179E+03 -0.11513553571E+03  0.17564022702E+03  0.47000000000E+01 0.  1.
         -5    1    3    3    0  501 -0.78860404263E+01 -0.24627209470E+02 -0.55241829328E+02  0.61175475375E+02  0.47000000000E+01 0.  1.
          5    1    4    4  502    0  0.30762059654E+02 -0.65138448663E+02 -0.30905030517E+02  0.78527273731E+02  0.47000000000E+01 0. -1.
         -5    1    4    4    0  502 -0.48717968201E+02 -0.40247423661E+02  0.62536039632E+02  0.89028881774E+02  0.47000000000E+01 0. -1.
<mgrwt>
<rscale>  0 0.37982371E+03</rscale>
<asrwt>0</asrwt>
<pdfrwt beam="1">  1       21 0.20432731E-01 0.37982371E+03</pdfrwt>
<pdfrwt beam="2">  1       21 0.41778323E-01 0.37982371E+03</pdfrwt>
<totfact> 0.11599777E+05</totfact>
</mgrwt>
</event>
<event>
 8    1  0.9569852E-006  0.6527365E+03  0.7546771E-02  0.9801658E-01
         21   -1    0    0  504  503  0.00000000000E+00  0.00000000000E+00  0.18609147258E+04  0.18609147258E+04  0.00000000000E+00 0. -1.
         21   -1    0    0  503  504 -0.00000000000E+00 -0.00000000000E+00 -0.57238635308E+02  0.57238635308E+02  0.00000000000E+00 0. -1.
         25    2    1    2    0    0 -0.13591724586E+03  0.24889213432E+03  0.12025546301E+04  0.12418458199E+04  0.12499043878E+03 0.  0.
         25    2    1    2    0    0  0.13591724586E+03 -0.24889213432E+03  0.60112146033E+03  0.67630754115E+03  0.12499635152E+03 0.  0.
          5    1    3    3  501    0 -0.15339665802E+03  0.22915591452E+03  0.11529060523E+04  0.11854355416E+04  0.47000000000E+01 0. -1.
         -5    1    3    3    0  501  0.17479412161E+02  0.19736219801E+02  0.49648577853E+02  0.56410278357E+02  0.47000000000E+01 0. -1.
          5    1    4    4  502    0  0.15754307742E+03 -0.21931193175E+03  0.55492858532E+03  0.61715911195E+03  0.47000000000E+01 0.  1.
         -5    1    4    4    0  502 -0.21625831565E+02 -0.29580202573E+02  0.46192875006E+02  0.59148429197E+02  0.47000000000E+01 0.  1.
<mgrwt>
<rscale>  0 0.65273645E+03</rscale>
<asrwt>0</asrwt>
<pdfrwt beam="1">  1       21 0.28629453E+00 0.65273645E+03</pdfrwt>
<pdfrwt beam="2">  1       21 0.88059453E-02 0.65273645E+03</pdfrwt>
<totfact> 0.31892444E+03</totfact>
</mgrwt>
</event>
<event>
 8    1  0.9569852E-006  0.3000924E+03  0.7546771E-02  0.1085194E+00
         21   -1    0    0  504  503  0.00000000000E+00  0.00000000000E+00  0.58946906939E+02  0.58946906939E+02  0.00000000000E+00 0. -1.
         21   -1    0    0  503  504 -0.00000000000E+00 -0.00000000000E+00 -0.38193460030E+03  0.38193460030E+03  0.00000000000E+00 0. -1.
         25    2    1    2    0    0  0.74327122365E+01  0.11331512577E+02 -0.41191330661E+02  0.13230628987E+03  0.12499832091E+03 0.  0.
         25    2    1    2    0    0 -0.74327122365E+01 -0.11331512577E+02 -0.28179636270E+03  0.30857521737E+03  0.12500330537E+03 0.  0.
          5    1    3    3  501    0  0.53192597411E+02 -0.31644230720E+02 -0.13447311749E+02  0.63511652085E+02  0.47000000000E+01 0.  1.
         -5    1    3    3    0  501 -0.45759885175E+02  0.42975743298E+02 -0.27744018913E+02  0.68794637790E+02  0.47000000000E+01 0.  1.
          5    1    4    4  502    0  0.42842948037E+02 -0.46215040889E+02 -0.12192758723E+03  0.13733089502E+03  0.47000000000E+01 0.  1.
         -5    1    4    4    0  502 -0.50275660274E+02  0.34883528311E+02 -0.15986877547E+03  0.17124432234E+03  0.47000000000E+01 0.  1.
<mgrwt>
<rscale>  0 0.30009241E+03</rscale>
<asrwt>0</asrwt>
<pdfrwt beam="1">  1       21 0.90687548E-02 0.30009241E+03</pdfrwt>
<pdfrwt beam="2">  1       21 0.58759170E-01 0.30009241E+03</pdfrwt>
<totfact> 0.25417258E+05</totfact>
</mgrwt>
</event>
<event>
 8    1  0.9569852E-006  0.2724446E+03  0.7546771E-02  0.1099889E+00
         21   -1    0    0  504  503  0.00000000000E+00  0.00000000000E+00  0.39840675209E+03  0.39840675209E+03  0.00000000000E+00 0.  1.
         21   -1    0    0  503  504 -0.00000000000E+00 -0.00000000000E+00 -0.46576816489E+02  0.46576816489E+02  0.00000000000E+00 0.  1.
         25    2    1    2    0    0  0.41202468590E+02  0.35127086210E+02  0.17477235692E+03  0.22158336635E+03  0.12498902309E+03 0.  0.
         25    2    1    2    0    0 -0.41202468590E+02 -0.35127086210E+02  0.17705757867E+03  0.22340020223E+03  0.12500683416E+03 0.  0.
          5    1    3    3  501    0  0.21305953678E+02 -0.37168712022E+02  0.12302488621E+03  0.13035593367E+03  0.47000000000E+01 0. -1.
         -5    1    3    3    0  501  0.19896514912E+02  0.72295798232E+02  0.51747470710E+02  0.91227432676E+02  0.47000000000E+01 0. -1.
          5    1    4    4  502    0 -0.63669258940E+02  0.26783365722E+02  0.10388017856E+03  0.12483711272E+03  0.47000000000E+01 0.  1.
         -5    1    4    4    0  502  0.22466790350E+02 -0.61910451932E+02  0.73177400113E+02  0.98563089513E+02  0.47000000000E+01 0.  1.
<mgrwt>
<rscale>  0 0.27244462E+03</rscale>
<asrwt>0</asrwt>
<pdfrwt beam="1">  1       21 0.61293344E-01 0.27244462E+03</pdfrwt>
<pdfrwt beam="2">  1       21 0.71656643E-02 0.27244462E+03</pdfrwt>
<totfact> 0.35285491E+05</totfact>
</mgrwt>
</event>
<event>
 8    1  0.9569852E-006  0.3506181E+03  0.7546771E-02  0.1062362E+00
         21   -1    0    0  504  503  0.00000000000E+00  0.00000000000E+00  0.79688938918E+02  0.79688938918E+02  0.00000000000E+00 0.  1.
         21   -1    0    0  503  504 -0.00000000000E+00 -0.00000000000E+00 -0.38566544882E+03  0.38566544882E+03  0.00000000000E+00 0.  1.
         25    2    1    2    0    0  0.32351900632E+02  0.86916236947E+01  0.39830932130E+01  0.12946369625E+03  0.12499117496E+03 0.  0.
         25    2    1    2    0    0 -0.32351900632E+02 -0.86916236947E+01 -0.30995960311E+03  0.33589069149E+03  0.12500164506E+03 0.  0.
          5    1    3    3  501    0  0.27155440338E+02 -0.39745893643E+02  0.44655141277E+02  0.65828000455E+02  0.47000000000E+01 0.  1.
         -5    1    3    3    0  501  0.51964602941E+01  0.48437517338E+02 -0.40672048064E+02  0.63635695794E+02  0.47000000000E+01 0.  1.
          5    1    4    4  502    0 -0.38372917225E+02 -0.53679296728E+01 -0.32026786359E+03  0.32263739692E+03  0.47000000000E+01 0. -1.
         -5    1    4    4    0  502  0.60210165934E+01 -0.33236940219E+01  0.10308260476E+02  0.13253294564E+02  0.47000000000E+01 0. -1.
<mgrwt>
<rscale>  0 0.35061814E+03</rscale>
<asrwt>0</asrwt>
<pdfrwt beam="1">  1       21 0.12259837E-01 0.35061814E+03</pdfrwt>
<pdfrwt beam="2">  1       21 0.59333145E-01 0.35061814E+03</pdfrwt>
<totfact> 0.14334462E+05</totfact>
</mgrwt>
</event>
<event>
 8    1  0.9569852E-006  0.3112131E+03  0.7546771E-02  0.1079766E+00
         21   -1    0    0  504  503  0.00000000000E+00  0.00000000000E+00  0.41016747102E+02  0.41016747102E+02  0.00000000000E+00 0.  1.
         21   -1    0    0  503  504 -0.00000000000E+00 -0.00000000000E+00 -0.59032950630E+03  0.59032950630E+03  0.00000000000E+00 0.  1.
         25    2    1    2    0    0  0.81333616190E+02  0.21861386073E+02 -0.35312287006E+03  0.38394338255E+03  0.12499472919E+03 0.  0.
         25    2    1    2    0    0 -0.81333616190E+02 -0.21861386073E+02 -0.19618988914E+03  0.24740287085E+03  0.12499852231E+03 0.  0.
          5    1    3    3  501    0 -0.66183988452E+01 -0.41333236058E+02 -0.90250148220E+02  0.99596279348E+02  0.47000000000E+01 0.  1.
         -5    1    3    3    0  501  0.87952015035E+02  0.63194622131E+02 -0.26287272184E+03  0.28434710320E+03  0.47000000000E+01 0.  1.
          5    1    4    4  502    0 -0.25827024688E+02 -0.37218304869E+02 -0.28734922449E+01  0.45635341341E+02  0.47000000000E+01 0. -1.
         -5    1    4    4    0  502 -0.55506591502E+02  0.15356918797E+02 -0.19331639690E+03  0.20176752951E+03  0.47000000000E+01 0. -1.
<mgrwt>
<rscale>  0 0.31121308E+03</rscale>
<asrwt>0</asrwt>
<pdfrwt beam="1">  1       21 0.63102687E-02 0.31121308E+03</pdfrwt>
<pdfrwt beam="2">  1       21 0.90819925E-01 0.31121308E+03</pdfrwt>
<totfact> 0.17962102E+05</totfact>
</mgrwt>
</event>
<event>
 8    1  0.9569852E-006  0.3861506E+03  0.7546771E-02  0.1048684E+00
         21   -1    0    0  504  503  0.00000000000E+00  0.00000000000E+00  0.21760786985E+03  0.21760786985E+03  0.00000000000E+00 0.  1.
         21   -1    0    0  503  504 -0.00000000000E+00 -0.00000000000E+00 -0.17130846431E+03  0.17130846431E+03  0.00000000000E+00 0.  1.
         25    2    1    2    0    0 -0.89323061302E+02 -0.48070011163E+02 -0.84215641538E+02  0.18167553939E+03  0.12499756830E+03 0.  0.
         25    2    1    2    0    0  0.89323061302E+02  0.48070011163E+02  0.13051504708E+03  0.20724079476E+03  0.12500093698E+03 0.  0.
          5    1    3    3  501    0 -0.11127606108E+03 -0.55714791641E+02 -0.38795781517E+02  0.13043658398E+03  0.47000000000E+01 0. -1.
         -5    1    3    3    0  501  0.21952999775E+02  0.76447804787E+01 -0.45419860021E+02  0.51238955415E+02  0.47000000000E+01 0. -1.
          5    1    4    4  502    0 -0.24584589696E+02  0.32184963810E+02  0.59035650129E+02  0.71746581327E+02  0.47000000000E+01 0. -1.
         -5    1    4    4    0  502  0.11390765100E+03  0.15885047352E+02  0.71479396951E+02  0.13549421343E+03  0.47000000000E+01 0. -1.
<mgrwt>
<rscale>  0 0.38615059E+03</rscale>
<asrwt>0</asrwt>
<pdfrwt beam="1">  1       21 0.33478134E-01 0.38615059E+03</pdfrwt>
<pdfrwt beam="2">  1       21 0.26355148E-01 0.38615059E+03</pdfrwt>
<totfact> 0.11137855E+05</totfact>
</mgrwt>
</event>
<event>
 8    1  0.9569852E-006  0.2694259E+03  0.7546771E-02  0.1101609E+00
         21   -1    0    0  504  503  0.00000000000E+00  0.00000000000E+00  0.25247213003E+03  0.25247213003E+03  0.00000000000E+00 0.  1.
         21   -1    0    0  503  504 -0.00000000000E+00 -0.00000000000E+00 -0.71879549202E+02  0.71879549202E+02  0.00000000000E+00 0.  1.
         25    2    1    2    0    0  0.39296121834E+02  0.25990629749E+02  0.69435239010E+02  0.15055299248E+03  0.12500101240E+03 0.  0.
         25    2    1    2    0    0 -0.39296121834E+02 -0.25990629749E+02  0.11115734182E+03  0.17379868675E+03  0.12502132159E+03 0.  0.
          5    1    3    3  501    0 -0.41728706386E+01 -0.41627065602E+02 -0.30529129565E+01  0.42209426880E+02  0.47000000000E+01 0.  1.
         -5    1    3    3    0  501  0.43468992472E+02  0.67617695352E+02  0.72488151967E+02  0.10834356560E+03  0.47000000000E+01 0.  1.
          5    1    4    4  502    0 -0.51402957508E+02 -0.69658259698E+02  0.60807405480E+02  0.10589696760E+03  0.47000000000E+01 0.  1.
         -5    1    4    4    0  502  0.12106835675E+02  0.43667629948E+02  0.50349936335E+02  0.67901719156E+02  0.47000000000E+01 0.  1.
<mgrwt>
<rscale>  0 0.26942593E+03</rscale>
<asrwt>0</asrwt>
<pdfrwt beam="1">  1       21 0.38841866E-01 0.26942593E+03</pdfrwt>
<pdfrwt beam="2">  1       21 0.11058392E-01 0.26942593E+03</pdfrwt>
<totfact> 0.42699357E+05</totfact>
</mgrwt>
</event>
<event>
 8    1  0.9569852E-006  0.3492238E+03  0.7546771E-02  0.1062934E+00
         21   -1    0    0  504  503  0.00000000000E+00  0.00000000000E+00  0.15852175740E+02  0.15852175740E+02  0.00000000000E+00 0.  1.
         21   -1    0    0  503  504 -0.00000000000E+00 -0.00000000000E+00 -0.19233523808E+04  0.19233523808E+04  0.00000000000E+00 0.  1.
         25    2    1    2    0    0 -0.10921333852E+03  0.30072252124E+02 -0.12041089541E+04  0.12158680410E+04  0.12499930501E+03 0.  0.
         25    2    1    2    0    0  0.10921333852E+03 -0.30072252124E+02 -0.70339125103E+03  0.72333651555E+03  0.12499827620E+03 0.  0.
          5    1    3    3  501    0 -0.11262457764E+03  0.64059643248E+02 -0.10484374351E+04  0.10564237212E+04  0.47000000000E+01 0. -1.
         -5    1    3    3    0  501  0.34112391160E+01 -0.33987391124E+02 -0.15567151895E+03  0.15944431981E+03  0.47000000000E+01 0. -1.
          5    1    4    4  502    0  0.32976680805E+02 -0.72737934567E+02 -0.37918563530E+03  0.38753335937E+03  0.47000000000E+01 0. -1.
         -5    1    4    4    0  502  0.76236657717E+02  0.42665682442E+02 -0.32420561572E+03  0.33580315619E+03  0.47000000000E+01 0. -1.
<mgrwt>
<rscale>  0 0.34922382E+03</rscale>
<asrwt>0</asrwt>
<pdfrwt beam="1">  1       21 0.24387971E-02 0.34922382E+03</pdfrwt>
<pdfrwt beam="2">  1       21 0.29590027E+00 0.34922382E+03</pdfrwt>
<totfact> 0.28768581E+04</totfact>
</mgrwt>
</event>
<event>
 8    1  0.9569852E-006  0.2537472E+03  0.7546771E-02  0.1110959E+00
         21   -1    0    0  504  503  0.00000000000E+00  0.00000000000E+00  0.47559273145E+02  0.47559273145E+02  0.00000000000E+00 0.  1.
         21   -1    0    0  503  504 -0.00000000000E+00 -0.00000000000E+00 -0.33845994759E+03  0.33845994759E+03  0.00000000000E+00 0.  1.
         25    2    1    2    0    0 -0.16575170293E+02  0.14259208319E+02 -0.14183713441E+03  0.19031582167E+03  0.12499711192E+03 0.  0.
         25    2    1    2    0    0  0.16575170293E+02 -0.14259208319E+02 -0.14906354003E+03  0.19570339906E+03  0.12490724617E+03 0.  0.
          5    1    3    3  501    0  0.19005919165E+02 -0.36871557569E+02 -0.11496766883E+03  0.12231267963E+03  0.47000000000E+01 0.  1.
         -5    1    3    3    0  501 -0.35581089459E+02  0.51130765888E+02 -0.26869465583E+02  0.68003142045E+02  0.47000000000E+01 0.  1.
          5    1    4    4  502    0  0.20962145147E+02  0.34474363123E+02 -0.20300509058E+01  0.40670681683E+02  0.47000000000E+01 0.  1.
         -5    1    4    4    0  502 -0.43869748533E+01 -0.48733571442E+02 -0.14703348912E+03  0.15503271738E+03  0.47000000000E+01 0.  1.
<mgrwt>
<rscale>  0 0.25374719E+03</rscale>
<asrwt>0</asrwt>
<pdfrwt beam="1">  1       21 0.73168110E-02 0.25374719E+03</pdfrwt>
<pdfrwt beam="2">  1       21 0.52070763E-01 0.25374719E+03</pdfrwt>
<totfact> 0.48429558E+05</totfact>
</mgrwt>
</event>
<event>
 8    1  0.9569852E-006  0.2606467E+03  0.7546771E-02  0.1106755E+00
         21   -1    0    0  504  503  0.00000000000E+00  0.00000000000E+00  0.85150037594E+03  0.85150037594E+03  0.00000000000E+00 0. -1.
         21   -1    0    0  503  504 -0.00000000000E+00 -0.00000000000E+00 -0.19946169411E+02  0.19946169411E+02  0.00000000000E+00 0. -1.
         25    2    1    2    0    0  0.12949995324E+02  0.13438164046E+02  0.52213640738E+03  0.53721342727E+03  0.12499420743E+03 0.  0.
         25    2    1    2    0    0 -0.12949995324E+02 -0.13438164046E+02  0.30941779915E+03  0.33423311809E+03  0.12499646460E+03 0.  0.
          5    1    3    3  501    0 -0.33527454011E+02 -0.21929589990E+01  0.44093654827E+03  0.44223978658E+03  0.47000000000E+01 0. -1.
         -5    1    3    3    0  501  0.46477449335E+02  0.15631123045E+02  0.81199859116E+02  0.94973640684E+02  0.47000000000E+01 0. -1.
          5    1    4    4  502    0  0.16378538624E+02 -0.63874493795E+02  0.19144868021E+03  0.20254109371E+03  0.47000000000E+01 0.  1.
         -5    1    4    4    0  502 -0.29328533948E+02  0.50436329750E+02  0.11796911894E+03  0.13169202438E+03  0.47000000000E+01 0.  1.
<mgrwt>
<rscale>  0 0.26064666E+03</rscale>
<asrwt>0</asrwt>
<pdfrwt beam="1">  1       21 0.13100003E+00 0.26064666E+03</pdfrwt>
<pdfrwt beam="2">  1       21 0.30686421E-02 0.26064666E+03</pdfrwt>
<totfact> 0.25268429E+05</totfact>
</mgrwt>
</event>
<event>
 8    1  0.9569852E-006  0.2883990E+03  0.7546771E-02  0.1091188E+00
         21   -1    0    0  504  503  0.00000000000E+00  0.00000000000E+00  0.28204028358E+03  0.28204028358E+03  0.00000000000E+00 0.  1.
         21   -1    0    0  503  504 -0.00000000000E+00 -0.00000000000E+00 -0.73725279897E+02  0.73725279897E+02  0.00000000000E+00 0.  1.
         25    2    1    2    0    0 -0.61316535318E+02 -0.37411513014E+02  0.10776297825E+03  0.17999487978E+03  0.12500383376E+03 0.  0.
         25    2    1    2    0    0  0.61316535318E+02  0.37411513014E+02  0.10055202544E+03  0.17577068370E+03  0.12500113848E+03 0.  0.
          5    1    3    3  501    0 -0.42715130579E+02  0.38422950841E+02  0.76424095208E+02  0.95726892043E+02  0.47000000000E+01 0.  1.
         -5    1    3    3    0  501 -0.18601404738E+02 -0.75834463855E+02  0.31338883040E+02  0.84267987733E+02  0.47000000000E+01 0.  1.
          5    1    4    4  502    0  0.15821210423E+02 -0.44829783142E+02  0.49160742402E+02  0.68548440896E+02  0.47000000000E+01 0.  1.
         -5    1    4    4    0  502  0.45495324895E+02  0.82241296156E+02  0.51391283034E+02  0.10722224281E+03  0.47000000000E+01 0.  1.
<mgrwt>
<rscale>  0 0.28839902E+03</rscale>
<asrwt>0</asrwt>
<pdfrwt beam="1">  1       21 0.43390812E-01 0.28839902E+03</pdfrwt>
<pdfrwt beam="2">  1       21 0.11342351E-01 0.28839902E+03</pdfrwt>
<totfact> 0.32410569E+05</totfact>
</mgrwt>
</event>
<event>
 8    1  0.9569852E-006  0.3142148E+03  0.7546771E-02  0.1078343E+00
         21   -1    0    0  504  503  0.00000000000E+00  0.00000000000E+00  0.11248110509E+04  0.11248110509E+04  0.00000000000E+00 0.  1.
         21   -1    0    0  503  504 -0.00000000000E+00 -0.00000000000E+00 -0.21943896635E+02  0.21943896635E+02  0.00000000000E+00 0.  1.
         25    2    1    2    0    0 -0.69517054797E+02  0.63321968596E+02  0.60517059993E+03  0.62505770017E+03  0.12499352348E+03 0.  0.
         25    2    1    2    0    0  0.69517054797E+02 -0.63321968596E+02  0.49769655432E+03  0.52169724734E+03  0.12499546029E+03 0.  0.
          5    1    3    3  501    0 -0.85974228599E+02 -0.38083430273E+01  0.30089632871E+03  0.31299642504E+03  0.47000000000E+01 0.  1.
         -5    1    3    3    0  501  0.16457173802E+02  0.67130311623E+02  0.30427427122E+03  0.31206127513E+03  0.47000000000E+01 0.  1.
          5    1    4    4  502    0 -0.30997842477E+02 -0.60536457662E+01  0.50437298854E+02  0.59695259284E+02  0.47000000000E+01 0. -1.
         -5    1    4    4    0  502  0.10051489727E+03 -0.57268322830E+02  0.44725925546E+03  0.46200198806E+03  0.47000000000E+01 0. -1.
<mgrwt>
<rscale>  0 0.31421481E+03</rscale>
<asrwt>0</asrwt>
<pdfrwt beam="1">  1       21 0.17304781E+00 0.31421481E+03</pdfrwt>
<pdfrwt beam="2">  1       21 0.33759850E-02 0.31421481E+03</pdfrwt>
<totfact> 0.10032553E+05</totfact>
</mgrwt>
</event>
<event>
 8    1  0.9569852E-006  0.2799000E+03  0.7546771E-02  0.1095744E+00
         21   -1    0    0  504  503  0.00000000000E+00  0.00000000000E+00  0.36846519060E+03  0.36846519060E+03  0.00000000000E+00 0. -1.
         21   -1    0    0  503  504 -0.00000000000E+00 -0.00000000000E+00 -0.53155632352E+02  0.53155632352E+02  0.00000000000E+00 0. -1.
         25    2    1    2    0    0  0.25549366143E+02 -0.28729398076E+02  0.23274340990E+03  0.26696974683E+03  0.12500080977E+03 0.  0.
         25    2    1    2    0    0 -0.25549366143E+02  0.28729398076E+02  0.82566148344E+02  0.15465107612E+03  0.12498655155E+03 0.  0.
          5    1    3    3  501    0  0.37217184157E+02 -0.67002947392E+02  0.20256842325E+03  0.21663464601E+03  0.47000000000E+01 0. -1.
         -5    1    3    3    0  501 -0.11667818014E+02  0.38273549315E+02  0.30174986650E+02  0.50335100812E+02  0.47000000000E+01 0. -1.
          5    1    4    4  502    0 -0.99931533683E+01  0.51272414825E+02 -0.13902481377E+02  0.54259493406E+02  0.47000000000E+01 0.  1.
         -5    1    4    4    0  502 -0.15556212775E+02 -0.22543016749E+02  0.96468629721E+02  0.10039158272E+03  0.47000000000E+01 0.  1.
<mgrwt>
<rscale>  0 0.27989998E+03</rscale>
<asrwt>0</asrwt>
<pdfrwt beam="1">  1       21 0.56686951E-01 0.27989998E+03</pdfrwt>
<pdfrwt beam="2">  1       21 0.81777898E-02 0.27989998E+03</pdfrwt>
<totfact> 0.33099017E+05</totfact>
</mgrwt>
</event>
<event>
 8    1  0.9569852E-006  0.4597443E+03  0.7546771E-02  0.1024855E+00
         21   -1    0    0  504  503  0.00000000000E+00  0.00000000000E+00  0.73195880669E+02  0.73195880669E+02  0.00000000000E+00 0. -1.
         21   -1    0    0  503  504 -0.00000000000E+00 -0.00000000000E+00 -0.72191507160E+03  0.72191507160E+03  0.00000000000E+00 0. -1.
         25    2    1    2    0    0 -0.16195083880E+03  0.80149232291E+00 -0.14307145803E+03  0.24964490714E+03  0.12499768390E+03 0.  0.
         25    2    1    2    0    0  0.16195083880E+03 -0.80149232291E+00 -0.50564773290E+03  0.54546604513E+03  0.12499944010E+03 0.  0.
          5    1    3    3  501    0 -0.67589826089E+02  0.45160657372E+02 -0.11616334583E+03  0.14185867079E+03  0.47000000000E+01 0. -1.
         -5    1    3    3    0  501 -0.94361012707E+02 -0.44359165049E+02 -0.26908112201E+02  0.10778623634E+03  0.47000000000E+01 0. -1.
          5    1    4    4  502    0  0.16298073706E+03 -0.48503482188E+01 -0.31513748259E+03  0.35485203883E+03  0.47000000000E+01 0.  1.
         -5    1    4    4    0  502 -0.10298982593E+01  0.40488558959E+01 -0.19051025030E+03  0.19061400629E+03  0.47000000000E+01 0.  1.
<mgrwt>
<rscale>  0 0.45974432E+03</rscale>
<asrwt>0</asrwt>
<pdfrwt beam="1">  1       21 0.11260904E-01 0.45974432E+03</pdfrwt>
<pdfrwt beam="2">  1       21 0.11106386E+00 0.45974432E+03</pdfrwt>
<totfact> 0.38116771E+04</totfact>
</mgrwt>
</event>
<event>
 8    1  0.9569852E-006  0.3264041E+03  0.7546771E-02  0.1072739E+00
         21   -1    0    0  504  503  0.00000000000E+00  0.00000000000E+00  0.27333420086E+03  0.27333420086E+03  0.00000000000E+00 0. -1.
         21   -1    0    0  503  504 -0.00000000000E+00 -0.00000000000E+00 -0.97444460463E+02  0.97444460463E+02  0.00000000000E+00 0. -1.
         25    2    1    2    0    0  0.42351208177E+02 -0.14602819451E+02 -0.19847095079E+02  0.13425361909E+03  0.12499303935E+03 0.  0.
         25    2    1    2    0    0 -0.42351208177E+02  0.14602819451E+02  0.19573683547E+03  0.23652504223E+03  0.12499727866E+03 0.  0.
          5    1    3    3  501    0  0.12579945414E+02  0.14927257822E+02  0.49309431739E+02  0.53240850022E+02  0.47000000000E+01 0. -1.
         -5    1    3    3    0  501  0.29771262763E+02 -0.29530077273E+02 -0.69156526817E+02  0.81012769066E+02  0.47000000000E+01 0. -1.
          5    1    4    4  502    0  0.19572969625E+02 -0.33222091714E+02  0.12516203049E+03  0.13105125866E+03  0.47000000000E+01 0.  1.
         -5    1    4    4    0  502 -0.61924177802E+02  0.47824911165E+02  0.70574804980E+02  0.10547378358E+03  0.47000000000E+01 0.  1.
<mgrwt>
<rscale>  0 0.32640407E+03</rscale>
<asrwt>0</asrwt>
<pdfrwt beam="1">  1       21 0.42051415E-01 0.32640407E+03</pdfrwt>
<pdfrwt beam="2">  1       21 0.14991456E-01 0.32640407E+03</pdfrwt>
<totfact> 0.20652784E+05</totfact>
</mgrwt>
</event>
<event>
 8    1  0.9569852E-006  0.3156751E+03  0.7546771E-02  0.1077657E+00
         21   -1    0    0  504  503  0.00000000000E+00  0.00000000000E+00  0.77534190332E+02  0.77534190332E+02  0.00000000000E+00 0.  1.
         21   -1    0    0  503  504 -0.00000000000E+00 -0.00000000000E+00 -0.32131238361E+03  0.32131238361E+03  0.00000000000E+00 0.  1.
         25    2    1    2    0    0 -0.61852910666E+02  0.88932600553E+01 -0.21458969185E+03  0.25608603593E+03  0.12500579714E+03 0.  0.
         25    2    1    2    0    0  0.61852910666E+02 -0.88932600553E+01 -0.29188501433E+02  0.14276053801E+03  0.12499491976E+03 0.  0.
          5    1    3    3  501    0 -0.78642291442E+02  0.48225206264E+02 -0.11430723164E+03  0.14696432808E+03  0.47000000000E+01 0.  1.
         -5    1    3    3    0  501  0.16789380776E+02 -0.39331946209E+02 -0.10028246021E+03  0.10912170785E+03  0.47000000000E+01 0.  1.
          5    1    4    4  502    0  0.28552324856E+02  0.58028849097E+02 -0.12995705110E+02  0.66132903562E+02  0.47000000000E+01 0. -1.
         -5    1    4    4    0  502  0.33300585810E+02 -0.66922109153E+02 -0.16192796322E+02  0.76627634450E+02  0.47000000000E+01 0. -1.
<mgrwt>
<rscale>  0 0.31567512E+03</rscale>
<asrwt>0</asrwt>
<pdfrwt beam="1">  1       21 0.11928337E-01 0.31567512E+03</pdfrwt>
<pdfrwt beam="2">  1       21 0.49432675E-01 0.31567512E+03</pdfrwt>
<totfact> 0.22429095E+05</totfact>
</mgrwt>
</event>
<event>
 8    1  0.9569852E-006  0.2899382E+03  0.7546771E-02  0.1090381E+00
         21   -1    0    0  504  503  0.00000000000E+00  0.00000000000E+00  0.13633863075E+02  0.13633863075E+02  0.00000000000E+00 0. -1.
         21   -1    0    0  503  504 -0.00000000000E+00 -0.00000000000E+00 -0.15414588463E+04  0.15414588463E+04  0.00000000000E+00 0. -1.
         25    2    1    2    0    0  0.34590696205E+02 -0.26811838547E+02 -0.10801293929E+04  0.10882161706E+04  0.12497814844E+03 0.  0.
         25    2    1    2    0    0 -0.34590696205E+02  0.26811838547E+02 -0.44769559031E+03  0.46687653877E+03  0.12500787942E+03 0.  0.
          5    1    3    3  501    0 -0.55688888690E+01  0.29829830363E+02 -0.75952791773E+03  0.76014839282E+03  0.47000000000E+01 0.  1.
         -5    1    3    3    0  501  0.40159585074E+02 -0.56641668910E+02 -0.32060147521E+03  0.32806777781E+03  0.47000000000E+01 0.  1.
          5    1    4    4  502    0  0.26568184799E+02  0.42027097212E+02 -0.32546495873E+03  0.32927446714E+03  0.47000000000E+01 0. -1.
         -5    1    4    4    0  502 -0.61158881004E+02 -0.15215258665E+02 -0.12223063158E+03  0.13760207164E+03  0.47000000000E+01 0. -1.
<mgrwt>
<rscale>  0 0.28993819E+03</rscale>
<asrwt>0</asrwt>
<pdfrwt beam="1">  1       21 0.20975181E-02 0.28993819E+03</pdfrwt>
<pdfrwt beam="2">  1       21 0.23714744E+00 0.28993819E+03</pdfrwt>
<totfact> 0.85377133E+04</totfact>
</mgrwt>
</event>
<event>
 8    1  0.9569852E-006  0.2655761E+03  0.7546771E-02  0.1103839E+00
         21   -1    0    0  504  503  0.00000000000E+00  0.00000000000E+00  0.50847743802E+02  0.50847743802E+02  0.00000000000E+00 0.  1.
         21   -1    0    0  503  504 -0.00000000000E+00 -0.00000000000E+00 -0.34677386305E+03  0.34677386305E+03  0.00000000000E+00 0.  1.
         25    2    1    2    0    0  0.28576293771E+02  0.32186221603E+02 -0.16674024829E+03  0.21278930479E+03  0.12499768161E+03 0.  0.
         25    2    1    2    0    0 -0.28576293771E+02 -0.32186221603E+02 -0.12918587096E+03  0.18483230206E+03  0.12498573200E+03 0.  0.
          5    1    3    3  501    0  0.69060240320E+02  0.51073361720E+02 -0.95125450407E+02  0.12825266619E+03  0.47000000000E+01 0. -1.
         -5    1    3    3    0  501 -0.40483946549E+02 -0.18887140117E+02 -0.71614797883E+02  0.84536638600E+02  0.47000000000E+01 0. -1.
          5    1    4    4  502    0 -0.54159844022E+02  0.19610410805E+02 -0.10915016276E+03  0.12350589033E+03  0.47000000000E+01 0. -1.
         -5    1    4    4    0  502  0.25583550251E+02 -0.51796632408E+02 -0.20035708199E+02  0.61326411727E+02  0.47000000000E+01 0. -1.
<mgrwt>
<rscale>  0 0.26557612E+03</rscale>
<asrwt>0</asrwt>
<pdfrwt beam="1">  1       21 0.78227301E-02 0.26557612E+03</pdfrwt>
<pdfrwt beam="2">  1       21 0.53349823E-01 0.26557612E+03</pdfrwt>
<totfact> 0.40841269E+05</totfact>
</mgrwt>
</event>
<event>
 8    1  0.9569852E-006  0.2923932E+03  0.7546771E-02  0.1089106E+00
         21   -1    0    0  504  503  0.00000000000E+00  0.00000000000E+00  0.65125889489E+03  0.65125889489E+03  0.00000000000E+00 0.  1.
         21   -1    0    0  503  504 -0.00000000000E+00 -0.00000000000E+00 -0.32818663858E+02  0.32818663858E+02  0.00000000000E+00 0.  1.
         25    2    1    2    0    0  0.28678636069E+02 -0.44171837925E+01  0.14534185457E+03  0.19388392677E+03  0.12499898676E+03 0.  0.
         25    2    1    2    0    0 -0.28678636069E+02  0.44171837925E+01  0.47309837646E+03  0.49019363198E+03  0.12500298933E+03 0.  0.
          5    1    3    3  501    0  0.59842499900E+02  0.40622685210E+02  0.71350421105E+02  0.10170693162E+03  0.47000000000E+01 0. -1.
         -5    1    3    3    0  501 -0.31163863831E+02 -0.45039869003E+02  0.73991433468E+02  0.92176995152E+02  0.47000000000E+01 0. -1.
          5    1    4    4  502    0 -0.13763786689E+02 -0.22470962617E+01  0.47296552022E+03  0.47319442578E+03  0.47000000000E+01 0. -1.
         -5    1    4    4    0  502 -0.14914849380E+02  0.66642800542E+01  0.13285623794E+00  0.16999206201E+02  0.47000000000E+01 0. -1.
<mgrwt>
<rscale>  0 0.29239321E+03</rscale>
<asrwt>0</asrwt>
<pdfrwt beam="1">  1       21 0.10019367E+00 0.29239321E+03</pdfrwt>
<pdfrwt beam="2">  1       21 0.50490257E-02 0.29239321E+03</pdfrwt>
<totfact> 0.20985685E+05</totfact>
</mgrwt>
</event>
<event>
 8    1  0.9569852E-006  0.4249608E+03  0.7546771E-02  0.1035464E+00
         21   -1    0    0  504  503  0.00000000000E+00  0.00000000000E+00  0.78697727465E+03  0.78697727465E+03  0.00000000000E+00 0.  1.
         21   -1    0    0  503  504 -0.00000000000E+00 -0.00000000000E+00 -0.57368785041E+02  0.57368785041E+02  0.00000000000E+00 0.  1.
         25    2    1    2    0    0  0.16454489348E+03 -0.47004835433E+02  0.39550790126E+03  0.44870406032E+03  0.12499742903E+03 0.  0.
         25    2    1    2    0    0 -0.16454489348E+03  0.47004835433E+02  0.33410058835E+03  0.39564199937E+03  0.12499964803E+03 0.  0.
          5    1    3    3  501    0  0.87964652851E+02  0.17083881038E+02  0.89317906473E+02  0.12660733612E+03  0.47000000000E+01 0. -1.
         -5    1    3    3    0  501  0.76580240625E+02 -0.64088716471E+02  0.30618999479E+03  0.32209672420E+03  0.47000000000E+01 0. -1.
          5    1    4    4  502    0 -0.52699385924E+02  0.84031191191E+01  0.15531818435E+02  0.55777818813E+02  0.47000000000E+01 0.  1.
         -5    1    4    4    0  502 -0.11184550755E+03  0.38601716314E+02  0.31856876991E+03  0.33986418056E+03  0.47000000000E+01 0.  1.
<mgrwt>
<rscale>  0 0.42496085E+03</rscale>
<asrwt>0</asrwt>
<pdfrwt beam="1">  1       21 0.12107342E+00 0.42496085E+03</pdfrwt>
<pdfrwt beam="2">  1       21 0.88259675E-02 0.42496085E+03</pdfrwt>
<totfact> 0.47973706E+04</totfact>
</mgrwt>
</event>
<event>
 8    1  0.9569852E-006  0.2819775E+03  0.7546771E-02  0.1094614E+00
         21   -1    0    0  504  503  0.00000000000E+00  0.00000000000E+00  0.19607826128E+03  0.19607826128E+03  0.00000000000E+00 0.  1.
         21   -1    0    0  503  504 -0.00000000000E+00 -0.00000000000E+00 -0.10137702834E+03  0.10137702834E+03  0.00000000000E+00 0.  1.
         25    2    1    2    0    0 -0.19969223330E+02 -0.52750254286E+02  0.81776178615E+02  0.15970509606E+03  0.12504805121E+03 0.  0.
         25    2    1    2    0    0  0.19969223330E+02  0.52750254286E+02  0.12925054318E+02  0.13775019355E+03  0.12500679816E+03 0.  0.
          5    1    3    3  501    0 -0.64681164276E+02 -0.60419814100E+02  0.69043064203E+02  0.11235320050E+03  0.47000000000E+01 0. -1.
         -5    1    3    3    0  501  0.44711940946E+02  0.76695598133E+01  0.12733114412E+02  0.47351895564E+02  0.47000000000E+01 0. -1.
          5    1    4    4  502    0  0.87360203901E+01 -0.29757459583E+02  0.39294891543E+02  0.50279249741E+02  0.47000000000E+01 0.  1.
         -5    1    4    4    0  502  0.11233202940E+02  0.82507713869E+02 -0.26369837226E+02  0.87470943813E+02  0.47000000000E+01 0.  1.
<mgrwt>
<rscale>  0 0.28197753E+03</rscale>
<asrwt>0</asrwt>
<pdfrwt beam="1">  1       21 0.30165886E-01 0.28197753E+03</pdfrwt>
<pdfrwt beam="2">  1       21 0.15596466E-01 0.28197753E+03</pdfrwt>
<totfact> 0.37787242E+05</totfact>
</mgrwt>
</event>
<event>
 8    1  0.9569852E-006  0.2713665E+03  0.7546771E-02  0.1100500E+00
         21   -1    0    0  504  503  0.00000000000E+00  0.00000000000E+00  0.90088647712E+03  0.90088647712E+03  0.00000000000E+00 0.  1.
         21   -1    0    0  503  504 -0.00000000000E+00 -0.00000000000E+00 -0.20435363104E+02  0.20435363104E+02  0.00000000000E+00 0.  1.
         25    2    1    2    0    0  0.16535114291E+02 -0.28268691621E+01  0.27039642821E+03  0.29836601441E+03  0.12500659570E+03 0.  0.
         25    2    1    2    0    0 -0.16535114291E+02  0.28268691621E+01  0.61005468580E+03  0.62295582581E+03  0.12500336019E+03 0.  0.
          5    1    3    3  501    0  0.61968586996E+01 -0.14913231303E+02 -0.85906928365E+01  0.18886384753E+02  0.47000000000E+01 0.  1.
         -5    1    3    3    0  501  0.10338255592E+02  0.12086362141E+02  0.27898712105E+03  0.27947962965E+03  0.47000000000E+01 0.  1.
          5    1    4    4  502    0 -0.68180890332E+02  0.17550734533E+02  0.39461957577E+03  0.40087823796E+03  0.47000000000E+01 0.  1.
         -5    1    4    4    0  502  0.51645776041E+02 -0.14723865371E+02  0.21543511003E+03  0.22207758785E+03  0.47000000000E+01 0.  1.
<mgrwt>
<rscale>  0 0.27136648E+03</rscale>
<asrwt>0</asrwt>
<pdfrwt beam="1">  1       21 0.13859789E+00 0.27136648E+03</pdfrwt>
<pdfrwt beam="2">  1       21 0.31439027E-02 0.27136648E+03</pdfrwt>
<totfact> 0.20919401E+05</totfact>
</mgrwt>
</event>
<event>
 8    1  0.9569852E-006  0.2857851E+03  0.7546771E-02  0.1092571E+00
         21   -1    0    0  504  503  0.00000000000E+00  0.00000000000E+00  0.39011690639E+02  0.39011690639E+02  0.00000000000E+00 0.  1.
         21   -1    0    0  503  504 -0.00000000000E+00 -0.00000000000E+00 -0.52338884868E+03  0.52338884868E+03  0.00000000000E+00 0.  1.
         25    2    1    2    0    0  0.28984607063E+02  0.59881492168E+02 -0.20446718025E+03  0.24871196422E+03  0.12499965118E+03 0.  0.
         25    2    1    2    0    0 -0.28984607063E+02 -0.59881492168E+02 -0.27990997779E+03  0.31368857510E+03  0.12500010372E+03 0.  0.
          5    1    3    3  501    0  0.17193611888E+02  0.34950959694E+02  0.30176992305E+01  0.39349541064E+02  0.47000000000E+01 0. -1.
         -5    1    3    3    0  501  0.11790995174E+02  0.24930532474E+02 -0.20748487948E+03  0.20936242316E+03  0.47000000000E+01 0. -1.
          5    1    4    4  502    0  0.24130560040E+02  0.28143273833E+02 -0.94688354375E+02  0.10179539402E+03  0.47000000000E+01 0.  1.
         -5    1    4    4    0  502 -0.53115167103E+02 -0.88024766001E+02 -0.18522162341E+03  0.21189318108E+03  0.47000000000E+01 0.  1.
<mgrwt>
<rscale>  0 0.28578512E+03</rscale>
<asrwt>0</asrwt>
<pdfrwt beam="1">  1       21 0.60017989E-02 0.28578512E+03</pdfrwt>
<pdfrwt beam="2">  1       21 0.80521356E-01 0.28578512E+03</pdfrwt>
<totfact> 0.26049352E+05</totfact>
</mgrwt>
</event>
<event>
 8    1  0.9569852E-006  0.3288546E+03  0.7546771E-02  0.1071645E+00
         21   -1    0    0  504  503  0.00000000000E+00  0.00000000000E+00  0.41204448805E+02  0.41204448805E+02  0.00000000000E+00 0. -1.
         21   -1    0    0  503  504 -0.00000000000E+00 -0.00000000000E+00 -0.65615088623E+03  0.65615088623E+03  0.00000000000E+00 0. -1.
         25    2    1    2    0    0  0.10581992435E+03  0.98488880432E+01 -0.28470217347E+03  0.32859790906E+03  0.12500560498E+03 0.  0.
         25    2    1    2    0    0 -0.10581992435E+03 -0.98488880432E+01 -0.33024426395E+03  0.36875742597E+03  0.12500363335E+03 0.  0.
          5    1    3    3  501    0  0.34098332824E+01 -0.42326657348E+02 -0.41487839591E+02  0.59552529075E+02  0.47000000000E+01 0.  1.
         -5    1    3    3    0  501  0.10241009106E+03  0.52175545391E+02 -0.24321433388E+03  0.26904537999E+03  0.47000000000E+01 0.  1.
          5    1    4    4  502    0  0.16429779064E+02 -0.63357298958E+01 -0.14868644943E+03  0.14979929692E+03  0.47000000000E+01 0. -1.
         -5    1    4    4    0  502 -0.12224970341E+03 -0.35131581474E+01 -0.18155781452E+03  0.21895812905E+03  0.47000000000E+01 0. -1.
<mgrwt>
<rscale>  0 0.32885459E+03</rscale>
<asrwt>0</asrwt>
<pdfrwt beam="1">  1       21 0.63391468E-02 0.32885459E+03</pdfrwt>
<pdfrwt beam="2">  1       21 0.10094628E+00 0.32885459E+03</pdfrwt>
<totfact> 0.13795466E+05</totfact>
</mgrwt>
</event>
<event>
 8    1  0.9569852E-006  0.3275035E+03  0.7546771E-02  0.1072247E+00
         21   -1    0    0  504  503  0.00000000000E+00  0.00000000000E+00  0.43978295522E+02  0.43978295522E+02  0.00000000000E+00 0. -1.
         21   -1    0    0  503  504 -0.00000000000E+00 -0.00000000000E+00 -0.60972428634E+03  0.60972428634E+03  0.00000000000E+00 0. -1.
         25    2    1    2    0    0 -0.69512327949E+02  0.79190492363E+02 -0.30182025334E+03  0.34324146599E+03  0.12496455829E+03 0.  0.
         25    2    1    2    0    0  0.69512327949E+02 -0.79190492363E+02 -0.26392573748E+03  0.31046111588E+03  0.12500484691E+03 0.  0.
          5    1    3    3  501    0  0.28740914909E+02 -0.55378036594E+01 -0.90458883444E+02  0.95192473721E+02  0.47000000000E+01 0. -1.
         -5    1    3    3    0  501 -0.98253242858E+02  0.84728296023E+02 -0.21136136990E+03  0.24804899227E+03  0.47000000000E+01 0. -1.
          5    1    4    4  502    0  0.29912050217E+02 -0.78990895761E+02 -0.25624708442E+03  0.26984986685E+03  0.47000000000E+01 0.  1.
         -5    1    4    4    0  502  0.39600277732E+02 -0.19959660214E+00 -0.76786530563E+01  0.40611249033E+02  0.47000000000E+01 0.  1.
<mgrwt>
<rscale>  0 0.32750350E+03</rscale>
<asrwt>0</asrwt>
<pdfrwt beam="1">  1       21 0.67658918E-02 0.32750350E+03</pdfrwt>
<pdfrwt beam="2">  1       21 0.93803733E-01 0.32750350E+03</pdfrwt>
<totfact> 0.14683893E+05</totfact>
</mgrwt>
</event>
<event>
 8    1  0.9569852E-006  0.3449092E+03  0.7546771E-02  0.1064724E+00
         21   -1    0    0  504  503  0.00000000000E+00  0.00000000000E+00  0.36944868386E+02  0.36944868386E+02  0.00000000000E+00 0. -1.
         21   -1    0    0  503  504 -0.00000000000E+00 -0.00000000000E+00 -0.80499918682E+03  0.80499918682E+03  0.00000000000E+00 0. -1.
         25    2    1    2    0    0  0.78346186744E+02 -0.29053279767E+02 -0.59009312845E+03  0.60894837216E+03  0.12500400661E+03 0.  0.
         25    2    1    2    0    0 -0.78346186744E+02  0.29053279767E+02 -0.17796118998E+03  0.23299568304E+03  0.12503833466E+03 0.  0.
          5    1    3    3  501    0  0.74813912275E+02 -0.22838996342E+02 -0.15418396621E+03  0.17295527358E+03  0.47000000000E+01 0. -1.
         -5    1    3    3    0  501  0.35322744692E+01 -0.62142834259E+01 -0.43590916225E+03  0.43599309858E+03  0.47000000000E+01 0. -1.
          5    1    4    4  502    0 -0.77585738024E+02  0.65165446920E+02 -0.16622343508E+03  0.19472648147E+03  0.47000000000E+01 0. -1.
         -5    1    4    4    0  502 -0.76044872057E+00 -0.36112167153E+02 -0.11737754901E+02  0.38269201571E+02  0.47000000000E+01 0. -1.
<mgrwt>
<rscale>  0 0.34490920E+03</rscale>
<asrwt>0</asrwt>
<pdfrwt beam="1">  1       21 0.56838258E-02 0.34490920E+03</pdfrwt>
<pdfrwt beam="2">  1       21 0.12384603E+00 0.34490920E+03</pdfrwt>
<totfact> 0.10006988E+05</totfact>
</mgrwt>
</event>
<event>
 8    1  0.9569852E-006  0.3714977E+03  0.7546771E-02  0.1054122E+00
         21   -1    0    0  504  503  0.00000000000E+00  0.00000000000E+00  0.52464939694E+03  0.52464939694E+03  0.00000000000E+00 0.  1.
         21   -1    0    0  503  504 -0.00000000000E+00 -0.00000000000E+00 -0.65763217912E+02  0.65763217912E+02  0.00000000000E+00 0.  1.
         25    2    1    2    0    0  0.69388316787E+02  0.11190113081E+03  0.16706027130E+03  0.24672070341E+03  0.12500147865E+03 0.  0.
         25    2    1    2    0    0 -0.69388316787E+02 -0.11190113081E+03  0.29182590773E+03  0.34369191144E+03  0.12500067194E+03 0.  0.
          5    1    3    3  501    0  0.98009375277E+02  0.11212924894E+03  0.15587418920E+03  0.21563315833E+03  0.47000000000E+01 0.  1.
         -5    1    3    3    0  501 -0.28621058490E+02 -0.22811812949E+00  0.11186082098E+02  0.31087545089E+02  0.47000000000E+01 0.  1.
          5    1    4    4  502    0 -0.29938304927E+02 -0.29193049509E+02  0.47940035595E+01  0.42351017835E+02  0.47000000000E+01 0.  1.
         -5    1    4    4    0  502 -0.39450011860E+02 -0.82708081298E+02  0.28703190417E+03  0.30134089360E+03  0.47000000000E+01 0.  1.
<mgrwt>
<rscale>  0 0.37149769E+03</rscale>
<asrwt>0</asrwt>
<pdfrwt beam="1">  1       21 0.80715289E-01 0.37149769E+03</pdfrwt>
<pdfrwt beam="2">  1       21 0.10117418E-01 0.37149769E+03</pdfrwt>
<totfact> 0.10136911E+05</totfact>
</mgrwt>
</event>
<event>
 8    1  0.9569852E-006  0.3236324E+03  0.7546771E-02  0.1073990E+00
         21   -1    0    0  504  503  0.00000000000E+00  0.00000000000E+00  0.60190265059E+02  0.60190265059E+02  0.00000000000E+00 0. -1.
         21   -1    0    0  503  504 -0.00000000000E+00 -0.00000000000E+00 -0.43502853530E+03  0.43502853530E+03  0.00000000000E+00 0. -1.
         25    2    1    2    0    0  0.29859210998E+02  0.65870146296E+02 -0.75721788468E+02  0.16306025355E+03  0.12499763352E+03 0.  0.
         25    2    1    2    0    0 -0.29859210998E+02 -0.65870146296E+02 -0.29911648178E+03  0.33215854681E+03  0.12501272693E+03 0.  0.
          5    1    3    3  501    0 -0.45330549002E+02  0.38514773951E+02 -0.52857331550E+02  0.79713449203E+02  0.47000000000E+01 0. -1.
         -5    1    3    3    0  501  0.75189760000E+02  0.27355372345E+02 -0.22864456918E+02  0.83346804349E+02  0.47000000000E+01 0. -1.
          5    1    4    4  502    0 -0.46013829722E+02  0.24658571630E+01 -0.32944877241E+02  0.56840196284E+02  0.47000000000E+01 0.  1.
         -5    1    4    4    0  502  0.16154618724E+02 -0.68336003459E+02 -0.26617160454E+03  0.27531835053E+03  0.47000000000E+01 0.  1.
<mgrwt>
<rscale>  0 0.32363240E+03</rscale>
<asrwt>0</asrwt>
<pdfrwt beam="1">  1       21 0.92600408E-02 0.32363240E+03</pdfrwt>
<pdfrwt beam="2">  1       21 0.66927467E-01 0.32363240E+03</pdfrwt>
<totfact> 0.18324976E+05</totfact>
</mgrwt>
</event>
<event>
 8    1  0.9569852E-006  0.2832373E+03  0.7546771E-02  0.1093934E+00
         21   -1    0    0  504  503  0.00000000000E+00  0.00000000000E+00  0.96780533260E+03  0.96780533260E+03  0.00000000000E+00 0. -1.
         21   -1    0    0  503  504 -0.00000000000E+00 -0.00000000000E+00 -0.20723007278E+02  0.20723007278E+02  0.00000000000E+00 0. -1.
         25    2    1    2    0    0 -0.55978560832E+02  0.27152617632E+02  0.55615148417E+03  0.57341066862E+03  0.12499783047E+03 0.  0.
         25    2    1    2    0    0  0.55978560832E+02 -0.27152617632E+02  0.39093084114E+03  0.41511767125E+03  0.12499957805E+03 0.  0.
          5    1    3    3  501    0 -0.37945460726E+01  0.43828876563E+02  0.46397772084E+03  0.46608237946E+03  0.47000000000E+01 0. -1.
         -5    1    3    3    0  501 -0.52184014759E+02 -0.16676258931E+02  0.92173763332E+02  0.10732828916E+03  0.47000000000E+01 0. -1.
          5    1    4    4  502    0  0.37036478009E+02 -0.34502426790E+02  0.39097208288E+03  0.39426308190E+03  0.47000000000E+01 0.  1.
         -5    1    4    4    0  502  0.18942082823E+02  0.73498091581E+01 -0.41241733848E-01  0.20854589356E+02  0.47000000000E+01 0.  1.
<mgrwt>
<rscale>  0 0.28323726E+03</rscale>
<asrwt>0</asrwt>
<pdfrwt beam="1">  1       21 0.14889309E+00 0.28323726E+03</pdfrwt>
<pdfrwt beam="2">  1       21 0.31881557E-02 0.28323726E+03</pdfrwt>
<totfact> 0.16854999E+05</totfact>
</mgrwt>
</event>
<event>
 8    1  0.9569852E-006  0.2987075E+03  0.7546771E-02  0.1085888E+00
         21   -1    0    0  504  503  0.00000000000E+00  0.00000000000E+00  0.81521264625E+02  0.81521264625E+02  0.00000000000E+00 0.  1.
         21   -1    0    0  503  504 -0.00000000000E+00 -0.00000000000E+00 -0.27362858023E+03  0.27362858023E+03  0.00000000000E+00 0.  1.
         25    2    1    2    0    0  0.55619269796E+02  0.32578641869E+02 -0.15581995164E+03  0.20990355361E+03  0.12499909363E+03 0.  0.
         25    2    1    2    0    0 -0.55619269796E+02 -0.32578641869E+02 -0.36287363961E+02  0.14524629125E+03  0.12499936503E+03 0.  0.
          5    1    3    3  501    0 -0.13195320901E+02 -0.25860907911E+02 -0.98648906862E+02  0.10293978763E+03  0.47000000000E+01 0.  1.
         -5    1    3    3    0  501  0.68814590697E+02  0.58439549780E+02 -0.57171044779E+02  0.10696376598E+03  0.47000000000E+01 0.  1.
          5    1    4    4  502    0 -0.12646826445E+02  0.40336036176E+02  0.16236680163E+02  0.45526451831E+02  0.47000000000E+01 0. -1.
         -5    1    4    4    0  502 -0.42972443351E+02 -0.72914678046E+02 -0.52524044124E+02  0.99719839416E+02  0.47000000000E+01 0. -1.
<mgrwt>
<rscale>  0 0.29870754E+03</rscale>
<asrwt>0</asrwt>
<pdfrwt beam="1">  1       21 0.12541733E-01 0.29870754E+03</pdfrwt>
<pdfrwt beam="2">  1       21 0.42096704E-01 0.29870754E+03</pdfrwt>
<totfact> 0.28712789E+05</totfact>
</mgrwt>
</event>
<event>
 8    1  0.9569852E-006  0.2505586E+03  0.7546771E-02  0.1112952E+00
         21   -1    0    0  504  503  0.00000000000E+00  0.00000000000E+00  0.60225684400E+02  0.60225684400E+02  0.00000000000E+00 0.  1.
         21   -1    0    0  503  504 -0.00000000000E+00 -0.00000000000E+00 -0.26060147857E+03  0.26060147857E+03  0.00000000000E+00 0.  1.
         25    2    1    2    0    0  0.15758597160E+01 -0.82448721359E+01 -0.99281657413E+02  0.15984748764E+03  0.12499564214E+03 0.  0.
         25    2    1    2    0    0 -0.15758597160E+01  0.82448721359E+01 -0.10109413676E+03  0.16097967533E+03  0.12499588047E+03 0.  0.
          5    1    3    3  501    0  0.16401513373E+02  0.54456608915E+02 -0.27730542184E+02  0.63447654529E+02  0.47000000000E+01 0. -1.
         -5    1    3    3    0  501 -0.14825653657E+02 -0.62701481051E+02 -0.71551115230E+02  0.96399833106E+02  0.47000000000E+01 0. -1.
          5    1    4    4  502    0  0.76397544445E+01  0.46542599689E+02 -0.11047617252E+03  0.12021503287E+03  0.47000000000E+01 0.  1.
         -5    1    4    4    0  502 -0.92156141605E+01 -0.38297727553E+02  0.93820357622E+01  0.40764642463E+02  0.47000000000E+01 0.  1.
<mgrwt>
<rscale>  0 0.25055860E+03</rscale>
<asrwt>0</asrwt>
<pdfrwt beam="1">  1       21 0.92654900E-02 0.25055860E+03</pdfrwt>
<pdfrwt beam="2">  1       21 0.40092535E-01 0.25055860E+03</pdfrwt>
<totfact> 0.55041542E+05</totfact>
</mgrwt>
</event>
<event>
 8    1  0.9569852E-006  0.3008397E+03  0.7546771E-02  0.1084822E+00
         21   -1    0    0  504  503  0.00000000000E+00  0.00000000000E+00  0.80791888900E+01  0.80791888900E+01  0.00000000000E+00 0. -1.
         21   -1    0    0  503  504 -0.00000000000E+00 -0.00000000000E+00 -0.28005449341E+04  0.28005449341E+04  0.00000000000E+00 0. -1.
         25    2    1    2    0    0 -0.17286239050E+02 -0.75032797058E+02 -0.10910477872E+04  0.11008810748E+04  0.12500052827E+03 0.  0.
         25    2    1    2    0    0  0.17286239050E+02  0.75032797058E+02 -0.17014179580E+04  0.17077430482E+04  0.12503805949E+03 0.  0.
          5    1    3    3  501    0 -0.25462304277E+02 -0.10685865064E+03 -0.92783883833E+03  0.93433083009E+03  0.47000000000E+01 0. -1.
         -5    1    3    3    0  501  0.81760652270E+01  0.31825853583E+02 -0.16320894891E+03  0.16655024468E+03  0.47000000000E+01 0. -1.
          5    1    4    4  502    0  0.50949298039E+02  0.76047174659E+01 -0.11519541390E+04  0.11531149514E+04  0.47000000000E+01 0. -1.
         -5    1    4    4    0  502 -0.33663058989E+02  0.67428079592E+02 -0.54946381900E+03  0.55462809688E+03  0.47000000000E+01 0. -1.
<mgrwt>
<rscale>  0 0.30083970E+03</rscale>
<asrwt>0</asrwt>
<pdfrwt beam="1">  1       21 0.12429503E-02 0.30083970E+03</pdfrwt>
<pdfrwt beam="2">  1       21 0.43085371E+00 0.30083970E+03</pdfrwt>
<totfact> 0.13196042E+04</totfact>
</mgrwt>
</event>
<event>
 8    1  0.9569852E-006  0.3190223E+03  0.7546771E-02  0.1076100E+00
         21   -1    0    0  504  503  0.00000000000E+00  0.00000000000E+00  0.79082555495E+03  0.79082555495E+03  0.00000000000E+00 0.  1.
         21   -1    0    0  503  504 -0.00000000000E+00 -0.00000000000E+00 -0.32173734804E+02  0.32173734804E+02  0.00000000000E+00 0.  1.
         25    2    1    2    0    0  0.49933330022E+02  0.36400835378E+02  0.57916989965E+03  0.59571760751E+03  0.12499334769E+03 0.  0.
         25    2    1    2    0    0 -0.49933330022E+02 -0.36400835378E+02  0.17948192049E+03  0.22728168225E+03  0.12499938015E+03 0.  0.
          5    1    3    3  501    0 -0.24263633291E+02  0.24761573151E+02  0.39808633165E+03  0.39962066620E+03  0.47000000000E+01 0. -1.
         -5    1    3    3    0  501  0.74196963313E+02  0.11639262228E+02  0.18108356800E+03  0.19609694131E+03  0.47000000000E+01 0. -1.
          5    1    4    4  502    0 -0.40378652504E+02  0.43013199013E+02  0.71409142904E+02  0.92746571676E+02  0.47000000000E+01 0. -1.
         -5    1    4    4    0  502 -0.95546775184E+01 -0.79414034391E+02  0.10807277759E+03  0.13453511057E+03  0.47000000000E+01 0. -1.
<mgrwt>
<rscale>  0 0.31902233E+03</rscale>
<asrwt>0</asrwt>
<pdfrwt beam="1">  1       21 0.12166546E+00 0.31902233E+03</pdfrwt>
<pdfrwt beam="2">  1       21 0.49498059E-02 0.31902233E+03</pdfrwt>
<totfact> 0.13373975E+05</totfact>
</mgrwt>
</event>
<event>
 8    1  0.9569852E-006  0.3163403E+03  0.7546771E-02  0.1077346E+00
         21   -1    0    0  504  503  0.00000000000E+00  0.00000000000E+00  0.22189985845E+03  0.22189985845E+03  0.00000000000E+00 0.  1.
         21   -1    0    0  503  504 -0.00000000000E+00 -0.00000000000E+00 -0.11274366116E+03  0.11274366116E+03  0.00000000000E+00 0.  1.
         25    2    1    2    0    0  0.19596603841E+02  0.65566569377E+02 -0.18022457077E+02  0.14363911471E+03  0.12499753763E+03 0.  0.
         25    2    1    2    0    0 -0.19596603841E+02 -0.65566569377E+02  0.12717865437E+03  0.19100440489E+03  0.12500108264E+03 0.  0.
          5    1    3    3  501    0  0.82186424427E+01  0.36810851574E+02 -0.71906490259E+02  0.81333991778E+02  0.47000000000E+01 0. -1.
         -5    1    3    3    0  501  0.11377961398E+02  0.28755717803E+02  0.53884033182E+02  0.62305122934E+02  0.47000000000E+01 0. -1.
          5    1    4    4  502    0  0.11342256638E+02  0.59941307716E+01  0.11024168745E+03  0.11108508469E+03  0.47000000000E+01 0.  1.
         -5    1    4    4    0  502 -0.30938860479E+02 -0.71560700148E+02  0.16936966917E+02  0.79919320203E+02  0.47000000000E+01 0.  1.
<mgrwt>
<rscale>  0 0.31634034E+03</rscale>
<asrwt>0</asrwt>
<pdfrwt beam="1">  1       21 0.34138440E-01 0.31634034E+03</pdfrwt>
<pdfrwt beam="2">  1       21 0.17345179E-01 0.31634034E+03</pdfrwt>
<totfact> 0.24115094E+05</totfact>
</mgrwt>
</event>
<event>
 8    1  0.9569852E-006  0.4095305E+03  0.7546771E-02  0.1040529E+00
         21   -1    0    0  504  503  0.00000000000E+00  0.00000000000E+00  0.21822217514E+03  0.21822217514E+03  0.00000000000E+00 0. -1.
         21   -1    0    0  503  504 -0.00000000000E+00 -0.00000000000E+00 -0.19213817222E+03  0.19213817222E+03  0.00000000000E+00 0. -1.
         25    2    1    2    0    0  0.21181208505E+02  0.15485055458E+03  0.56438637974E+02  0.20793831129E+03  0.12500273437E+03 0.  0.
         25    2    1    2    0    0 -0.21181208505E+02 -0.15485055458E+03 -0.30354635058E+02  0.20242203607E+03  0.12500375583E+03 0.  0.
          5    1    3    3  501    0  0.71396576088E+02  0.74236933094E+02  0.14921074687E+02  0.10417927712E+03  0.47000000000E+01 0.  1.
         -5    1    3    3    0  501 -0.50215367583E+02  0.80613621484E+02  0.41517563288E+02  0.10375903417E+03  0.47000000000E+01 0.  1.
          5    1    4    4  502    0  0.76620444846E+01 -0.85628791302E+02  0.44019728912E+02  0.96699655423E+02  0.47000000000E+01 0. -1.
         -5    1    4    4    0  502 -0.28843252990E+02 -0.69221763276E+02 -0.74374363970E+02  0.10572238065E+03  0.47000000000E+01 0. -1.
<mgrwt>
<rscale>  0 0.40953051E+03</rscale>
<asrwt>0</asrwt>
<pdfrwt beam="1">  1       21 0.33572642E-01 0.40953051E+03</pdfrwt>
<pdfrwt beam="2">  1       21 0.29559719E-01 0.40953051E+03</pdfrwt>
<totfact> 0.87961365E+04</totfact>
</mgrwt>
</event>
<event>
 8    1  0.9569852E-006  0.3022963E+03  0.7546771E-02  0.1084098E+00
         21   -1    0    0  504  503  0.00000000000E+00  0.00000000000E+00  0.64445977641E+02  0.64445977641E+02  0.00000000000E+00 0.  1.
         21   -1    0    0  503  504 -0.00000000000E+00 -0.00000000000E+00 -0.35449484987E+03  0.35449484987E+03  0.00000000000E+00 0.  1.
         25    2    1    2    0    0  0.64525567480E+02 -0.32942431714E+02 -0.83481522359E+02  0.16686442621E+03  0.12500327793E+03 0.  0.
         25    2    1    2    0    0 -0.64525567480E+02  0.32942431714E+02 -0.20656734987E+03  0.25207640130E+03  0.12499475747E+03 0.  0.
          5    1    3    3  501    0 -0.98544682837E+01  0.23248393560E+02  0.16151774508E+02  0.30340866303E+02  0.47000000000E+01 0.  1.
         -5    1    3    3    0  501  0.74380035764E+02 -0.56190825273E+02 -0.99633296868E+02  0.13652355991E+03  0.47000000000E+01 0.  1.
          5    1    4    4  502    0  0.17496515403E+02  0.55343938881E+02 -0.69045698989E+02  0.90324294468E+02  0.47000000000E+01 0.  1.
         -5    1    4    4    0  502 -0.82022082883E+02 -0.22401507168E+02 -0.13752165089E+03  0.16175210684E+03  0.47000000000E+01 0.  1.
<mgrwt>
<rscale>  0 0.30229633E+03</rscale>
<asrwt>0</asrwt>
<pdfrwt beam="1">  1       21 0.99147660E-02 0.30229633E+03</pdfrwt>
<pdfrwt beam="2">  1       21 0.54537668E-01 0.30229633E+03</pdfrwt>
<totfact> 0.25448240E+05</totfact>
</mgrwt>
</event>
<event>
 8    1  0.9569852E-006  0.4217043E+03  0.7546771E-02  0.1036513E+00
         21   -1    0    0  504  503  0.00000000000E+00  0.00000000000E+00  0.11238400453E+04  0.11238400453E+04  0.00000000000E+00 0.  1.
         21   -1    0    0  503  504 -0.00000000000E+00 -0.00000000000E+00 -0.39559563073E+02  0.39559563073E+02  0.00000000000E+00 0.  1.
         25    2    1    2    0    0 -0.19454992236E+02  0.16162284184E+03  0.40888567660E+03  0.45750676125E+03  0.12499800131E+03 0.  0.
         25    2    1    2    0    0  0.19454992236E+02 -0.16162284184E+03  0.67539480560E+03  0.70589284710E+03  0.12500451362E+03 0.  0.
          5    1    3    3  501    0  0.48121071186E+02  0.10952859302E+03  0.24418861425E+03  0.27196014324E+03  0.47000000000E+01 0.  1.
         -5    1    3    3    0  501 -0.67576063422E+02  0.52094248827E+02  0.16469706235E+03  0.18554661801E+03  0.47000000000E+01 0.  1.
          5    1    4    4  502    0 -0.33293098189E+02 -0.86592946993E+02  0.49308489634E+03  0.50175848160E+03  0.47000000000E+01 0. -1.
         -5    1    4    4    0  502  0.52748090425E+02 -0.75029894849E+02  0.18230990926E+03  0.20413436551E+03  0.47000000000E+01 0. -1.
<mgrwt>
<rscale>  0 0.42170426E+03</rscale>
<asrwt>0</asrwt>
<pdfrwt beam="1">  1       21 0.17289844E+00 0.42170426E+03</pdfrwt>
<pdfrwt beam="2">  1       21 0.60860875E-02 0.42170426E+03</pdfrwt>
<totfact> 0.35468091E+04</totfact>
</mgrwt>
</event>
<event>
 8    1  0.9569852E-006  0.2700028E+03  0.7546771E-02  0.1101278E+00
         21   -1    0    0  504  503  0.00000000000E+00  0.00000000000E+00  0.99474746056E+02  0.99474746056E+02  0.00000000000E+00 0.  1.
         21   -1    0    0  503  504 -0.00000000000E+00 -0.00000000000E+00 -0.18321613267E+03  0.18321613267E+03  0.00000000000E+00 0.  1.
         25    2    1    2    0    0  0.25738674255E+02 -0.35099865279E+02 -0.14121545922E+02  0.13313525801E+03  0.12502439350E+03 0.  0.
         25    2    1    2    0    0 -0.25738674255E+02  0.35099865279E+02 -0.69619840697E+02  0.14955562072E+03  0.12500192629E+03 0.  0.
          5    1    3    3  501    0 -0.44608772695E+02  0.97891124105E+01  0.81687556943E+01  0.46632476803E+02  0.47000000000E+01 0. -1.
         -5    1    3    3    0  501  0.70347446951E+02 -0.44888977690E+02 -0.22290301616E+02  0.86502781208E+02  0.47000000000E+01 0. -1.
          5    1    4    4  502    0  0.77342873515E+01 -0.43448647848E+02 -0.10530082423E+02  0.45613340554E+02  0.47000000000E+01 0. -1.
         -5    1    4    4    0  502 -0.33472961607E+02  0.78548513127E+02 -0.59089758274E+02  0.10394228017E+03  0.47000000000E+01 0. -1.
<mgrwt>
<rscale>  0 0.27000280E+03</rscale>
<asrwt>0</asrwt>
<pdfrwt beam="1">  1       21 0.15303807E-01 0.27000280E+03</pdfrwt>
<pdfrwt beam="2">  1       21 0.28187098E-01 0.27000280E+03</pdfrwt>
<totfact> 0.44787319E+05</totfact>
</mgrwt>
</event>
<event>
 8    1  0.9569852E-006  0.4512985E+03  0.7546771E-02  0.1027336E+00
         21   -1    0    0  504  503  0.00000000000E+00  0.00000000000E+00  0.39947841196E+02  0.39947841196E+02  0.00000000000E+00 0.  1.
         21   -1    0    0  503  504 -0.00000000000E+00 -0.00000000000E+00 -0.12746016822E+04  0.12746016822E+04  0.00000000000E+00 0.  1.
         25    2    1    2    0    0  0.55227472879E+02  0.10634863576E+03 -0.10387661442E+04  0.10531003283E+04  0.12500037182E+03 0.  0.
         25    2    1    2    0    0 -0.55227472879E+02 -0.10634863576E+03 -0.19588769680E+03  0.26144919513E+03  0.12499434303E+03 0.  0.
          5    1    3    3  501    0  0.42001949288E+02 -0.17600650589E+02 -0.20466865534E+03  0.20972671533E+03  0.47000000000E+01 0.  1.
         -5    1    3    3    0  501  0.13225523591E+02  0.12394928635E+03 -0.83409748890E+03  0.84337361297E+03  0.47000000000E+01 0.  1.
          5    1    4    4  502    0  0.16562664313E+02  0.17803907169E+02 -0.55166958540E+02  0.60471350855E+02  0.47000000000E+01 0. -1.
         -5    1    4    4    0  502 -0.71790137191E+02 -0.12415254293E+03 -0.14072073825E+03  0.20097784427E+03  0.47000000000E+01 0. -1.
<mgrwt>
<rscale>  0 0.45129851E+03</rscale>
<asrwt>0</asrwt>
<pdfrwt beam="1">  1       21 0.61458223E-02 0.45129851E+03</pdfrwt>
<pdfrwt beam="2">  1       21 0.19609255E+00 0.45129851E+03</pdfrwt>
<totfact> 0.23838686E+04</totfact>
</mgrwt>
</event>
<event>
 8    1  0.9569852E-006  0.3708329E+03  0.7546771E-02  0.1054375E+00
         21   -1    0    0  504  503  0.00000000000E+00  0.00000000000E+00  0.18432444207E+03  0.18432444207E+03  0.00000000000E+00 0.  1.
         21   -1    0    0  503  504 -0.00000000000E+00 -0.00000000000E+00 -0.18651491571E+03  0.18651491571E+03  0.00000000000E+00 0.  1.
         25    2    1    2    0    0  0.53625001488E+02  0.53476754733E+02  0.11301767320E+03  0.18475202093E+03  0.12499964280E+03 0.  0.
         25    2    1    2    0    0 -0.53625001488E+02 -0.53476754733E+02 -0.11520814684E+03  0.18608733684E+03  0.12498070153E+03 0.  0.
          5    1    3    3  501    0 -0.38505954077E+02  0.41963877002E+01  0.46937767918E+02  0.61037383841E+02  0.47000000000E+01 0. -1.
         -5    1    3    3    0  501  0.92130955564E+02  0.49280367033E+02  0.66079905283E+02  0.12371463709E+03  0.47000000000E+01 0. -1.
          5    1    4    4  502    0 -0.89419053390E+02 -0.40879117277E+02 -0.49776111818E+02  0.11030240544E+03  0.47000000000E+01 0.  1.
         -5    1    4    4    0  502  0.35794051903E+02 -0.12597637456E+02 -0.65432035018E+02  0.75784931402E+02  0.47000000000E+01 0.  1.
<mgrwt>
<rscale>  0 0.37083289E+03</rscale>
<asrwt>0</asrwt>
<pdfrwt beam="1">  1       21 0.28357607E-01 0.37083289E+03</pdfrwt>
<pdfrwt beam="2">  1       21 0.28694602E-01 0.37083289E+03</pdfrwt>
<totfact> 0.13151120E+05</totfact>
</mgrwt>
</event>
<event>
 8    1  0.9569852E-006  0.2691940E+03  0.7546771E-02  0.1101742E+00
         21   -1    0    0  504  503  0.00000000000E+00  0.00000000000E+00  0.48767431586E+03  0.48767431586E+03  0.00000000000E+00 0.  1.
         21   -1    0    0  503  504 -0.00000000000E+00 -0.00000000000E+00 -0.37148471721E+02  0.37148471721E+02  0.00000000000E+00 0.  1.
         25    2    1    2    0    0  0.40957581381E+02  0.50714501199E+01  0.17047077466E+03  0.21537712862E+03  0.12499511766E+03 0.  0.
         25    2    1    2    0    0 -0.40957581381E+02 -0.50714501199E+01  0.28005506948E+03  0.30944565897E+03  0.12499012295E+03 0.  0.
          5    1    3    3  501    0  0.57372737910E+02  0.25203392908E+02  0.25163444345E+02  0.67691439641E+02  0.47000000000E+01 0.  1.
         -5    1    3    3    0  501 -0.16415156528E+02 -0.20131942788E+02  0.14530733032E+03  0.14768568897E+03  0.47000000000E+01 0.  1.
          5    1    4    4  502    0  0.22697738106E+02  0.44847263853E+02  0.11380822779E+03  0.12450247830E+03  0.47000000000E+01 0. -1.
         -5    1    4    4    0  502 -0.63655319487E+02 -0.49918713973E+02  0.16624684169E+03  0.18494318067E+03  0.47000000000E+01 0. -1.
<mgrwt>
<rscale>  0 0.26919402E+03</rscale>
<asrwt>0</asrwt>
<pdfrwt beam="1">  1       21 0.75026813E-01 0.26919402E+03</pdfrwt>
<pdfrwt beam="2">  1       21 0.57151498E-02 0.26919402E+03</pdfrwt>
<totfact> 0.33396105E+05</totfact>
</mgrwt>
</event>
<event>
 8    1  0.9569852E-006  0.4402650E+03  0.7546771E-02  0.1030666E+00
         21   -1    0    0  504  503  0.00000000000E+00  0.00000000000E+00  0.76459867324E+02  0.76459867324E+02  0.00000000000E+00 0.  1.
         21   -1    0    0  503  504 -0.00000000000E+00 -0.00000000000E+00 -0.63377458619E+03  0.63377458619E+03  0.00000000000E+00 0.  1.
         25    2    1    2    0    0  0.15120815537E+03 -0.89597455632E+02 -0.34966631890E+03  0.41083311009E+03  0.12500279783E+03 0.  0.
         25    2    1    2    0    0 -0.15120815537E+03  0.89597455632E+02 -0.20764839996E+03  0.29940134342E+03  0.12502678166E+03 0.  0.
          5    1    3    3  501    0  0.21022252277E+02 -0.82419902480E+02 -0.13526300258E+03  0.15985351195E+03  0.47000000000E+01 0.  1.
         -5    1    3    3    0  501  0.13018590309E+03 -0.71775531523E+01 -0.21440331633E+03  0.25097959815E+03  0.47000000000E+01 0.  1.
          5    1    4    4  502    0 -0.15990857995E+03  0.42605208110E+02 -0.17738846912E+03  0.24264112734E+03  0.47000000000E+01 0.  1.
         -5    1    4    4    0  502  0.87004245838E+01  0.46992247522E+02 -0.30259930840E+02  0.56760216081E+02  0.47000000000E+01 0.  1.
<mgrwt>
<rscale>  0 0.44026501E+03</rscale>
<asrwt>0</asrwt>
<pdfrwt beam="1">  1       21 0.11763057E-01 0.44026501E+03</pdfrwt>
<pdfrwt beam="2">  1       21 0.97503779E-01 0.44026501E+03</pdfrwt>
<totfact> 0.48691320E+04</totfact>
</mgrwt>
</event>
<event>
 8    1  0.9569852E-006  0.3648785E+03  0.7546771E-02  0.1056669E+00
         21   -1    0    0  504  503  0.00000000000E+00  0.00000000000E+00  0.27204150435E+03  0.27204150435E+03  0.00000000000E+00 0. -1.
         21   -1    0    0  503  504 -0.00000000000E+00 -0.00000000000E+00 -0.12234925917E+03  0.12234925917E+03  0.00000000000E+00 0. -1.
         25    2    1    2    0    0 -0.43096649232E+02  0.98065225858E+02  0.15974463963E+03  0.22939539720E+03  0.12501915320E+03 0.  0.
         25    2    1    2    0    0  0.43096649232E+02 -0.98065225858E+02 -0.10052394446E+02  0.16499536633E+03  0.12509320757E+03 0.  0.
          5    1    3    3  501    0  0.43626270040E+01  0.11094213189E+03  0.85473705809E+02  0.14019641054E+03  0.47000000000E+01 0. -1.
         -5    1    3    3    0  501 -0.47459276236E+02 -0.12876906036E+02  0.74270933820E+02  0.89198986655E+02  0.47000000000E+01 0. -1.
          5    1    4    4  502    0  0.46096175000E+02  0.16217768951E+02  0.59969762751E+01  0.49456315106E+02  0.47000000000E+01 0.  1.
         -5    1    4    4    0  502 -0.29995257688E+01 -0.11428299481E+03 -0.16049370722E+02  0.11553905123E+03  0.47000000000E+01 0.  1.
<mgrwt>
<rscale>  0 0.36487848E+03</rscale>
<asrwt>0</asrwt>
<pdfrwt beam="1">  1       21 0.41852539E-01 0.36487848E+03</pdfrwt>
<pdfrwt beam="2">  1       21 0.18822963E-01 0.36487848E+03</pdfrwt>
<totfact> 0.13541428E+05</totfact>
</mgrwt>
</event>
<event>
 8    1  0.9569852E-006  0.2978945E+03  0.7546771E-02  0.1086298E+00
         21   -1    0    0  504  503  0.00000000000E+00  0.00000000000E+00  0.19457994676E+03  0.19457994676E+03  0.00000000000E+00 0.  1.
         21   -1    0    0  503  504 -0.00000000000E+00 -0.00000000000E+00 -0.11401626112E+03  0.11401626112E+03  0.00000000000E+00 0.  1.
         25    2    1    2    0    0  0.61767725356E+02  0.30439255761E+02 -0.38989457506E+01  0.14276466961E+03  0.12499899569E+03 0.  0.
         25    2    1    2    0    0 -0.61767725356E+02 -0.30439255761E+02  0.84462631384E+02  0.16583153827E+03  0.12499745117E+03 0.  0.
          5    1    3    3  501    0  0.33063867019E+02  0.21472256588E+02 -0.64046396550E+02  0.75354548743E+02  0.47000000000E+01 0. -1.
         -5    1    3    3    0  501  0.28703858338E+02  0.89669991737E+01  0.60147450799E+02  0.67410120867E+02  0.47000000000E+01 0. -1.
          5    1    4    4  502    0 -0.50718671117E+02 -0.93400064014E+01  0.11541159994E+03  0.12649722021E+03  0.47000000000E+01 0.  1.
         -5    1    4    4    0  502 -0.11049054239E+02 -0.21099249360E+02 -0.30948968555E+02  0.39334318067E+02  0.47000000000E+01 0.  1.
<mgrwt>
<rscale>  0 0.29789446E+03</rscale>
<asrwt>0</asrwt>
<pdfrwt beam="1">  1       21 0.29935376E-01 0.29789446E+03</pdfrwt>
<pdfrwt beam="2">  1       21 0.17540963E-01 0.29789446E+03</pdfrwt>
<totfact> 0.30764066E+05</totfact>
</mgrwt>
</event>
<event>
 8    1  0.9569852E-006  0.3622546E+03  0.7546771E-02  0.1057695E+00
         21   -1    0    0  504  503  0.00000000000E+00  0.00000000000E+00  0.18806975815E+02  0.18806975815E+02  0.00000000000E+00 0. -1.
         21   -1    0    0  503  504 -0.00000000000E+00 -0.00000000000E+00 -0.17444111319E+04  0.17444111319E+04  0.00000000000E+00 0. -1.
         25    2    1    2    0    0  0.39647965655E+02  0.30180318248E+02 -0.14527300946E+04  0.14589493388E+04  0.12500253040E+03 0.  0.
         25    2    1    2    0    0 -0.39647965655E+02 -0.30180318248E+02 -0.27287406148E+03  0.30426876892E+03  0.12504566175E+03 0.  0.
          5    1    3    3  501    0  0.46989521716E+02  0.71331874903E+02 -0.11680164764E+04  0.11711450938E+04  0.47000000000E+01 0.  1.
         -5    1    3    3    0  501 -0.73415560611E+01 -0.41151556655E+02 -0.28471361819E+03  0.28780424501E+03  0.47000000000E+01 0.  1.
          5    1    4    4  502    0 -0.40395734348E+02 -0.36510357706E+02 -0.32136212236E+02  0.63400691717E+02  0.47000000000E+01 0.  1.
         -5    1    4    4    0  502  0.74776869266E+00  0.63300394574E+01 -0.24073784924E+03  0.24086807720E+03  0.47000000000E+01 0.  1.
<mgrwt>
<rscale>  0 0.36225460E+03</rscale>
<asrwt>0</asrwt>
<pdfrwt beam="1">  1       21 0.28933814E-02 0.36225460E+03</pdfrwt>
<pdfrwt beam="2">  1       21 0.26837089E+00 0.36225460E+03</pdfrwt>
<totfact> 0.31373896E+04</totfact>
</mgrwt>
</event>
<event>
 8    1  0.9569852E-006  0.2645186E+03  0.7546771E-02  0.1104458E+00
         21   -1    0    0  504  503  0.00000000000E+00  0.00000000000E+00  0.20534115411E+03  0.20534115411E+03  0.00000000000E+00 0. -1.
         21   -1    0    0  503  504 -0.00000000000E+00 -0.00000000000E+00 -0.85187615445E+02  0.85187615445E+02  0.00000000000E+00 0. -1.
         25    2    1    2    0    0 -0.95352190857E+01  0.35435610449E+02  0.34986683304E+02  0.13488533341E+03  0.12499352891E+03 0.  0.
         25    2    1    2    0    0  0.95352190857E+01 -0.35435610449E+02  0.85166855361E+02  0.15564343615E+03  0.12499953229E+03 0.  0.
          5    1    3    3  501    0 -0.45846508298E+01 -0.24233268474E+02  0.63587590602E+02  0.68364771650E+02  0.47000000000E+01 0.  1.
         -5    1    3    3    0  501 -0.49505682558E+01  0.59668878924E+02 -0.28600907298E+02  0.66520561756E+02  0.47000000000E+01 0.  1.
          5    1    4    4  502    0  0.11918397961E+02 -0.81635052785E+02  0.44415987096E+02  0.93814710802E+02  0.47000000000E+01 0. -1.
         -5    1    4    4    0  502 -0.23831788756E+01  0.46199442336E+02  0.40750868265E+02  0.61828725347E+02  0.47000000000E+01 0. -1.
<mgrwt>
<rscale>  0 0.26451861E+03</rscale>
<asrwt>0</asrwt>
<pdfrwt beam="1">  1       21 0.31590947E-01 0.26451861E+03</pdfrwt>
<pdfrwt beam="2">  1       21 0.13105787E-01 0.26451861E+03</pdfrwt>
<totfact> 0.47572450E+05</totfact>
</mgrwt>
</event>
<event>
 8    1  0.9569852E-006  0.2719290E+03  0.7546771E-02  0.1100181E+00
         21   -1    0    0  504  503  0.00000000000E+00  0.00000000000E+00  0.16920564187E+03  0.16920564187E+03  0.00000000000E+00 0. -1.
         21   -1    0    0  503  504 -0.00000000000E+00 -0.00000000000E+00 -0.10925375614E+03  0.10925375614E+03  0.00000000000E+00 0. -1.
         25    2    1    2    0    0  0.43217604845E+02  0.16153126818E+02  0.23352074774E+01  0.13329162015E+03  0.12503006812E+03 0.  0.
         25    2    1    2    0    0 -0.43217604845E+02 -0.16153126818E+02  0.57616678252E+02  0.14516777786E+03  0.12500126895E+03 0.  0.
          5    1    3    3  501    0  0.63687867698E+02  0.51010312131E+02  0.26549321527E+02  0.85936912379E+02  0.47000000000E+01 0.  1.
         -5    1    3    3    0  501 -0.20470262854E+02 -0.34857185313E+02 -0.24214114050E+02  0.47354707775E+02  0.47000000000E+01 0.  1.
          5    1    4    4  502    0 -0.41621704624E+02  0.21763662696E+02 -0.25518683788E+02  0.53659263246E+02  0.47000000000E+01 0. -1.
         -5    1    4    4    0  502 -0.15959002201E+01 -0.37916789514E+02  0.83135362040E+02  0.91508514610E+02  0.47000000000E+01 0. -1.
<mgrwt>
<rscale>  0 0.27192905E+03</rscale>
<asrwt>0</asrwt>
<pdfrwt beam="1">  1       21 0.26031637E-01 0.27192905E+03</pdfrwt>
<pdfrwt beam="2">  1       21 0.16808270E-01 0.27192905E+03</pdfrwt>
<totfact> 0.43948433E+05</totfact>
</mgrwt>
</event>
<event>
 8    1  0.9569852E-006  0.4894058E+03  0.7546771E-02  0.1016582E+00
         21   -1    0    0  504  503  0.00000000000E+00  0.00000000000E+00  0.43687262602E+02  0.43687262602E+02  0.00000000000E+00 0. -1.
         21   -1    0    0  503  504 -0.00000000000E+00 -0.00000000000E+00 -0.13706401080E+04  0.13706401080E+04  0.00000000000E+00 0. -1.
         25    2    1    2    0    0  0.44656565826E+02  0.17370099506E+03 -0.34582183301E+03  0.40913654273E+03  0.12503489854E+03 0.  0.
         25    2    1    2    0    0 -0.44656565826E+02 -0.17370099506E+03 -0.98113101243E+03  0.10051908279E+04  0.12499716964E+03 0.  0.
          5    1    3    3  501    0  0.98332277169E+01  0.76702578199E+02 -0.27056306313E+03  0.28143638535E+03  0.47000000000E+01 0. -1.
         -5    1    3    3    0  501  0.34823338109E+02  0.96998416861E+02 -0.75258769889E+02  0.12770015738E+03  0.47000000000E+01 0. -1.
          5    1    4    4  502    0 -0.13510619328E+02 -0.10624301442E+03 -0.27516417456E+03  0.29530920729E+03  0.47000000000E+01 0.  1.
         -5    1    4    4    0  502 -0.31145946498E+02 -0.67457980644E+02 -0.70596683787E+03  0.70988162063E+03  0.47000000000E+01 0.  1.
<mgrwt>
<rscale>  0 0.48940582E+03</rscale>
<asrwt>0</asrwt>
<pdfrwt beam="1">  1       21 0.67211187E-02 0.48940582E+03</pdfrwt>
<pdfrwt beam="2">  1       21 0.21086766E+00 0.48940582E+03</pdfrwt>
<totfact> 0.16071574E+04</totfact>
</mgrwt>
</event>
<event>
 8    1  0.9569852E-006  0.3746053E+03  0.7546771E-02  0.1052946E+00
         21   -1    0    0  504  503  0.00000000000E+00  0.00000000000E+00  0.72697867468E+02  0.72697867468E+02  0.00000000000E+00 0.  1.
         21   -1    0    0  503  504 -0.00000000000E+00 -0.00000000000E+00 -0.48257650815E+03  0.48257650815E+03  0.00000000000E+00 0.  1.
         25    2    1    2    0    0  0.42177651440E+02  0.13215913682E+03 -0.18353378754E+03  0.26182936635E+03  0.12499989676E+03 0.  0.
         25    2    1    2    0    0 -0.42177651440E+02 -0.13215913682E+03 -0.22634485315E+03  0.29344500927E+03  0.12503195268E+03 0.  0.
          5    1    3    3  501    0  0.70716126793E+00  0.38450828552E+02 -0.14843597069E+03  0.15340891007E+03  0.47000000000E+01 0.  1.
         -5    1    3    3    0  501  0.41470490172E+02  0.93708308268E+02 -0.35097816846E+02  0.10842045628E+03  0.47000000000E+01 0.  1.
          5    1    4    4  502    0 -0.82529359459E+02 -0.77542650436E+02 -0.17364114806E+03  0.20735789377E+03  0.47000000000E+01 0. -1.
         -5    1    4    4    0  502  0.40351708019E+02 -0.54616486384E+02 -0.52703705092E+02  0.86087115501E+02  0.47000000000E+01 0. -1.
<mgrwt>
<rscale>  0 0.37460530E+03</rscale>
<asrwt>0</asrwt>
<pdfrwt beam="1">  1       21 0.11184287E-01 0.37460530E+03</pdfrwt>
<pdfrwt beam="2">  1       21 0.74242541E-01 0.37460530E+03</pdfrwt>
<totfact> 0.10237180E+05</totfact>
</mgrwt>
</event>
<event>
 8    1  0.9569852E-006  0.3189651E+03  0.7546771E-02  0.1076127E+00
         21   -1    0    0  504  503  0.00000000000E+00  0.00000000000E+00  0.36577020143E+03  0.36577020143E+03  0.00000000000E+00 0.  1.
         21   -1    0    0  503  504 -0.00000000000E+00 -0.00000000000E+00 -0.69537314958E+02  0.69537314958E+02  0.00000000000E+00 0.  1.
         25    2    1    2    0    0 -0.67528614740E+02 -0.65687648669E+02  0.18984388588E+03  0.24605078040E+03  0.12500121812E+03 0.  0.
         25    2    1    2    0    0  0.67528614740E+02  0.65687648669E+02  0.10638900059E+03  0.18925673599E+03  0.12499804668E+03 0.  0.
          5    1    3    3  501    0 -0.29519662484E+02 -0.31367059334E+01  0.16633840287E+03  0.16903196049E+03  0.47000000000E+01 0. -1.
         -5    1    3    3    0  501 -0.38008952256E+02 -0.62550942736E+02  0.23505483014E+02  0.77018819911E+02  0.47000000000E+01 0. -1.
          5    1    4    4  502    0  0.13551043855E+01  0.57714137545E+02 -0.62843716872E+01  0.58260975858E+02  0.47000000000E+01 0.  1.
         -5    1    4    4    0  502  0.66173510354E+02  0.79735111245E+01  0.11267337228E+03  0.13099576013E+03  0.47000000000E+01 0.  1.
<mgrwt>
<rscale>  0 0.31896506E+03</rscale>
<asrwt>0</asrwt>
<pdfrwt beam="1">  1       21 0.56272337E-01 0.31896506E+03</pdfrwt>
<pdfrwt beam="2">  1       21 0.10698049E-01 0.31896506E+03</pdfrwt>
<totfact> 0.20697343E+05</totfact>
</mgrwt>
</event>
<event>
 8    1  0.9569852E-006  0.2807202E+03  0.7546771E-02  0.1095296E+00
         21   -1    0    0  504  503  0.00000000000E+00  0.00000000000E+00  0.19697695842E+02  0.19697695842E+02  0.00000000000E+00 0.  1.
         21   -1    0    0  503  504 -0.00000000000E+00 -0.00000000000E+00 -0.10001657085E+04  0.10001657085E+04  0.00000000000E+00 0.  1.
         25    2    1    2    0    0 -0.48053001125E+02  0.31012564460E+02 -0.59327778252E+03  0.60899469642E+03  0.12500057188E+03 0.  0.
         25    2    1    2    0    0  0.48053001125E+02 -0.31012564460E+02 -0.38719023018E+03  0.41086870796E+03  0.12500380299E+03 0.  0.
          5    1    3    3  501    0  0.37590075304E+01 -0.33209262649E+02 -0.55901882720E+02  0.65300044065E+02  0.47000000000E+01 0.  1.
         -5    1    3    3    0  501 -0.51812008656E+02  0.64221827109E+02 -0.53737589980E+03  0.54369465236E+03  0.47000000000E+01 0.  1.
          5    1    4    4  502    0 -0.16756384684E+02  0.37931942836E+02 -0.14221337590E+03  0.14821046859E+03  0.47000000000E+01 0. -1.
         -5    1    4    4    0  502  0.64809385809E+02 -0.68944507296E+02 -0.24497685428E+03  0.26265823937E+03  0.47000000000E+01 0. -1.
<mgrwt>
<rscale>  0 0.28072022E+03</rscale>
<asrwt>0</asrwt>
<pdfrwt beam="1">  1       21 0.30304148E-02 0.28072022E+03</pdfrwt>
<pdfrwt beam="2">  1       21 0.15387165E+00 0.28072022E+03</pdfrwt>
<totfact> 0.16813244E+05</totfact>
</mgrwt>
</event>
<event>
 8    1  0.9569852E-006  0.3112723E+03  0.7546771E-02  0.1079738E+00
         21   -1    0    0  504  503  0.00000000000E+00  0.00000000000E+00  0.14884870443E+02  0.14884870443E+02  0.00000000000E+00 0. -1.
         21   -1    0    0  503  504 -0.00000000000E+00 -0.00000000000E+00 -0.16273314644E+04  0.16273314644E+04  0.00000000000E+00 0. -1.
         25    2    1    2    0    0 -0.57528501508E+02  0.66327644682E+02 -0.96346605150E+03  0.97550009380E+03  0.12499886274E+03 0.  0.
         25    2    1    2    0    0  0.57528501508E+02 -0.66327644682E+02 -0.64898054249E+03  0.66671624107E+03  0.12500366652E+03 0.  0.
          5    1    3    3  501    0  0.11068230342E+02  0.21289235726E+02 -0.31303665978E+02  0.39720860821E+02  0.47000000000E+01 0.  1.
         -5    1    3    3    0  501 -0.68596731850E+02  0.45038408957E+02 -0.93216238552E+03  0.93577923298E+03  0.47000000000E+01 0.  1.
          5    1    4    4  502    0  0.31227069483E+02 -0.40844066762E+02 -0.61297139505E+03  0.61514176318E+03  0.47000000000E+01 0. -1.
         -5    1    4    4    0  502  0.26301432026E+02 -0.25483577921E+02 -0.36009147433E+02  0.51574477885E+02  0.47000000000E+01 0. -1.
<mgrwt>
<rscale>  0 0.31127234E+03</rscale>
<asrwt>0</asrwt>
<pdfrwt beam="1">  1       21 0.22899792E-02 0.31127234E+03</pdfrwt>
<pdfrwt beam="2">  1       21 0.25035878E+00 0.31127234E+03</pdfrwt>
<totfact> 0.60823740E+04</totfact>
</mgrwt>
</event>
<event>
 8    1  0.9569852E-006  0.3595986E+03  0.7546771E-02  0.1058743E+00
         21   -1    0    0  504  503  0.00000000000E+00  0.00000000000E+00  0.10848136086E+04  0.10848136086E+04  0.00000000000E+00 0. -1.
         21   -1    0    0  503  504 -0.00000000000E+00 -0.00000000000E+00 -0.29800322949E+02  0.29800322949E+02  0.00000000000E+00 0. -1.
         25    2    1    2    0    0  0.17679719689E+02 -0.51130100007E+02  0.16370403239E+03  0.21295782503E+03  0.12500066163E+03 0.  0.
         25    2    1    2    0    0 -0.17679719689E+02  0.51130100007E+02  0.89130925327E+03  0.90165610652E+03  0.12499875940E+03 0.  0.
          5    1    3    3  501    0  0.55453029229E+02 -0.71096066345E+02  0.89048045869E+02  0.12681219805E+03  0.47000000000E+01 0. -1.
         -5    1    3    3    0  501 -0.37773309540E+02  0.19965966338E+02  0.74655986517E+02  0.86145626983E+02  0.47000000000E+01 0. -1.
          5    1    4    4  502    0  0.20394754888E+02  0.66755298299E+02  0.77572508991E+03  0.77887336647E+03  0.47000000000E+01 0. -1.
         -5    1    4    4    0  502 -0.38074474576E+02 -0.15625198292E+02  0.11558416336E+03  0.12278274005E+03  0.47000000000E+01 0. -1.
<mgrwt>
<rscale>  0 0.35959864E+03</rscale>
<asrwt>0</asrwt>
<pdfrwt beam="1">  1       21 0.16689437E+00 0.35959864E+03</pdfrwt>
<pdfrwt beam="2">  1       21 0.45846659E-02 0.35959864E+03</pdfrwt>
<totfact> 0.65149825E+04</totfact>
</mgrwt>
</event>
<event>
 8    1  0.9569852E-006  0.2577593E+03  0.7546771E-02  0.1108497E+00
         21   -1    0    0  504  503  0.00000000000E+00  0.00000000000E+00  0.40770977762E+03  0.40770977762E+03  0.00000000000E+00 0.  1.
         21   -1    0    0  503  504 -0.00000000000E+00 -0.00000000000E+00 -0.40739690403E+02  0.40739690403E+02  0.00000000000E+00 0.  1.
         25    2    1    2    0    0 -0.26551586870E+01 -0.29225578691E+02  0.20281307703E+03  0.24004222243E+03  0.12500376001E+03 0.  0.
         25    2    1    2    0    0  0.26551586870E+01  0.29225578691E+02  0.16415701019E+03  0.20840724559E+03  0.12499948682E+03 0.  0.
          5    1    3    3  501    0  0.85737031990E+01  0.60477932485E+01 -0.15088144979E+02  0.18969088240E+02  0.47000000000E+01 0.  1.
         -5    1    3    3    0  501 -0.11228861886E+02 -0.35273371939E+02  0.21790122201E+03  0.22107313419E+03  0.47000000000E+01 0.  1.
          5    1    4    4  502    0 -0.22741069613E+02 -0.26238556893E+02  0.20043760134E+01  0.35095949028E+02  0.47000000000E+01 0.  1.
         -5    1    4    4    0  502  0.25396228300E+02  0.55464135584E+02  0.16215263417E+03  0.17331129657E+03  0.47000000000E+01 0.  1.
<mgrwt>
<rscale>  0 0.25775935E+03</rscale>
<asrwt>0</asrwt>
<pdfrwt beam="1">  1       21 0.62724578E-01 0.25775935E+03</pdfrwt>
<pdfrwt beam="2">  1       21 0.62676449E-02 0.25775935E+03</pdfrwt>
<totfact> 0.42459124E+05</totfact>
</mgrwt>
</event>
<event>
 8    1  0.9569852E-006  0.3070797E+03  0.7546771E-02  0.1081754E+00
         21   -1    0    0  504  503  0.00000000000E+00  0.00000000000E+00  0.10043914561E+03  0.10043914561E+03  0.00000000000E+00 0. -1.
         21   -1    0    0  503  504 -0.00000000000E+00 -0.00000000000E+00 -0.23471407799E+03  0.23471407799E+03  0.00000000000E+00 0. -1.
         25    2    1    2    0    0 -0.32052141402E+02  0.65304701334E+02 -0.12333361851E+03  0.19011170936E+03  0.12505693422E+03 0.  0.
         25    2    1    2    0    0  0.32052141402E+02 -0.65304701334E+02 -0.10941313865E+02  0.14504151424E+03  0.12500113887E+03 0.  0.
          5    1    3    3  501    0 -0.30885146625E+01  0.38567152110E+01 -0.12180959973E+03  0.12200033509E+03  0.47000000000E+01 0.  1.
         -5    1    3    3    0  501 -0.28963626739E+02  0.61447986123E+02 -0.15240187855E+01  0.68111374276E+02  0.47000000000E+01 0.  1.
          5    1    4    4  502    0  0.76751655129E+02 -0.29291914081E+02 -0.24534206403E+02  0.85865301953E+02  0.47000000000E+01 0. -1.
         -5    1    4    4    0  502 -0.44699513727E+02 -0.36012787253E+02  0.13592892538E+02  0.59176212288E+02  0.47000000000E+01 0. -1.
<mgrwt>
<rscale>  0 0.30707967E+03</rscale>
<asrwt>0</asrwt>
<pdfrwt beam="1">  1       21 0.15452176E-01 0.30707967E+03</pdfrwt>
<pdfrwt beam="2">  1       21 0.36109858E-01 0.30707967E+03</pdfrwt>
<totfact> 0.26741050E+05</totfact>
</mgrwt>
</event>
<event>
 8    1  0.9569852E-006  0.2711941E+03  0.7546771E-02  0.1100598E+00
         21   -1    0    0  504  503  0.00000000000E+00  0.00000000000E+00  0.76611947660E+03  0.76611947660E+03  0.00000000000E+00 0.  1.
         21   -1    0    0  503  504 -0.00000000000E+00 -0.00000000000E+00 -0.23999596339E+02  0.23999596339E+02  0.00000000000E+00 0.  1.
         25    2    1    2    0    0  0.24803793274E+02  0.57321516947E+01  0.23709112623E+03  0.26922832385E+03  0.12499440988E+03 0.  0.
         25    2    1    2    0    0 -0.24803793274E+02 -0.57321516947E+01  0.50502875403E+03  0.52089074908E+03  0.12500017746E+03 0.  0.
          5    1    3    3  501    0  0.91543254923E+01  0.52232704881E+02  0.41439345672E+02  0.67463816258E+02  0.47000000000E+01 0.  1.
         -5    1    3    3    0  501  0.15649467782E+02 -0.46500553186E+02  0.19565178056E+03  0.20176450759E+03  0.47000000000E+01 0.  1.
          5    1    4    4  502    0 -0.33189082942E+02 -0.16611940763E+02  0.50498883531E+03  0.50637267461E+03  0.47000000000E+01 0.  1.
         -5    1    4    4    0  502  0.83852896681E+01  0.10879789068E+02  0.39918716097E-01  0.14518074476E+02  0.47000000000E+01 0.  1.
<mgrwt>
<rscale>  0 0.27119409E+03</rscale>
<asrwt>0</asrwt>
<pdfrwt beam="1">  1       21 0.11786452E+00 0.27119409E+03</pdfrwt>
<pdfrwt beam="2">  1       21 0.36922462E-02 0.27119409E+03</pdfrwt>
<totfact> 0.24132571E+05</totfact>
</mgrwt>
</event>
<event>
 8    1  0.9569852E-006  0.3052890E+03  0.7546771E-02  0.1082626E+00
         21   -1    0    0  504  503  0.00000000000E+00  0.00000000000E+00  0.11553634550E+04  0.11553634550E+04  0.00000000000E+00 0. -1.
         21   -1    0    0  503  504 -0.00000000000E+00 -0.00000000000E+00 -0.20167107469E+02  0.20167107469E+02  0.00000000000E+00 0. -1.
         25    2    1    2    0    0 -0.56562253309E+02 -0.49184172090E+02  0.39296413126E+03  0.41912359895E+03  0.12500164584E+03 0.  0.
         25    2    1    2    0    0  0.56562253309E+02  0.49184172090E+02  0.74223221625E+03  0.75640696349E+03  0.12499784116E+03 0.  0.
          5    1    3    3  501    0 -0.16863588499E+02  0.55326405875E+01 -0.19267973216E+01  0.18460587121E+02  0.47000000000E+01 0.  1.
         -5    1    3    3    0  501 -0.39698664810E+02 -0.54716812678E+02  0.39489092858E+03  0.40066301183E+03  0.47000000000E+01 0.  1.
          5    1    4    4  502    0 -0.15272705760E+02 -0.28102368843E+02  0.88964823496E+02  0.94656370602E+02  0.47000000000E+01 0. -1.
         -5    1    4    4    0  502  0.71834959069E+02  0.77286540933E+02  0.65326739276E+03  0.66175059289E+03  0.47000000000E+01 0. -1.
<mgrwt>
<rscale>  0 0.30528897E+03</rscale>
<asrwt>0</asrwt>
<pdfrwt beam="1">  1       21 0.17774817E+00 0.30528897E+03</pdfrwt>
<pdfrwt beam="2">  1       21 0.31026328E-02 0.30528897E+03</pdfrwt>
<totfact> 0.10742370E+05</totfact>
</mgrwt>
</event>
<event>
 8    1  0.9569852E-006  0.3841974E+03  0.7546771E-02  0.1049393E+00
         21   -1    0    0  504  503  0.00000000000E+00  0.00000000000E+00  0.28422557012E+03  0.28422557012E+03  0.00000000000E+00 0. -1.
         21   -1    0    0  503  504 -0.00000000000E+00 -0.00000000000E+00 -0.12983316078E+03  0.12983316078E+03  0.00000000000E+00 0. -1.
         25    2    1    2    0    0  0.35681082140E+02 -0.12373735854E+03  0.33409371871E+01  0.17950005711E+03  0.12500014048E+03 0.  0.
         25    2    1    2    0    0 -0.35681082140E+02  0.12373735854E+03  0.15105147215E+03  0.23455867379E+03  0.12496859883E+03 0.  0.
          5    1    3    3  501    0 -0.40180345404E+02 -0.51234411535E+02  0.28903627786E+02  0.71392820236E+02  0.47000000000E+01 0.  1.
         -5    1    3    3    0  501  0.75861427544E+02 -0.72502947006E+02 -0.25562690599E+02  0.10810723687E+03  0.47000000000E+01 0.  1.
          5    1    4    4  502    0  0.11980753757E+02  0.75636363805E+00  0.86836046317E+02  0.87787809441E+02  0.47000000000E+01 0.  1.
         -5    1    4    4    0  502 -0.47661835897E+02  0.12298099490E+03  0.64215425830E+02  0.14677086435E+03  0.47000000000E+01 0.  1.
<mgrwt>
<rscale>  0 0.38419737E+03</rscale>
<asrwt>0</asrwt>
<pdfrwt beam="1">  1       21 0.43727010E-01 0.38419737E+03</pdfrwt>
<pdfrwt beam="2">  1       21 0.19974333E-01 0.38419737E+03</pdfrwt>
<totfact> 0.11008670E+05</totfact>
</mgrwt>
</event>
<event>
 8    1  0.9569852E-006  0.2673098E+03  0.7546771E-02  0.1102829E+00
         21   -1    0    0  504  503  0.00000000000E+00  0.00000000000E+00  0.30855114315E+02  0.30855114315E+02  0.00000000000E+00 0. -1.
         21   -1    0    0  503  504 -0.00000000000E+00 -0.00000000000E+00 -0.57895199381E+03  0.57895199381E+03  0.00000000000E+00 0. -1.
         25    2    1    2    0    0  0.74387641574E+01  0.34555053944E+02 -0.20227192981E+03  0.24039188645E+03  0.12499975406E+03 0.  0.
         25    2    1    2    0    0 -0.74387641574E+01 -0.34555053944E+02 -0.34582494968E+03  0.36941522168E+03  0.12499329270E+03 0.  0.
          5    1    3    3  501    0 -0.14234941827E+02  0.39494952332E+02 -0.21164039068E+03  0.21581526776E+03  0.47000000000E+01 0.  1.
         -5    1    3    3    0  501  0.21673705984E+02 -0.49398983879E+01  0.93684608705E+01  0.24576618690E+02  0.47000000000E+01 0.  1.
          5    1    4    4  502    0 -0.37153513838E+02  0.34503190324E+02 -0.98646967514E+02  0.11101426905E+03  0.47000000000E+01 0.  1.
         -5    1    4    4    0  502  0.29714749681E+02 -0.69058244268E+02 -0.24717798217E+03  0.25840095263E+03  0.47000000000E+01 0.  1.
<mgrwt>
<rscale>  0 0.26730978E+03</rscale>
<asrwt>0</asrwt>
<pdfrwt beam="1">  1       21 0.47469409E-02 0.26730978E+03</pdfrwt>
<pdfrwt beam="2">  1       21 0.89069532E-01 0.26730978E+03</pdfrwt>
<totfact> 0.30983750E+05</totfact>
</mgrwt>
</event>
<event>
 8    1  0.9569852E-006  0.3950962E+03  0.7546771E-02  0.1045491E+00
         21   -1    0    0  504  503  0.00000000000E+00  0.00000000000E+00  0.13093520369E+04  0.13093520369E+04  0.00000000000E+00 0.  1.
         21   -1    0    0  503  504 -0.00000000000E+00 -0.00000000000E+00 -0.29805011045E+02  0.29805011045E+02  0.00000000000E+00 0.  1.
         25    2    1    2    0    0 -0.15107590147E+02  0.15219422033E+03  0.65072983795E+03  0.68004633405E+03  0.12498949748E+03 0.  0.
         25    2    1    2    0    0  0.15107590147E+02 -0.15219422033E+03  0.62881718793E+03  0.65911071392E+03  0.12499822951E+03 0.  0.
          5    1    3    3  501    0 -0.58991059342E+02  0.11688260050E+03  0.54073074881E+03  0.55637516128E+03  0.47000000000E+01 0. -1.
         -5    1    3    3    0  501  0.43883469195E+02  0.35311619827E+02  0.10999908914E+03  0.12367117277E+03  0.47000000000E+01 0. -1.
          5    1    4    4  502    0 -0.11786330521E-01 -0.16847249878E+03  0.59475010345E+03  0.61816887542E+03  0.47000000000E+01 0.  1.
         -5    1    4    4    0  502  0.15119376478E+02  0.16278278454E+02  0.34067084488E+02  0.40941838503E+02  0.47000000000E+01 0.  1.
<mgrwt>
<rscale>  0 0.39509620E+03</rscale>
<asrwt>0</asrwt>
<pdfrwt beam="1">  1       21 0.20143873E+00 0.39509620E+03</pdfrwt>
<pdfrwt beam="2">  1       21 0.45853873E-02 0.39509620E+03</pdfrwt>
<totfact> 0.37109452E+04</totfact>
</mgrwt>
</event>
<event>
 8    1  0.9569852E-006  0.3989964E+03  0.7546771E-02  0.1044128E+00
         21   -1    0    0  504  503  0.00000000000E+00  0.00000000000E+00  0.98381507843E+03  0.98381507843E+03  0.00000000000E+00 0.  1.
         21   -1    0    0  503  504 -0.00000000000E+00 -0.00000000000E+00 -0.40454290369E+02  0.40454290369E+02  0.00000000000E+00 0.  1.
         25    2    1    2    0    0 -0.66873839913E+02  0.13525358399E+03  0.37535227669E+03  0.42341774341E+03  0.12501044502E+03 0.  0.
         25    2    1    2    0    0  0.66873839913E+02 -0.13525358399E+03  0.56800851136E+03  0.60085162539E+03  0.12499345704E+03 0.  0.
          5    1    3    3  501    0 -0.73820969540E+02  0.16744729609E+02  0.12309175464E+03  0.14458074413E+03  0.47000000000E+01 0. -1.
         -5    1    3    3    0  501  0.69471296272E+01  0.11850885438E+03  0.25226052205E+03  0.27883699927E+03  0.47000000000E+01 0. -1.
          5    1    4    4  502    0  0.24852946028E+02 -0.96077770938E+02  0.15682102606E+03  0.18564355957E+03  0.47000000000E+01 0. -1.
         -5    1    4    4    0  502  0.42020893885E+02 -0.39175813055E+02  0.41118748531E+03  0.41520806582E+03  0.47000000000E+01 0. -1.
<mgrwt>
<rscale>  0 0.39899645E+03</rscale>
<asrwt>0</asrwt>
<pdfrwt beam="1">  1       21 0.15135615E+00 0.39899645E+03</pdfrwt>
<pdfrwt beam="2">  1       21 0.62237377E-02 0.39899645E+03</pdfrwt>
<totfact> 0.49754078E+04</totfact>
</mgrwt>
</event>
<event>
 8    1  0.9569852E-006  0.4770836E+03  0.7546771E-02  0.1019940E+00
         21   -1    0    0  504  503  0.00000000000E+00  0.00000000000E+00  0.56635140050E+02  0.56635140050E+02  0.00000000000E+00 0. -1.
         21   -1    0    0  503  504 -0.00000000000E+00 -0.00000000000E+00 -0.10047151989E+04  0.10047151989E+04  0.00000000000E+00 0. -1.
         25    2    1    2    0    0 -0.14708982440E+03 -0.23877634578E+02 -0.16681856075E+03  0.25624182431E+03  0.12500352971E+03 0.  0.
         25    2    1    2    0    0  0.14708982440E+03  0.23877634578E+02 -0.78126149814E+03  0.80510851468E+03  0.12499853622E+03 0.  0.
          5    1    3    3  501    0 -0.60258896131E+02 -0.27843732026E+02  0.16999125736E+01  0.66568668898E+02  0.47000000000E+01 0. -1.
         -5    1    3    3    0  501 -0.86830928271E+02  0.39660974479E+01 -0.16851847332E+03  0.18967315541E+03  0.47000000000E+01 0. -1.
          5    1    4    4  502    0 -0.13951245419E+02  0.18120836367E+02 -0.38278816778E+02  0.44837035733E+02  0.47000000000E+01 0. -1.
         -5    1    4    4    0  502  0.16104106982E+03  0.57567982111E+01 -0.74298268137E+03  0.76027147895E+03  0.47000000000E+01 0. -1.
<mgrwt>
<rscale>  0 0.47708358E+03</rscale>
<asrwt>0</asrwt>
<pdfrwt beam="1">  1       21 0.87130987E-02 0.47708358E+03</pdfrwt>
<pdfrwt beam="2">  1       21 0.15457156E+00 0.47708358E+03</pdfrwt>
<totfact> 0.25408889E+04</totfact>
</mgrwt>
</event>
<event>
 8    1  0.9569852E-006  0.3052066E+03  0.7546771E-02  0.1082666E+00
         21   -1    0    0  504  503  0.00000000000E+00  0.00000000000E+00  0.43060328721E+02  0.43060328721E+02  0.00000000000E+00 0. -1.
         21   -1    0    0  503  504 -0.00000000000E+00 -0.00000000000E+00 -0.54081705700E+03  0.54081705700E+03  0.00000000000E+00 0. -1.
         25    2    1    2    0    0 -0.43247745847E+02  0.49689400936E+02 -0.35914781276E+03  0.38594449908E+03  0.12500640333E+03 0.  0.
         25    2    1    2    0    0  0.43247745847E+02 -0.49689400936E+02 -0.13860891552E+03  0.19793288664E+03  0.12500236824E+03 0.  0.
          5    1    3    3  501    0 -0.73629213578E+02  0.13936271983E+02 -0.30517216613E+03  0.31427316422E+03  0.47000000000E+01 0. -1.
         -5    1    3    3    0  501  0.30381467731E+02  0.35753128953E+02 -0.53975646631E+02  0.71671334860E+02  0.47000000000E+01 0. -1.
          5    1    4    4  502    0  0.58934453471E+02 -0.69258590529E+02 -0.46287697266E+02  0.10215019866E+03  0.47000000000E+01 0. -1.
         -5    1    4    4    0  502 -0.15686707623E+02  0.19569189593E+02 -0.92321218250E+02  0.95782687979E+02  0.47000000000E+01 0. -1.
<mgrwt>
<rscale>  0 0.30520655E+03</rscale>
<asrwt>0</asrwt>
<pdfrwt beam="1">  1       21 0.66246662E-02 0.30520655E+03</pdfrwt>
<pdfrwt beam="2">  1       21 0.83202621E-01 0.30520655E+03</pdfrwt>
<totfact> 0.20270777E+05</totfact>
</mgrwt>
</event>
<event>
 8    1  0.9569852E-006  0.4499882E+03  0.7546771E-02  0.1027726E+00
         21   -1    0    0  504  503  0.00000000000E+00  0.00000000000E+00  0.14234027197E+03  0.14234027197E+03  0.00000000000E+00 0.  1.
         21   -1    0    0  503  504 -0.00000000000E+00 -0.00000000000E+00 -0.35564316504E+03  0.35564316504E+03  0.00000000000E+00 0.  1.
         25    2    1    2    0    0 -0.79611037055E+02  0.74890233283E+02 -0.27467192868E+03  0.32096090922E+03  0.12499909032E+03 0.  0.
         25    2    1    2    0    0  0.79611037055E+02 -0.74890233283E+02  0.61369035609E+02  0.17702252779E+03  0.12499741017E+03 0.  0.
          5    1    3    3  501    0 -0.44485341976E+02 -0.22751252286E+02 -0.15278631248E+03  0.16081763714E+03  0.47000000000E+01 0. -1.
         -5    1    3    3    0  501 -0.35125695079E+02  0.97641485569E+02 -0.12188561619E+03  0.16014327208E+03  0.47000000000E+01 0. -1.
          5    1    4    4  502    0  0.97199755456E+02 -0.96540820359E+02  0.56752066029E+02  0.14836040393E+03  0.47000000000E+01 0. -1.
         -5    1    4    4    0  502 -0.17588718401E+02  0.21650587076E+02  0.46169695801E+01  0.28662123854E+02  0.47000000000E+01 0. -1.
<mgrwt>
<rscale>  0 0.44998820E+03</rscale>
<asrwt>0</asrwt>
<pdfrwt beam="1">  1       21 0.21898504E-01 0.44998820E+03</pdfrwt>
<pdfrwt beam="2">  1       21 0.54714332E-01 0.44998820E+03</pdfrwt>
<totfact> 0.56671533E+04</totfact>
</mgrwt>
</event>
<event>
 8    1  0.9569852E-006  0.2630359E+03  0.7546771E-02  0.1105333E+00
         21   -1    0    0  504  503  0.00000000000E+00  0.00000000000E+00  0.14394544876E+03  0.14394544876E+03  0.00000000000E+00 0. -1.
         21   -1    0    0  503  504 -0.00000000000E+00 -0.00000000000E+00 -0.12016340957E+03  0.12016340957E+03  0.00000000000E+00 0. -1.
         25    2    1    2    0    0  0.23334528162E+02 -0.22759153918E+02  0.36721339759E+02  0.13428942752E+03  0.12499085669E+03 0.  0.
         25    2    1    2    0    0 -0.23334528162E+02  0.22759153918E+02 -0.12939300571E+02  0.12981943081E+03  0.12499271909E+03 0.  0.
          5    1    3    3  501    0 -0.40704980500E+02  0.13139197124E+02  0.42522072378E+02  0.60495872403E+02  0.47000000000E+01 0. -1.
         -5    1    3    3    0  501  0.64039508661E+02 -0.35898351042E+02 -0.58007326188E+01  0.73793555112E+02  0.47000000000E+01 0. -1.
          5    1    4    4  502    0  0.42654099060E+01 -0.47499613493E+02 -0.23638512036E+02  0.53434785065E+02  0.47000000000E+01 0. -1.
         -5    1    4    4    0  502 -0.27599938068E+02  0.70258767411E+02  0.10699211465E+02  0.76384645744E+02  0.47000000000E+01 0. -1.
<mgrwt>
<rscale>  0 0.26303594E+03</rscale>
<asrwt>0</asrwt>
<pdfrwt beam="1">  1       21 0.22145454E-01 0.26303594E+03</pdfrwt>
<pdfrwt beam="2">  1       21 0.18486678E-01 0.26303594E+03</pdfrwt>
<totfact> 0.50267330E+05</totfact>
</mgrwt>
</event>
<event>
 8    1  0.9569852E-006  0.3743484E+03  0.7546771E-02  0.1053043E+00
         21   -1    0    0  504  503  0.00000000000E+00  0.00000000000E+00  0.52169613643E+03  0.52169613643E+03  0.00000000000E+00 0. -1.
         21   -1    0    0  503  504 -0.00000000000E+00 -0.00000000000E+00 -0.67154367923E+02  0.67154367923E+02  0.00000000000E+00 0. -1.
         25    2    1    2    0    0  0.64460308024E+02  0.85041926438E+02  0.86370463751E+02  0.18566103413E+03  0.12499160781E+03 0.  0.
         25    2    1    2    0    0 -0.64460308024E+02 -0.85041926438E+02  0.36817130475E+03  0.40318947022E+03  0.12499751474E+03 0.  0.
          5    1    3    3  501    0 -0.13022980072E+02  0.49829506120E+02  0.86080455610E+02  0.10042167360E+03  0.47000000000E+01 0. -1.
         -5    1    3    3    0  501  0.77483288097E+02  0.35212420318E+02  0.29000814152E+00  0.85239360531E+02  0.47000000000E+01 0. -1.
          5    1    4    4  502    0  0.18677335368E+02 -0.29664390550E+02  0.19348112217E+02  0.40314493293E+02  0.47000000000E+01 0.  1.
         -5    1    4    4    0  502 -0.83137643392E+02 -0.55377535889E+02  0.34882319254E+03  0.36287497693E+03  0.47000000000E+01 0.  1.
<mgrwt>
<rscale>  0 0.37434836E+03</rscale>
<asrwt>0</asrwt>
<pdfrwt beam="1">  1       21 0.80260941E-01 0.37434836E+03</pdfrwt>
<pdfrwt beam="2">  1       21 0.10331442E-01 0.37434836E+03</pdfrwt>
<totfact> 0.98842997E+04</totfact>
</mgrwt>
</event>
<event>
 8    1  0.9569852E-006  0.7242467E+03  0.7546771E-02  0.9676643E-01
         21   -1    0    0  504  503  0.00000000000E+00  0.00000000000E+00  0.28159289034E+03  0.28159289034E+03  0.00000000000E+00 0.  1.
         21   -1    0    0  503  504 -0.00000000000E+00 -0.00000000000E+00 -0.46568409791E+03  0.46568409791E+03  0.00000000000E+00 0.  1.
         25    2    1    2    0    0 -0.10812387284E+03  0.23970913540E+03 -0.31419672641E+03  0.42836278734E+03  0.12499541278E+03 0.  0.
         25    2    1    2    0    0  0.10812387284E+03 -0.23970913540E+03  0.13010551884E+03  0.31891420090E+03  0.12501031971E+03 0.  0.
          5    1    3    3  501    0 -0.16604462977E+02 -0.12771152743E+02 -0.34079458928E+02  0.40277910248E+02  0.47000000000E+01 0.  1.
         -5    1    3    3    0  501 -0.91519409860E+02  0.25248028815E+03 -0.28011726749E+03  0.38808487709E+03  0.47000000000E+01 0.  1.
          5    1    4    4  502    0  0.51070042147E+02 -0.97815347074E+01  0.38523267921E+02  0.64884202988E+02  0.47000000000E+01 0.  1.
         -5    1    4    4    0  502  0.57053830690E+02 -0.22992760069E+03  0.91582250920E+02  0.25402999792E+03  0.47000000000E+01 0.  1.
<mgrwt>
<rscale>  0 0.72424673E+03</rscale>
<asrwt>0</asrwt>
<pdfrwt beam="1">  1       21 0.43321984E-01 0.72424673E+03</pdfrwt>
<pdfrwt beam="2">  1       21 0.71643707E-01 0.72424673E+03</pdfrwt>
<totfact> 0.75070555E+03</totfact>
</mgrwt>
</event>
<event>
 8    1  0.9569852E-006  0.2723935E+03  0.7546771E-02  0.1099918E+00
         21   -1    0    0  504  503  0.00000000000E+00  0.00000000000E+00  0.47452071448E+02  0.47452071448E+02  0.00000000000E+00 0. -1.
         21   -1    0    0  503  504 -0.00000000000E+00 -0.00000000000E+00 -0.39091135962E+03  0.39091135962E+03  0.00000000000E+00 0. -1.
         25    2    1    2    0    0  0.24263276535E+02  0.42852465204E+02 -0.13593205350E+03  0.19112241974E+03  0.12500086319E+03 0.  0.
         25    2    1    2    0    0 -0.24263276535E+02 -0.42852465204E+02 -0.20752723468E+03  0.24724101133E+03  0.12504208967E+03 0.  0.
          5    1    3    3  501    0  0.71361867165E+01  0.77929845328E+02 -0.41218143465E+02  0.88572068421E+02  0.47000000000E+01 0. -1.
         -5    1    3    3    0  501  0.17127089818E+02 -0.35077380124E+02 -0.94713910034E+02  0.10255035132E+03  0.47000000000E+01 0. -1.
          5    1    4    4  502    0 -0.75377073339E+01  0.43682540470E+02 -0.52711662067E+02  0.69033257866E+02  0.47000000000E+01 0. -1.
         -5    1    4    4    0  502 -0.16725569201E+02 -0.86535005673E+02 -0.15481557261E+03  0.17820775346E+03  0.47000000000E+01 0. -1.
<mgrwt>
<rscale>  0 0.27239349E+03</rscale>
<asrwt>0</asrwt>
<pdfrwt beam="1">  1       21 0.73003184E-02 0.27239349E+03</pdfrwt>
<pdfrwt beam="2">  1       21 0.60140211E-01 0.27239349E+03</pdfrwt>
<totfact> 0.35596279E+05</totfact>
</mgrwt>
</event>
<event>
 8    1  0.9569852E-006  0.4236211E+03  0.7546771E-02  0.1035894E+00
         21   -1    0    0  504  503  0.00000000000E+00  0.00000000000E+00  0.17931778067E+03  0.17931778067E+03  0.00000000000E+00 0. -1.
         21   -1    0    0  503  504 -0.00000000000E+00 -0.00000000000E+00 -0.25019111659E+03  0.25019111659E+03  0.00000000000E+00 0. -1.
         25    2    1    2    0    0  0.42995822360E+02 -0.14906270178E+03  0.37472027616E+02  0.20272360384E+03  0.12499750756E+03 0.  0.
         25    2    1    2    0    0 -0.42995822360E+02  0.14906270178E+03 -0.10834536354E+03  0.22678529343E+03  0.12499808683E+03 0.  0.
          5    1    3    3  501    0 -0.17107040522E+02 -0.65114345149E+02 -0.35452760167E+02  0.76233306258E+02  0.47000000000E+01 0. -1.
         -5    1    3    3    0  501  0.60102862882E+02 -0.83948356633E+02  0.72924787783E+02  0.12649029758E+03  0.47000000000E+01 0. -1.
          5    1    4    4  502    0 -0.42504633230E+02  0.16481023887E+03 -0.11851454299E+03  0.20745323710E+03  0.47000000000E+01 0. -1.
         -5    1    4    4    0  502 -0.49118913011E+00 -0.15747537090E+02  0.10169179449E+02  0.19332056327E+02  0.47000000000E+01 0. -1.
<mgrwt>
<rscale>  0 0.42362113E+03</rscale>
<asrwt>0</asrwt>
<pdfrwt beam="1">  1       21 0.27587351E-01 0.42362113E+03</pdfrwt>
<pdfrwt beam="2">  1       21 0.38490941E-01 0.42362113E+03</pdfrwt>
<totfact> 0.76175127E+04</totfact>
</mgrwt>
</event>
<event>
 8    1  0.9569852E-006  0.2584686E+03  0.7546771E-02  0.1108067E+00
         21   -1    0    0  504  503  0.00000000000E+00  0.00000000000E+00  0.64508782381E+03  0.64508782381E+03  0.00000000000E+00 0. -1.
         21   -1    0    0  503  504 -0.00000000000E+00 -0.00000000000E+00 -0.25890284513E+02  0.25890284513E+02  0.00000000000E+00 0. -1.
         25    2    1    2    0    0 -0.10316008212E+01  0.31075880540E+02  0.28218921979E+03  0.31020234193E+03  0.12501184993E+03 0.  0.
         25    2    1    2    0    0  0.10316008212E+01 -0.31075880540E+02  0.33700831951E+03  0.36077576640E+03  0.12497108324E+03 0.  0.
          5    1    3    3  501    0  0.21826888481E+01 -0.21181555528E+02  0.24462083762E+03  0.24559085207E+03  0.47000000000E+01 0. -1.
         -5    1    3    3    0  501 -0.32142896694E+01  0.52257436068E+02  0.37568382171E+02  0.64611489856E+02  0.47000000000E+01 0. -1.
          5    1    4    4  502    0  0.29539220396E+02  0.61870601818E+01  0.12735461344E+02  0.33092706612E+02  0.47000000000E+01 0.  1.
         -5    1    4    4    0  502 -0.28507619575E+02 -0.37262940722E+02  0.32427285817E+03  0.32768305979E+03  0.47000000000E+01 0.  1.
<mgrwt>
<rscale>  0 0.25846862E+03</rscale>
<asrwt>0</asrwt>
<pdfrwt beam="1">  1       21 0.99244268E-01 0.25846862E+03</pdfrwt>
<pdfrwt beam="2">  1       21 0.39831212E-02 0.25846862E+03</pdfrwt>
<totfact> 0.32393574E+05</totfact>
</mgrwt>
</event>
<event>
 8    1  0.9569852E-006  0.2939643E+03  0.7546771E-02  0.1088297E+00
         21   -1    0    0  504  503  0.00000000000E+00  0.00000000000E+00  0.35422191042E+02  0.35422191042E+02  0.00000000000E+00 0. -1.
         21   -1    0    0  503  504 -0.00000000000E+00 -0.00000000000E+00 -0.60989308351E+03  0.60989308351E+03  0.00000000000E+00 0. -1.
         25    2    1    2    0    0  0.19867393350E+02  0.30751189605E+02 -0.43678072462E+03  0.45578748588E+03  0.12499792760E+03 0.  0.
         25    2    1    2    0    0 -0.19867393350E+02 -0.30751189605E+02 -0.13769016785E+03  0.18952778868E+03  0.12498740488E+03 0.  0.
          5    1    3    3  501    0  0.66665574710E+02  0.17244834455E+02 -0.34438674264E+03  0.35123496647E+03  0.47000000000E+01 0. -1.
         -5    1    3    3    0  501 -0.46798181360E+02  0.13506355150E+02 -0.92393981982E+02  0.10455251941E+03  0.47000000000E+01 0. -1.
          5    1    4    4  502    0  0.28489704787E+00 -0.46679374359E+02  0.24453958252E+01  0.46979943781E+02  0.47000000000E+01 0. -1.
         -5    1    4    4    0  502 -0.20152290398E+02  0.15928184754E+02 -0.14013556368E+03  0.14254784490E+03  0.47000000000E+01 0. -1.
<mgrwt>
<rscale>  0 0.29396428E+03</rscale>
<asrwt>0</asrwt>
<pdfrwt beam="1">  1       21 0.54495680E-02 0.29396428E+03</pdfrwt>
<pdfrwt beam="2">  1       21 0.93829703E-01 0.29396428E+03</pdfrwt>
<totfact> 0.21515198E+05</totfact>
</mgrwt>
</event>
<event>
 8    1  0.9569852E-006  0.3133004E+03  0.7546771E-02  0.1078775E+00
         21   -1    0    0  504  503  0.00000000000E+00  0.00000000000E+00  0.33233436206E+03  0.33233436206E+03  0.00000000000E+00 0. -1.
         21   -1    0    0  503  504 -0.00000000000E+00 -0.00000000000E+00 -0.73839147430E+02  0.73839147430E+02  0.00000000000E+00 0. -1.
         25    2    1    2    0    0 -0.87745575374E+02 -0.89046494626E+01  0.17293356099E+03  0.23088992997E+03  0.12500225784E+03 0.  0.
         25    2    1    2    0    0  0.87745575374E+02  0.89046494626E+01  0.85561653637E+02  0.17528357952E+03  0.12499983158E+03 0.  0.
          5    1    3    3  501    0 -0.49622256328E+02 -0.21091106246E+02  0.82794983611E+00  0.54129276613E+02  0.47000000000E+01 0.  1.
         -5    1    3    3    0  501 -0.38123319046E+02  0.12186456784E+02  0.17210561116E+03  0.17676065336E+03  0.47000000000E+01 0.  1.
          5    1    4    4  502    0  0.38192566299E+02  0.53016637395E+02  0.86820356186E+02  0.10876258644E+03  0.47000000000E+01 0.  1.
         -5    1    4    4    0  502  0.49553009075E+02 -0.44111987932E+02 -0.12587025491E+01  0.66520993076E+02  0.47000000000E+01 0.  1.
<mgrwt>
<rscale>  0 0.31330041E+03</rscale>
<asrwt>0</asrwt>
<pdfrwt beam="1">  1       21 0.51128363E-01 0.31330041E+03</pdfrwt>
<pdfrwt beam="2">  1       21 0.11359869E-01 0.31330041E+03</pdfrwt>
<totfact> 0.22822660E+05</totfact>
</mgrwt>
</event>
<event>
 8    1  0.9569852E-006  0.5789012E+03  0.7546771E-02  0.9950173E-01
         21   -1    0    0  504  503  0.00000000000E+00  0.00000000000E+00  0.30513891367E+03  0.30513891367E+03  0.00000000000E+00 0. -1.
         21   -1    0    0  503  504 -0.00000000000E+00 -0.00000000000E+00 -0.27456889508E+03  0.27456889508E+03  0.00000000000E+00 0. -1.
         25    2    1    2    0    0  0.22619185173E+03  0.89030443673E+02 -0.80116936783E+02  0.28483842375E+03  0.12500012158E+03 0.  0.
         25    2    1    2    0    0 -0.22619185173E+03 -0.89030443673E+02  0.11068695537E+03  0.29486938501E+03  0.12492869340E+03 0.  0.
          5    1    3    3  501    0  0.18678441330E+02  0.18135342051E+02 -0.58785113377E+02  0.64463589386E+02  0.47000000000E+01 0.  1.
         -5    1    3    3    0  501  0.20751341040E+03  0.70895101622E+02 -0.21331823407E+02  0.22037483436E+03  0.47000000000E+01 0.  1.
          5    1    4    4  502    0 -0.10506661561E+03 -0.99693823580E+02  0.92279179258E+02  0.17180043394E+03  0.47000000000E+01 0.  1.
         -5    1    4    4    0  502 -0.12112523612E+03  0.10663379907E+02  0.18407776112E+02  0.12306895107E+03  0.47000000000E+01 0.  1.
<mgrwt>
<rscale>  0 0.57890122E+03</rscale>
<asrwt>0</asrwt>
<pdfrwt beam="1">  1       21 0.46944448E-01 0.57890122E+03</pdfrwt>
<pdfrwt beam="2">  1       21 0.42241369E-01 0.57890122E+03</pdfrwt>
<totfact> 0.20611889E+04</totfact>
</mgrwt>
</event>
<event>
 8    1  0.9569852E-006  0.3959724E+03  0.7546771E-02  0.1045183E+00
         21   -1    0    0  504  503  0.00000000000E+00  0.00000000000E+00  0.96558359513E+02  0.96558359513E+02  0.00000000000E+00 0.  1.
         21   -1    0    0  503  504 -0.00000000000E+00 -0.00000000000E+00 -0.40595692697E+03  0.40595692697E+03  0.00000000000E+00 0.  1.
         25    2    1    2    0    0  0.28498358775E+02  0.10116190791E+03 -0.12652975620E+02  0.16380267970E+03  0.12500132807E+03 0.  0.
         25    2    1    2    0    0 -0.28498358775E+02 -0.10116190791E+03 -0.29674559184E+03  0.33871260679E+03  0.12498958219E+03 0.  0.
          5    1    3    3  501    0 -0.27261091782E+02 -0.55495182512E+01 -0.31004214311E+02  0.41920348078E+02  0.47000000000E+01 0.  1.
         -5    1    3    3    0  501  0.55759450556E+02  0.10671142616E+03  0.18351238691E+02  0.12188233162E+03  0.47000000000E+01 0.  1.
          5    1    4    4  502    0  0.11031483952E+02 -0.98294910600E+02 -0.27703235171E+03  0.29419822736E+03  0.47000000000E+01 0. -1.
         -5    1    4    4    0  502 -0.39529842727E+02 -0.28669973072E+01 -0.19713240132E+02  0.44514379430E+02  0.47000000000E+01 0. -1.
<mgrwt>
<rscale>  0 0.39597240E+03</rscale>
<asrwt>0</asrwt>
<pdfrwt beam="1">  1       21 0.14855132E-01 0.39597240E+03</pdfrwt>
<pdfrwt beam="2">  1       21 0.62454913E-01 0.39597240E+03</pdfrwt>
<totfact> 0.89240934E+04</totfact>
</mgrwt>
</event>
<event>
 8    1  0.9569852E-006  0.2890186E+03  0.7546771E-02  0.1090863E+00
         21   -1    0    0  504  503  0.00000000000E+00  0.00000000000E+00  0.10093061353E+03  0.10093061353E+03  0.00000000000E+00 0. -1.
         21   -1    0    0  503  504 -0.00000000000E+00 -0.00000000000E+00 -0.20690386308E+03  0.20690386308E+03  0.00000000000E+00 0. -1.
         25    2    1    2    0    0 -0.23438900037E+02 -0.38127743019E+02  0.77512675952E+01  0.13301800924E+03  0.12502240523E+03 0.  0.
         25    2    1    2    0    0  0.23438900037E+02  0.38127743019E+02 -0.11372451714E+03  0.17481646737E+03  0.12499769854E+03 0.  0.
          5    1    3    3  501    0  0.30214893017E+02  0.17220498564E+02  0.36479290059E+02  0.50619303966E+02  0.47000000000E+01 0.  1.
         -5    1    3    3    0  501 -0.53653793054E+02 -0.55348241583E+02 -0.28728022464E+02  0.82398705269E+02  0.47000000000E+01 0.  1.
          5    1    4    4  502    0 -0.56517988078E+01 -0.53739692453E+01 -0.12137800332E+03  0.12171907026E+03  0.47000000000E+01 0.  1.
         -5    1    4    4    0  502  0.29090698844E+02  0.43501712264E+02  0.76534861750E+01  0.53097397109E+02  0.47000000000E+01 0.  1.
<mgrwt>
<rscale>  0 0.28901857E+03</rscale>
<asrwt>0</asrwt>
<pdfrwt beam="1">  1       21 0.15527787E-01 0.28901857E+03</pdfrwt>
<pdfrwt beam="2">  1       21 0.31831363E-01 0.28901857E+03</pdfrwt>
<totfact> 0.34214761E+05</totfact>
</mgrwt>
</event>
<event>
 8    1  0.9569852E-006  0.2826218E+03  0.7546771E-02  0.1094266E+00
         21   -1    0    0  504  503  0.00000000000E+00  0.00000000000E+00  0.86370793344E+02  0.86370793344E+02  0.00000000000E+00 0. -1.
         21   -1    0    0  503  504 -0.00000000000E+00 -0.00000000000E+00 -0.23119814005E+03  0.23119814005E+03  0.00000000000E+00 0. -1.
         25    2    1    2    0    0 -0.11696737165E+02  0.19820968297E+02 -0.30174882211E+01  0.12713744762E+03  0.12500056363E+03 0.  0.
         25    2    1    2    0    0  0.11696737165E+02 -0.19820968297E+02 -0.14180985849E+03  0.19043148578E+03  0.12499772145E+03 0.  0.
          5    1    3    3  501    0  0.16846859598E+02  0.36477013315E+02 -0.53220514090E+02  0.66849848906E+02  0.47000000000E+01 0.  1.
         -5    1    3    3    0  501 -0.28543596763E+02 -0.16656045019E+02  0.50203025869E+02  0.60287598710E+02  0.47000000000E+01 0.  1.
          5    1    4    4  502    0  0.52090297455E+02 -0.37676829891E+02 -0.31970049504E+02  0.71952183184E+02  0.47000000000E+01 0.  1.
         -5    1    4    4    0  502 -0.40393560290E+02  0.17855861595E+02 -0.10983980898E+03  0.11847930260E+03  0.47000000000E+01 0.  1.
<mgrwt>
<rscale>  0 0.28262177E+03</rscale>
<asrwt>0</asrwt>
<pdfrwt beam="1">  1       21 0.13287815E-01 0.28262177E+03</pdfrwt>
<pdfrwt beam="2">  1       21 0.35568944E-01 0.28262177E+03</pdfrwt>
<totfact> 0.36515998E+05</totfact>
</mgrwt>
</event>
<event>
 8    1  0.9569852E-006  0.3088935E+03  0.7546771E-02  0.1080877E+00
         21   -1    0    0  504  503  0.00000000000E+00  0.00000000000E+00  0.94541628549E+02  0.94541628549E+02  0.00000000000E+00 0. -1.
         21   -1    0    0  503  504 -0.00000000000E+00 -0.00000000000E+00 -0.25230997422E+03  0.25230997422E+03  0.00000000000E+00 0. -1.
         25    2    1    2    0    0  0.37506455903E+02 -0.66142051636E+02 -0.23299918652E+02  0.14812945657E+03  0.12497177468E+03 0.  0.
         25    2    1    2    0    0 -0.37506455903E+02  0.66142051636E+02 -0.13446842702E+03  0.19872214619E+03  0.12500891286E+03 0.  0.
          5    1    3    3  501    0  0.58347606865E+02 -0.31532820696E+02 -0.62781358962E+02  0.91445891330E+02  0.47000000000E+01 0.  1.
         -5    1    3    3    0  501 -0.20841150962E+02 -0.34609230940E+02  0.39481440310E+02  0.56683565243E+02  0.47000000000E+01 0.  1.
          5    1    4    4  502    0  0.19944367278E+02 -0.18374067149E+02  0.26458137318E+01  0.27649131271E+02  0.47000000000E+01 0.  1.
         -5    1    4    4    0  502 -0.57450823181E+02  0.84516118785E+02 -0.13711424075E+03  0.17107301492E+03  0.47000000000E+01 0.  1.
<mgrwt>
<rscale>  0 0.30889348E+03</rscale>
<asrwt>0</asrwt>
<pdfrwt beam="1">  1       21 0.14544866E-01 0.30889348E+03</pdfrwt>
<pdfrwt beam="2">  1       21 0.38816919E-01 0.30889348E+03</pdfrwt>
<totfact> 0.25813041E+05</totfact>
</mgrwt>
</event>
<event>
 8    1  0.9569852E-006  0.3500676E+03  0.7546771E-02  0.1062587E+00
         21   -1    0    0  504  503  0.00000000000E+00  0.00000000000E+00  0.77686469630E+03  0.77686469630E+03  0.00000000000E+00 0.  1.
         21   -1    0    0  503  504 -0.00000000000E+00 -0.00000000000E+00 -0.39436507536E+02  0.39436507536E+02  0.00000000000E+00 0.  1.
         25    2    1    2    0    0  0.48497153521E+02 -0.16716533668E+02  0.62812592015E+03  0.64249369090E+03  0.12499821954E+03 0.  0.
         25    2    1    2    0    0 -0.48497153521E+02  0.16716533668E+02  0.10930226861E+03  0.17380751293E+03  0.12502259488E+03 0.  0.
          5    1    3    3  501    0  0.89773113104E+02 -0.20448100884E+02  0.39052347856E+03  0.40125803913E+03  0.47000000000E+01 0.  1.
         -5    1    3    3    0  501 -0.41275959583E+02  0.37315672160E+01  0.23760244159E+03  0.24123565177E+03  0.47000000000E+01 0.  1.
          5    1    4    4  502    0 -0.15625734578E+02 -0.42522617133E+02  0.49760960522E+00  0.45548591243E+02  0.47000000000E+01 0. -1.
         -5    1    4    4    0  502 -0.32871418943E+02  0.59239150801E+02  0.10880465901E+03  0.12825892169E+03  0.47000000000E+01 0. -1.
<mgrwt>
<rscale>  0 0.35006760E+03</rscale>
<asrwt>0</asrwt>
<pdfrwt beam="1">  1       21 0.11951763E+00 0.35006760E+03</pdfrwt>
<pdfrwt beam="2">  1       21 0.60671556E-02 0.35006760E+03</pdfrwt>
<totfact> 0.97682898E+04</totfact>
</mgrwt>
</event>
<event>
 8    1  0.9569852E-006  0.4372882E+03  0.7546771E-02  0.1031582E+00
         21   -1    0    0  504  503  0.00000000000E+00  0.00000000000E+00  0.32506481461E+03  0.32506481461E+03  0.00000000000E+00 0. -1.
         21   -1    0    0  503  504 -0.00000000000E+00 -0.00000000000E+00 -0.14706369857E+03  0.14706369857E+03  0.00000000000E+00 0. -1.
         25    2    1    2    0    0 -0.50450734120E+02 -0.24719934755E+02 -0.94934302399E+02  0.16672037236E+03  0.12500723595E+03 0.  0.
         25    2    1    2    0    0  0.50450734120E+02  0.24719934755E+02  0.27293541844E+03  0.30540814082E+03  0.12499615230E+03 0.  0.
          5    1    3    3  501    0 -0.35210146583E+02 -0.54235872884E+02  0.12577257232E+01  0.64845633654E+02  0.47000000000E+01 0.  1.
         -5    1    3    3    0  501 -0.15240587536E+02  0.29515938129E+02 -0.96192028122E+02  0.10187473871E+03  0.47000000000E+01 0.  1.
          5    1    4    4  502    0  0.89306608968E+02  0.26535798533E+02  0.22449903511E+03  0.24310846504E+03  0.47000000000E+01 0.  1.
         -5    1    4    4    0  502 -0.38855874849E+02 -0.18158637780E+01  0.48436383330E+02  0.62299675774E+02  0.47000000000E+01 0.  1.
<mgrwt>
<rscale>  0 0.43728816E+03</rscale>
<asrwt>0</asrwt>
<pdfrwt beam="1">  1       21 0.50009971E-01 0.43728816E+03</pdfrwt>
<pdfrwt beam="2">  1       21 0.22625184E-01 0.43728816E+03</pdfrwt>
<totfact> 0.64695695E+04</totfact>
</mgrwt>
</event>
<event>
 8    1  0.9569852E-006  0.2842580E+03  0.7546771E-02  0.1093386E+00
         21   -1    0    0  504  503  0.00000000000E+00  0.00000000000E+00  0.22652980501E+03  0.22652980501E+03  0.00000000000E+00 0.  1.
         21   -1    0    0  503  504 -0.00000000000E+00 -0.00000000000E+00 -0.89174388184E+02  0.89174388184E+02  0.00000000000E+00 0.  1.
         25    2    1    2    0    0  0.62815672285E+02 -0.85295614427E+01  0.94839594968E+02  0.16922966291E+03  0.12500227170E+03 0.  0.
         25    2    1    2    0    0 -0.62815672285E+02  0.85295614427E+01  0.42515821856E+02  0.14647453028E+03  0.12501452240E+03 0.  0.
          5    1    3    3  501    0  0.61685177485E+02 -0.53743700977E+02  0.24609242111E+02  0.85563726621E+02  0.47000000000E+01 0.  1.
         -5    1    3    3    0  501  0.11304948007E+01  0.45214139535E+02  0.70230352857E+02  0.83665936287E+02  0.47000000000E+01 0.  1.
          5    1    4    4  502    0 -0.80454126578E+02 -0.54706116432E+01  0.72596616223E+02  0.10860549140E+03  0.47000000000E+01 0. -1.
         -5    1    4    4    0  502  0.17638454292E+02  0.14000173086E+02 -0.30080794367E+02  0.37869038884E+02  0.47000000000E+01 0. -1.
<mgrwt>
<rscale>  0 0.28425803E+03</rscale>
<asrwt>0</asrwt>
<pdfrwt beam="1">  1       21 0.34850739E-01 0.28425803E+03</pdfrwt>
<pdfrwt beam="2">  1       21 0.13719137E-01 0.28425803E+03</pdfrwt>
<totfact> 0.35878319E+05</totfact>
</mgrwt>
</event>
<event>
 8    1  0.9569852E-006  0.3167989E+03  0.7546771E-02  0.1077132E+00
         21   -1    0    0  504  503  0.00000000000E+00  0.00000000000E+00  0.95994222150E+03  0.95994222150E+03  0.00000000000E+00 0. -1.
         21   -1    0    0  503  504 -0.00000000000E+00 -0.00000000000E+00 -0.26137392858E+02  0.26137392858E+02  0.00000000000E+00 0. -1.
         25    2    1    2    0    0  0.39778138917E+02 -0.18975120688E+02  0.19691597763E+03  0.23736468020E+03  0.12499493437E+03 0.  0.
         25    2    1    2    0    0 -0.39778138917E+02  0.18975120688E+02  0.73688885101E+03  0.74871493416E+03  0.12500607323E+03 0.  0.
          5    1    3    3  501    0  0.81678048676E+02 -0.38383227135E+01  0.91370168559E+02  0.12270547689E+03  0.47000000000E+01 0. -1.
         -5    1    3    3    0  501 -0.41899909758E+02 -0.15136797974E+02  0.10554580907E+03  0.11465920331E+03  0.47000000000E+01 0. -1.
          5    1    4    4  502    0 -0.71148569087E+02  0.50651162376E+02  0.50877283433E+03  0.51623594033E+03  0.47000000000E+01 0. -1.
         -5    1    4    4    0  502  0.31370430169E+02 -0.31676041688E+02  0.22811601667E+03  0.23247899382E+03  0.47000000000E+01 0. -1.
<mgrwt>
<rscale>  0 0.31679891E+03</rscale>
<asrwt>0</asrwt>
<pdfrwt beam="1">  1       21 0.14768339E+00 0.31679891E+03</pdfrwt>
<pdfrwt beam="2">  1       21 0.40211381E-02 0.31679891E+03</pdfrwt>
<totfact> 0.11533580E+05</totfact>
</mgrwt>
</event>
<event>
 8    1  0.9569852E-006  0.3437490E+03  0.7546771E-02  0.1065210E+00
         21   -1    0    0  504  503  0.00000000000E+00  0.00000000000E+00  0.17548723436E+03  0.17548723436E+03  0.00000000000E+00 0. -1.
         21   -1    0    0  503  504 -0.00000000000E+00 -0.00000000000E+00 -0.16833617958E+03  0.16833617958E+03  0.00000000000E+00 0. -1.
         25    2    1    2    0    0  0.57620219226E+02  0.10257049615E+03  0.12212785225E+02  0.17208877120E+03  0.12499838681E+03 0.  0.
         25    2    1    2    0    0 -0.57620219226E+02 -0.10257049615E+03 -0.50617304495E+01  0.17173464275E+03  0.12500548012E+03 0.  0.
          5    1    3    3  501    0  0.55731926550E+02 -0.10899228512E+02 -0.50353977827E+01  0.57203898905E+02  0.47000000000E+01 0. -1.
         -5    1    3    3    0  501  0.18882926765E+01  0.11346972467E+03  0.17248183007E+02  0.11488487229E+03  0.47000000000E+01 0. -1.
          5    1    4    4  502    0 -0.16768713874E+01 -0.51800831070E+02  0.54546400173E+02  0.75389241732E+02  0.47000000000E+01 0. -1.
         -5    1    4    4    0  502 -0.55943347839E+02 -0.50769665084E+02 -0.59608130623E+02  0.96345401013E+02  0.47000000000E+01 0. -1.
<mgrwt>
<rscale>  0 0.34374904E+03</rscale>
<asrwt>0</asrwt>
<pdfrwt beam="1">  1       21 0.26998036E-01 0.34374904E+03</pdfrwt>
<pdfrwt beam="2">  1       21 0.25897874E-01 0.34374904E+03</pdfrwt>
<totfact> 0.17792949E+05</totfact>
</mgrwt>
</event>
<event>
 8    1  0.9569852E-006  0.3115428E+03  0.7546771E-02  0.1079609E+00
         21   -1    0    0  504  503  0.00000000000E+00  0.00000000000E+00  0.53014796762E+03  0.53014796762E+03  0.00000000000E+00 0. -1.
         21   -1    0    0  503  504 -0.00000000000E+00 -0.00000000000E+00 -0.45769733517E+02  0.45769733517E+02  0.00000000000E+00 0. -1.
         25    2    1    2    0    0 -0.91960037722E+01 -0.84029737523E+02  0.31368100640E+03  0.34809023576E+03  0.12500190072E+03 0.  0.
         25    2    1    2    0    0  0.91960037722E+01  0.84029737523E+02  0.17069722771E+03  0.22782746538E+03  0.12498898815E+03 0.  0.
          5    1    3    3  501    0  0.50268148140E+01 -0.99852424634E+02  0.13484408877E+03  0.16793091987E+03  0.47000000000E+01 0. -1.
         -5    1    3    3    0  501 -0.14222818586E+02  0.15822687111E+02  0.17883691762E+03  0.18015931589E+03  0.47000000000E+01 0. -1.
          5    1    4    4  502    0  0.11428275375E+02 -0.31170988271E+02  0.55404193072E+02  0.64760718015E+02  0.47000000000E+01 0. -1.
         -5    1    4    4    0  502 -0.22322716028E+01  0.11520072579E+03  0.11529303464E+03  0.16306674736E+03  0.47000000000E+01 0. -1.
<mgrwt>
<rscale>  0 0.31154281E+03</rscale>
<asrwt>0</asrwt>
<pdfrwt beam="1">  1       21 0.81561221E-01 0.31154281E+03</pdfrwt>
<pdfrwt beam="2">  1       21 0.70414979E-02 0.31154281E+03</pdfrwt>
<totfact> 0.19053377E+05</totfact>
</mgrwt>
</event>
<event>
 8    1  0.9569852E-006  0.3163216E+03  0.7546771E-02  0.1077355E+00
         21   -1    0    0  504  503  0.00000000000E+00  0.00000000000E+00  0.24392011621E+02  0.24392011621E+02  0.00000000000E+00 0. -1.
         21   -1    0    0  503  504 -0.00000000000E+00 -0.00000000000E+00 -0.10255340450E+04  0.10255340450E+04  0.00000000000E+00 0. -1.
         25    2    1    2    0    0  0.85894542795E+02 -0.40530827722E+02 -0.43690956164E+03  0.46425538811E+03  0.12498991905E+03 0.  0.
         25    2    1    2    0    0 -0.85894542795E+02  0.40530827722E+02 -0.56423247176E+03  0.58567066853E+03  0.12502491474E+03 0.  0.
          5    1    3    3  501    0  0.42300638879E+02 -0.78317759355E+02 -0.17943434331E+03  0.20035415902E+03  0.47000000000E+01 0.  1.
         -5    1    3    3    0  501  0.43593903916E+02  0.37786931633E+02 -0.25747521833E+03  0.26390122909E+03  0.47000000000E+01 0.  1.
          5    1    4    4  502    0  0.64365899513E+01  0.15693223504E+02 -0.35658545569E+03  0.35701958513E+03  0.47000000000E+01 0.  1.
         -5    1    4    4    0  502 -0.92331132746E+02  0.24837604218E+02 -0.20764701607E+03  0.22865108340E+03  0.47000000000E+01 0.  1.
<mgrwt>
<rscale>  0 0.31632160E+03</rscale>
<asrwt>0</asrwt>
<pdfrwt beam="1">  1       21 0.37526173E-02 0.31632160E+03</pdfrwt>
<pdfrwt beam="2">  1       21 0.15777446E+00 0.31632160E+03</pdfrwt>
<totfact> 0.10847128E+05</totfact>
</mgrwt>
</event>
<event>
 8    1  0.9569852E-006  0.3000136E+03  0.7546771E-02  0.1085234E+00
         21   -1    0    0  504  503  0.00000000000E+00  0.00000000000E+00  0.80392156524E+02  0.80392156524E+02  0.00000000000E+00 0. -1.
         21   -1    0    0  503  504 -0.00000000000E+00 -0.00000000000E+00 -0.27990345985E+03  0.27990345985E+03  0.00000000000E+00 0. -1.
         25    2    1    2    0    0  0.55345523988E+02  0.37682064157E+02 -0.41014237436E+02  0.14761945055E+03  0.12500507799E+03 0.  0.
         25    2    1    2    0    0 -0.55345523988E+02 -0.37682064157E+02 -0.15849706589E+03  0.21267616582E+03  0.12500706631E+03 0.  0.
          5    1    3    3  501    0  0.31578228195E+02  0.81304322847E+02 -0.43657916462E+02  0.97650811975E+02  0.47000000000E+01 0. -1.
         -5    1    3    3    0  501  0.23767295793E+02 -0.43622258690E+02  0.26436790258E+01  0.49968638578E+02  0.47000000000E+01 0. -1.
          5    1    4    4  502    0 -0.92522043846E+02 -0.28087031590E+02 -0.81643548046E+02  0.12663715442E+03  0.47000000000E+01 0.  1.
         -5    1    4    4    0  502  0.37176519857E+02 -0.95950325669E+01 -0.76853517847E+02  0.86039011408E+02  0.47000000000E+01 0.  1.
<mgrwt>
<rscale>  0 0.30001362E+03</rscale>
<asrwt>0</asrwt>
<pdfrwt beam="1">  1       21 0.12368024E-01 0.30001362E+03</pdfrwt>
<pdfrwt beam="2">  1       21 0.43062070E-01 0.30001362E+03</pdfrwt>
<totfact> 0.28096706E+05</totfact>
</mgrwt>
</event>
<event>
 8    1  0.9569852E-006  0.2841139E+03  0.7546771E-02  0.1093463E+00
         21   -1    0    0  504  503  0.00000000000E+00  0.00000000000E+00  0.63640184343E+02  0.63640184343E+02  0.00000000000E+00 0. -1.
         21   -1    0    0  503  504 -0.00000000000E+00 -0.00000000000E+00 -0.31709799153E+03  0.31709799153E+03  0.00000000000E+00 0. -1.
         25    2    1    2    0    0 -0.21657717849E+02 -0.12446682607E+02 -0.21073778359E+03  0.24628954657E+03  0.12499660263E+03 0.  0.
         25    2    1    2    0    0  0.21657717849E+02  0.12446682607E+02 -0.42720023598E+02  0.13444862930E+03  0.12500982703E+03 0.  0.
          5    1    3    3  501    0 -0.24756710352E+02 -0.66577628986E+02 -0.98255094093E+02  0.12133271984E+03  0.47000000000E+01 0. -1.
         -5    1    3    3    0  501  0.30989925022E+01  0.54130946379E+02 -0.11248268949E+03  0.12495682673E+03  0.47000000000E+01 0. -1.
          5    1    4    4  502    0 -0.62452262728E+01  0.40083044123E+02 -0.73665903331E+02  0.84228312288E+02  0.47000000000E+01 0. -1.
         -5    1    4    4    0  502  0.27902944122E+02 -0.27636361515E+02  0.30945879733E+02  0.50220317013E+02  0.47000000000E+01 0. -1.
<mgrwt>
<rscale>  0 0.28411388E+03</rscale>
<asrwt>0</asrwt>
<pdfrwt beam="1">  1       21 0.97907975E-02 0.28411388E+03</pdfrwt>
<pdfrwt beam="2">  1       21 0.48784307E-01 0.28411388E+03</pdfrwt>
<totfact> 0.33073977E+05</totfact>
</mgrwt>
</event>
<event>
 8    1  0.9569852E-006  0.2727937E+03  0.7546771E-02  0.1099691E+00
         21   -1    0    0  504  503  0.00000000000E+00  0.00000000000E+00  0.80560024643E+02  0.80560024643E+02  0.00000000000E+00 0. -1.
         21   -1    0    0  503  504 -0.00000000000E+00 -0.00000000000E+00 -0.23093460450E+03  0.23093460450E+03  0.00000000000E+00 0. -1.
         25    2    1    2    0    0 -0.34651750605E+02 -0.27563760029E+02 -0.11163731466E+03  0.17334529172E+03  0.12500078181E+03 0.  0.
         25    2    1    2    0    0  0.34651750605E+02  0.27563760029E+02 -0.38737265202E+02  0.13814933742E+03  0.12499663606E+03 0.  0.
          5    1    3    3  501    0 -0.12598454982E+02  0.85455130846E+01  0.25324783080E+02  0.29919583885E+02  0.47000000000E+01 0.  1.
         -5    1    3    3    0  501 -0.22053295623E+02 -0.36109273114E+02 -0.13696209774E+03  0.14342570784E+03  0.47000000000E+01 0.  1.
          5    1    4    4  502    0 -0.31400407718E+02  0.42939281486E+02  0.10223533085E+02  0.54372586182E+02  0.47000000000E+01 0. -1.
         -5    1    4    4    0  502  0.66052158323E+02 -0.15375521456E+02 -0.48960798286E+02  0.83776751238E+02  0.47000000000E+01 0. -1.
<mgrwt>
<rscale>  0 0.27279368E+03</rscale>
<asrwt>0</asrwt>
<pdfrwt beam="1">  1       21 0.12393850E-01 0.27279368E+03</pdfrwt>
<pdfrwt beam="2">  1       21 0.35528401E-01 0.27279368E+03</pdfrwt>
<totfact> 0.41602037E+05</totfact>
</mgrwt>
</event>
<event>
 8    1  0.9569852E-006  0.2530010E+03  0.7546771E-02  0.1111423E+00
         21   -1    0    0  504  503  0.00000000000E+00  0.00000000000E+00  0.44314697132E+02  0.44314697132E+02  0.00000000000E+00 0. -1.
         21   -1    0    0  503  504 -0.00000000000E+00 -0.00000000000E+00 -0.36110761495E+03  0.36110761495E+03  0.00000000000E+00 0. -1.
         25    2    1    2    0    0 -0.10605869648E+01  0.12840850017E+02 -0.18177839666E+03  0.22097695344E+03  0.12498566391E+03 0.  0.
         25    2    1    2    0    0  0.10605869648E+01 -0.12840850017E+02 -0.13501452116E+03  0.18444535865E+03  0.12500062852E+03 0.  0.
          5    1    3    3  501    0 -0.20348169501E+01  0.11787610809E+02 -0.20086100823E+03  0.20127176373E+03  0.47000000000E+01 0. -1.
         -5    1    3    3    0  501  0.97422998533E+00  0.10532392083E+01  0.19082611570E+02  0.19705189703E+02  0.47000000000E+01 0. -1.
          5    1    4    4  502    0 -0.21763695835E+02 -0.64201836754E+02 -0.60425745694E+02  0.90933464917E+02  0.47000000000E+01 0. -1.
         -5    1    4    4    0  502  0.22824282800E+02  0.51360986737E+02 -0.74588775463E+02  0.93511893730E+02  0.47000000000E+01 0. -1.
<mgrwt>
<rscale>  0 0.25300098E+03</rscale>
<asrwt>0</asrwt>
<pdfrwt beam="1">  1       21 0.68176459E-02 0.25300098E+03</pdfrwt>
<pdfrwt beam="2">  1       21 0.55555016E-01 0.25300098E+03</pdfrwt>
<totfact> 0.47732517E+05</totfact>
</mgrwt>
</event>
<event>
 8    1  0.9569852E-006  0.3863430E+03  0.7546771E-02  0.1048614E+00
         21   -1    0    0  504  503  0.00000000000E+00  0.00000000000E+00  0.44092711894E+03  0.44092711894E+03  0.00000000000E+00 0. -1.
         21   -1    0    0  503  504 -0.00000000000E+00 -0.00000000000E+00 -0.84629009854E+02  0.84629009854E+02  0.00000000000E+00 0. -1.
         25    2    1    2    0    0 -0.57645256291E+02  0.27364470049E+02  0.35868771735E+03  0.38516542578E+03  0.12499494727E+03 0.  0.
         25    2    1    2    0    0  0.57645256291E+02 -0.27364470049E+02 -0.23896082622E+01  0.14039070302E+03  0.12502819471E+03 0.  0.
          5    1    3    3  501    0  0.32980918109E+02 -0.19030459130E+02  0.10293320568E+03  0.10985096343E+03  0.47000000000E+01 0.  1.
         -5    1    3    3    0  501 -0.90626174401E+02  0.46394929179E+02  0.25575451167E+03  0.27531446235E+03  0.47000000000E+01 0.  1.
          5    1    4    4  502    0  0.79367272944E+01  0.36740194849E+02 -0.36186527154E+02  0.52386909673E+02  0.47000000000E+01 0.  1.
         -5    1    4    4    0  502  0.49708528997E+02 -0.64104664898E+02  0.33796918891E+02  0.88003793346E+02  0.47000000000E+01 0.  1.
<mgrwt>
<rscale>  0 0.38634298E+03</rscale>
<asrwt>0</asrwt>
<pdfrwt beam="1">  1       21 0.67834940E-01 0.38634298E+03</pdfrwt>
<pdfrwt beam="2">  1       21 0.13019848E-01 0.38634298E+03</pdfrwt>
<totfact> 0.94902805E+04</totfact>
</mgrwt>
</event>
<event>
 8    1  0.9569852E-006  0.4079824E+03  0.7546771E-02  0.1041050E+00
         21   -1    0    0  504  503  0.00000000000E+00  0.00000000000E+00  0.17792972229E+03  0.17792972229E+03  0.00000000000E+00 0. -1.
         21   -1    0    0  503  504 -0.00000000000E+00 -0.00000000000E+00 -0.23386992094E+03  0.23386992094E+03  0.00000000000E+00 0. -1.
         25    2    1    2    0    0 -0.10863675786E+03 -0.55968809200E+02  0.78184752136E+02  0.19145991173E+03  0.12493834309E+03 0.  0.
         25    2    1    2    0    0  0.10863675786E+03  0.55968809200E+02 -0.13412495079E+03  0.22033973150E+03  0.12500256834E+03 0.  0.
          5    1    3    3  501    0 -0.13265933857E+03 -0.47685324971E+02  0.85070862218E+02  0.16471651989E+03  0.47000000000E+01 0.  1.
         -5    1    3    3    0  501  0.24022580712E+02 -0.82834842288E+01 -0.68861100817E+01  0.26743391839E+02  0.47000000000E+01 0.  1.
          5    1    4    4  502    0  0.93822100636E+02  0.53917299181E+01 -0.22407153770E+02  0.96725528478E+02  0.47000000000E+01 0.  1.
         -5    1    4    4    0  502  0.14814657223E+02  0.50577079282E+02 -0.11171779702E+03  0.12361420302E+03  0.47000000000E+01 0.  1.
<mgrwt>
<rscale>  0 0.40798240E+03</rscale>
<asrwt>0</asrwt>
<pdfrwt beam="1">  1       21 0.27373804E-01 0.40798240E+03</pdfrwt>
<pdfrwt beam="2">  1       21 0.35979988E-01 0.40798240E+03</pdfrwt>
<totfact> 0.89023706E+04</totfact>
</mgrwt>
</event>
<event>
 8    1  0.9569852E-006  0.3095100E+03  0.7546771E-02  0.1080581E+00
         21   -1    0    0  504  503  0.00000000000E+00  0.00000000000E+00  0.33841073058E+03  0.33841073058E+03  0.00000000000E+00 0.  1.
         21   -1    0    0  503  504 -0.00000000000E+00 -0.00000000000E+00 -0.70769379997E+02  0.70769379997E+02  0.00000000000E+00 0.  1.
         25    2    1    2    0    0  0.29590615364E+02  0.71795031470E+02  0.70523964660E+02  0.16318819303E+03  0.12500650260E+03 0.  0.
         25    2    1    2    0    0 -0.29590615364E+02 -0.71795031470E+02  0.19711738593E+03  0.24599191755E+03  0.12500651425E+03 0.  0.
          5    1    3    3  501    0  0.83233946868E+00  0.52114849743E+02 -0.27450051691E+02  0.59095225616E+02  0.47000000000E+01 0.  1.
         -5    1    3    3    0  501  0.28758275895E+02  0.19680181728E+02  0.97974016351E+02  0.10409296742E+03  0.47000000000E+01 0.  1.
          5    1    4    4  502    0  0.25643514231E+02 -0.41658845624E+02  0.12241728268E+02  0.50645820675E+02  0.47000000000E+01 0.  1.
         -5    1    4    4    0  502 -0.55234129596E+02 -0.30136185847E+02  0.18487565766E+03  0.19534609687E+03  0.47000000000E+01 0.  1.
<mgrwt>
<rscale>  0 0.30951005E+03</rscale>
<asrwt>0</asrwt>
<pdfrwt beam="1">  1       21 0.52063188E-01 0.30951005E+03</pdfrwt>
<pdfrwt beam="2">  1       21 0.10887597E-01 0.30951005E+03</pdfrwt>
<totfact> 0.23724596E+05</totfact>
</mgrwt>
</event>
<event>
 8    1  0.9569852E-006  0.2691233E+03  0.7546771E-02  0.1101782E+00
         21   -1    0    0  504  503  0.00000000000E+00  0.00000000000E+00  0.20889170080E+03  0.20889170080E+03  0.00000000000E+00 0.  1.
         21   -1    0    0  503  504 -0.00000000000E+00 -0.00000000000E+00 -0.86680502192E+02  0.86680502192E+02  0.00000000000E+00 0.  1.
         25    2    1    2    0    0 -0.31802290661E+01 -0.43460878318E+02  0.87701175187E+02  0.15879579158E+03  0.12500258194E+03 0.  0.
         25    2    1    2    0    0  0.31802290661E+01  0.43460878318E+02  0.34510023423E+02  0.13677641142E+03  0.12497152957E+03 0.  0.
          5    1    3    3  501    0 -0.11450194025E+02  0.41361358922E+02  0.12259886900E+02  0.44880550151E+02  0.47000000000E+01 0.  1.
         -5    1    3    3    0  501  0.82699649588E+01 -0.84822237240E+02  0.75441288287E+02  0.11391524143E+03  0.47000000000E+01 0.  1.
          5    1    4    4  502    0  0.19804429498E+02  0.76031111788E+02  0.53632163365E+02  0.95244130185E+02  0.47000000000E+01 0.  1.
         -5    1    4    4    0  502 -0.16624200432E+02 -0.32570233470E+02 -0.19122139942E+02  0.41532281231E+02  0.47000000000E+01 0.  1.
<mgrwt>
<rscale>  0 0.26912330E+03</rscale>
<asrwt>0</asrwt>
<pdfrwt beam="1">  1       21 0.32137185E-01 0.26912330E+03</pdfrwt>
<pdfrwt beam="2">  1       21 0.13335462E-01 0.26912330E+03</pdfrwt>
<totfact> 0.44521605E+05</totfact>
</mgrwt>
</event>
<event>
 8    1  0.9569852E-006  0.4889365E+03  0.7546771E-02  0.1016708E+00
         21   -1    0    0  504  503  0.00000000000E+00  0.00000000000E+00  0.63692740963E+03  0.63692740963E+03  0.00000000000E+00 0. -1.
         21   -1    0    0  503  504 -0.00000000000E+00 -0.00000000000E+00 -0.93832875408E+02  0.93832875408E+02  0.00000000000E+00 0. -1.
         25    2    1    2    0    0 -0.13269493383E+03  0.16215757231E+03  0.29443671205E+03  0.38239305303E+03  0.12501378276E+03 0.  0.
         25    2    1    2    0    0  0.13269493383E+03 -0.16215757231E+03  0.24865782217E+03  0.34836723201E+03  0.12500396829E+03 0.  0.
          5    1    3    3  501    0 -0.25817271748E+02  0.42927589398E+02  0.17633840013E+03  0.18337565490E+03  0.47000000000E+01 0. -1.
         -5    1    3    3    0  501 -0.10687766208E+03  0.11922998292E+03  0.11809831193E+03  0.19901739813E+03  0.47000000000E+01 0. -1.
          5    1    4    4  502    0  0.68700808883E+02 -0.57661565027E+02  0.19465823362E+03  0.21437951194E+03  0.47000000000E+01 0. -1.
         -5    1    4    4    0  502  0.63994124945E+02 -0.10449600729E+03  0.53999588553E+02  0.13398772007E+03  0.47000000000E+01 0. -1.
<mgrwt>
<rscale>  0 0.48893652E+03</rscale>
<asrwt>0</asrwt>
<pdfrwt beam="1">  1       21 0.97988829E-01 0.48893652E+03</pdfrwt>
<pdfrwt beam="2">  1       21 0.14435827E-01 0.48893652E+03</pdfrwt>
<totfact> 0.32671255E+04</totfact>
</mgrwt>
</event>
<event>
 8    1  0.9569852E-006  0.8475877E+03  0.7546771E-02  0.9493580E-01
         21   -1    0    0  504  503  0.00000000000E+00  0.00000000000E+00  0.12965724207E+04  0.12965724207E+04  0.00000000000E+00 0.  1.
         21   -1    0    0  503  504 -0.00000000000E+00 -0.00000000000E+00 -0.13852001399E+03  0.13852001399E+03  0.00000000000E+00 0.  1.
         25    2    1    2    0    0  0.30180607730E+02  0.35521142943E+03  0.25381553220E+03  0.45511487721E+03  0.12498479262E+03 0.  0.
         25    2    1    2    0    0 -0.30180607730E+02 -0.35521142943E+03  0.90423687453E+03  0.97997755751E+03  0.12500263709E+03 0.  0.
          5    1    3    3  501    0  0.26045970333E+02  0.15645815872E+03  0.41078020034E+02  0.16391168882E+03  0.47000000000E+01 0.  1.
         -5    1    3    3    0  501  0.41346373971E+01  0.19875327071E+03  0.21273751217E+03  0.29120318839E+03  0.47000000000E+01 0.  1.
          5    1    4    4  502    0 -0.33572127942E+02 -0.19843005688E+03  0.34790549508E+03  0.40194763186E+03  0.47000000000E+01 0.  1.
         -5    1    4    4    0  502  0.33915202122E+01 -0.15678137255E+03  0.55633137944E+03  0.57802992565E+03  0.47000000000E+01 0.  1.
<mgrwt>
<rscale>  0 0.84758771E+03</rscale>
<asrwt>0</asrwt>
<pdfrwt beam="1">  1       21 0.19947267E+00 0.84758771E+03</pdfrwt>
<pdfrwt beam="2">  1       21 0.21310772E-01 0.84758771E+03</pdfrwt>
<totfact> 0.20924866E+03</totfact>
</mgrwt>
</event>
<event>
 8    1  0.9569852E-006  0.3373882E+03  0.7546771E-02  0.1067914E+00
         21   -1    0    0  504  503  0.00000000000E+00  0.00000000000E+00  0.35694172716E+03  0.35694172716E+03  0.00000000000E+00 0.  1.
         21   -1    0    0  503  504 -0.00000000000E+00 -0.00000000000E+00 -0.79726459400E+02  0.79726459400E+02  0.00000000000E+00 0.  1.
         25    2    1    2    0    0  0.27812057571E+02  0.91181387862E+02  0.21780241284E+03  0.26860984060E+03  0.12500319751E+03 0.  0.
         25    2    1    2    0    0 -0.27812057571E+02 -0.91181387862E+02  0.59412854916E+02  0.16805834596E+03  0.12500465703E+03 0.  0.
          5    1    3    3  501    0  0.37937000725E+02 -0.11258398140E+02  0.12036777701E+03  0.12679297809E+03  0.47000000000E+01 0.  1.
         -5    1    3    3    0  501 -0.10124943154E+02  0.10243978600E+03  0.97434635839E+02  0.14181686251E+03  0.47000000000E+01 0.  1.
          5    1    4    4  502    0 -0.67174531643E+02 -0.11668011360E+02  0.27034074561E+02  0.73494839125E+02  0.47000000000E+01 0.  1.
         -5    1    4    4    0  502  0.39362474073E+02 -0.79513376502E+02  0.32378780355E+02  0.94563506836E+02  0.47000000000E+01 0.  1.
<mgrwt>
<rscale>  0 0.33738820E+03</rscale>
<asrwt>0</asrwt>
<pdfrwt beam="1">  1       21 0.54914111E-01 0.33738820E+03</pdfrwt>
<pdfrwt beam="2">  1       21 0.12265609E-01 0.33738820E+03</pdfrwt>
<totfact> 0.16975983E+05</totfact>
</mgrwt>
</event>
<event>
 8    1  0.9569852E-006  0.2751876E+03  0.7546771E-02  0.1098347E+00
         21   -1    0    0  504  503  0.00000000000E+00  0.00000000000E+00  0.43928290542E+03  0.43928290542E+03  0.00000000000E+00 0.  1.
         21   -1    0    0  503  504 -0.00000000000E+00 -0.00000000000E+00 -0.43097628413E+02  0.43097628413E+02  0.00000000000E+00 0.  1.
         25    2    1    2    0    0  0.12133651705E+02 -0.11084184244E+02  0.10149206091E+03  0.16185294320E+03  0.12500260858E+03 0.  0.
         25    2    1    2    0    0 -0.12133651705E+02  0.11084184244E+02  0.29469321610E+03  0.32052759063E+03  0.12499504028E+03 0.  0.
          5    1    3    3  501    0 -0.20978849799E+02  0.46631338071E+02  0.16760311769E+02  0.54014737617E+02  0.47000000000E+01 0.  1.
         -5    1    3    3    0  501  0.33112501505E+02 -0.57715522315E+02  0.84731749136E+02  0.10783820558E+03  0.47000000000E+01 0.  1.
          5    1    4    4  502    0 -0.28973963852E+02 -0.36485738280E+02  0.42324252793E+02  0.63119981413E+02  0.47000000000E+01 0. -1.
         -5    1    4    4    0  502  0.16840312147E+02  0.47569922524E+02  0.25236896331E+03  0.25740760922E+03  0.47000000000E+01 0. -1.
<mgrwt>
<rscale>  0 0.27518758E+03</rscale>
<asrwt>0</asrwt>
<pdfrwt beam="1">  1       21 0.67581982E-01 0.27518758E+03</pdfrwt>
<pdfrwt beam="2">  1       21 0.66304047E-02 0.27518758E+03</pdfrwt>
<totfact> 0.32582499E+05</totfact>
</mgrwt>
</event>
<event>
 8    1  0.9569852E-006  0.2559371E+03  0.7546771E-02  0.1109609E+00
         21   -1    0    0  504  503  0.00000000000E+00  0.00000000000E+00  0.15940857774E+04  0.15940857774E+04  0.00000000000E+00 0.  1.
         21   -1    0    0  503  504 -0.00000000000E+00 -0.00000000000E+00 -0.10272941579E+02  0.10272941579E+02  0.00000000000E+00 0.  1.
         25    2    1    2    0    0  0.17307101523E+02  0.73282260892E+01  0.66674274470E+03  0.67861829134E+03  0.12499463617E+03 0.  0.
         25    2    1    2    0    0 -0.17307101523E+02 -0.73282260892E+01  0.91707009112E+03  0.92574042764E+03  0.12499819468E+03 0.  0.
          5    1    3    3  501    0 -0.26959988081E+02 -0.16437843453E+02  0.46954016014E+02  0.56778633962E+02  0.47000000000E+01 0. -1.
         -5    1    3    3    0  501  0.44267089603E+02  0.23766069542E+02  0.61978872869E+03  0.62183965738E+03  0.47000000000E+01 0. -1.
          5    1    4    4  502    0 -0.29248571058E+01  0.26674971379E+02  0.43165592698E+02  0.51043778074E+02  0.47000000000E+01 0. -1.
         -5    1    4    4    0  502 -0.14382244417E+02 -0.34003197468E+02  0.87390449843E+03  0.87469664957E+03  0.47000000000E+01 0. -1.
<mgrwt>
<rscale>  0 0.25593710E+03</rscale>
<asrwt>0</asrwt>
<pdfrwt beam="1">  1       21 0.24524377E+00 0.25593710E+03</pdfrwt>
<pdfrwt beam="2">  1       21 0.15804538E-02 0.25593710E+03</pdfrwt>
<totfact> 0.12316691E+05</totfact>
</mgrwt>
</event>
<event>
 8    1  0.9569852E-006  0.3792008E+03  0.7546771E-02  0.1051230E+00
         21   -1    0    0  504  503  0.00000000000E+00  0.00000000000E+00  0.11201066446E+03  0.11201066446E+03  0.00000000000E+00 0. -1.
         21   -1    0    0  503  504 -0.00000000000E+00 -0.00000000000E+00 -0.32093643914E+03  0.32093643914E+03  0.00000000000E+00 0. -1.
         25    2    1    2    0    0 -0.10560941380E+03  0.95093717589E+02 -0.91567708484E+02  0.21025109013E+03  0.12499884902E+03 0.  0.
         25    2    1    2    0    0  0.10560941380E+03 -0.95093717589E+02 -0.11735806620E+03  0.22269601347E+03  0.12499774121E+03 0.  0.
          5    1    3    3  501    0 -0.84344954604E+02  0.58730147428E+02  0.68306868559E+01  0.10311183185E+03  0.47000000000E+01 0. -1.
         -5    1    3    3    0  501 -0.21264459194E+02  0.36363570161E+02 -0.98398395339E+02  0.10713925828E+03  0.47000000000E+01 0. -1.
          5    1    4    4  502    0  0.13009847899E+03 -0.99438116558E+02 -0.10446414445E+03  0.19428947665E+03  0.47000000000E+01 0.  1.
         -5    1    4    4    0  502 -0.24489065191E+02  0.43443989688E+01 -0.12893921748E+02  0.28406536825E+02  0.47000000000E+01 0.  1.
<mgrwt>
<rscale>  0 0.37920076E+03</rscale>
<asrwt>0</asrwt>
<pdfrwt beam="1">  1       21 0.17232410E-01 0.37920076E+03</pdfrwt>
<pdfrwt beam="2">  1       21 0.49374836E-01 0.37920076E+03</pdfrwt>
<totfact> 0.11280645E+05</totfact>
</mgrwt>
</event>
<event>
 8    1  0.9569852E-006  0.4120062E+03  0.7546771E-02  0.1039700E+00
         21   -1    0    0  504  503  0.00000000000E+00  0.00000000000E+00  0.26412407413E+02  0.26412407413E+02  0.00000000000E+00 0. -1.
         21   -1    0    0  503  504 -0.00000000000E+00 -0.00000000000E+00 -0.16067176624E+04  0.16067176624E+04  0.00000000000E+00 0. -1.
         25    2    1    2    0    0  0.11241635477E+03  0.11078628170E+03 -0.61731990897E+03  0.64932267131E+03  0.12500009773E+03 0.  0.
         25    2    1    2    0    0 -0.11241635477E+03 -0.11078628170E+03 -0.96298534601E+03  0.98380739850E+03  0.12500073467E+03 0.  0.
          5    1    3    3  501    0  0.16756557449E+02  0.71572170712E+02 -0.42099486561E+03  0.42738989777E+03  0.47000000000E+01 0. -1.
         -5    1    3    3    0  501  0.95659797325E+02  0.39214110992E+02 -0.19632504336E+03  0.22193277355E+03  0.47000000000E+01 0. -1.
          5    1    4    4  502    0  0.14772959462E+02 -0.61428874734E+02 -0.25254219434E+03  0.26036781080E+03  0.47000000000E+01 0. -1.
         -5    1    4    4    0  502 -0.12718931424E+03 -0.49357406970E+02 -0.71044315168E+03  0.72343958770E+03  0.47000000000E+01 0. -1.
<mgrwt>
<rscale>  0 0.41200622E+03</rscale>
<asrwt>0</asrwt>
<pdfrwt beam="1">  1       21 0.40634476E-02 0.41200622E+03</pdfrwt>
<pdfrwt beam="2">  1       21 0.24718731E+00 0.41200622E+03</pdfrwt>
<totfact> 0.23260133E+04</totfact>
</mgrwt>
</event>
<event>
 8    1  0.9569852E-006  0.2783424E+03  0.7546771E-02  0.1096598E+00
         21   -1    0    0  504  503  0.00000000000E+00  0.00000000000E+00  0.31453923877E+02  0.31453923877E+02  0.00000000000E+00 0. -1.
         21   -1    0    0  503  504 -0.00000000000E+00 -0.00000000000E+00 -0.61577747399E+03  0.61577747399E+03  0.00000000000E+00 0. -1.
         25    2    1    2    0    0 -0.24357379661E+01 -0.60505478787E+02 -0.27171769965E+03  0.30516017067E+03  0.12500150271E+03 0.  0.
         25    2    1    2    0    0  0.24357379661E+01  0.60505478787E+02 -0.31260585046E+03  0.34207122719E+03  0.12499384363E+03 0.  0.
          5    1    3    3  501    0 -0.78123712077E+01  0.27752219238E+02 -0.15981363138E+03  0.16246139724E+03  0.47000000000E+01 0.  1.
         -5    1    3    3    0  501  0.53766332417E+01 -0.88257698025E+02 -0.11190406827E+03  0.14269877344E+03  0.47000000000E+01 0.  1.
          5    1    4    4  502    0  0.36947268757E+02 -0.83803080149E+01 -0.28432468187E+02  0.47600687791E+02  0.47000000000E+01 0.  1.
         -5    1    4    4    0  502 -0.34511530791E+02  0.68885786802E+02 -0.28417338228E+03  0.29447053940E+03  0.47000000000E+01 0.  1.
<mgrwt>
<rscale>  0 0.27834236E+03</rscale>
<asrwt>0</asrwt>
<pdfrwt beam="1">  1       21 0.48390651E-02 0.27834236E+03</pdfrwt>
<pdfrwt beam="2">  1       21 0.94734997E-01 0.27834236E+03</pdfrwt>
<totfact> 0.25875322E+05</totfact>
</mgrwt>
</event>
<event>
 8    1  0.9569852E-006  0.3720540E+03  0.7546771E-02  0.1053910E+00
         21   -1    0    0  504  503  0.00000000000E+00  0.00000000000E+00  0.12650370806E+04  0.12650370806E+04  0.00000000000E+00 0. -1.
         21   -1    0    0  503  504 -0.00000000000E+00 -0.00000000000E+00 -0.27355753316E+02  0.27355753316E+02  0.00000000000E+00 0. -1.
         25    2    1    2    0    0 -0.30513502223E+02  0.47489966272E+02  0.18202046821E+03  0.22785976812E+03  0.12490897631E+03 0.  0.
         25    2    1    2    0    0  0.30513502223E+02 -0.47489966272E+02  0.10556608590E+04  0.10645330658E+04  0.12499771235E+03 0.  0.
          5    1    3    3  501    0 -0.47862423246E+02  0.71393183147E+02  0.67190679132E+02  0.10919924689E+03  0.47000000000E+01 0. -1.
         -5    1    3    3    0  501  0.17348921023E+02 -0.23903216876E+02  0.11482978908E+03  0.11866052123E+03  0.47000000000E+01 0. -1.
          5    1    4    4  502    0  0.26443257267E+02 -0.38665153355E+02  0.12138222117E+03  0.13019206410E+03  0.47000000000E+01 0. -1.
         -5    1    4    4    0  502  0.40702449559E+01 -0.88248129163E+01  0.93427863785E+03  0.93434100165E+03  0.47000000000E+01 0. -1.
<mgrwt>
<rscale>  0 0.37205399E+03</rscale>
<asrwt>0</asrwt>
<pdfrwt beam="1">  1       21 0.19462104E+00 0.37205399E+03</pdfrwt>
<pdfrwt beam="2">  1       21 0.42085784E-02 0.37205399E+03</pdfrwt>
<totfact> 0.48084658E+04</totfact>
</mgrwt>
</event>
<event>
 8    1  0.9569852E-006  0.3352369E+03  0.7546771E-02  0.1068843E+00
         21   -1    0    0  504  503  0.00000000000E+00  0.00000000000E+00  0.66548606813E+02  0.66548606813E+02  0.00000000000E+00 0. -1.
         21   -1    0    0  503  504 -0.00000000000E+00 -0.00000000000E+00 -0.42218680118E+03  0.42218680118E+03  0.00000000000E+00 0. -1.
         25    2    1    2    0    0 -0.61387858034E+02 -0.51473879881E+02 -0.29122897505E+03  0.32688973646E+03  0.12499821787E+03 0.  0.
         25    2    1    2    0    0  0.61387858034E+02  0.51473879881E+02 -0.64409219323E+02  0.16184567154E+03  0.12500977737E+03 0.  0.
          5    1    3    3  501    0  0.34513512362E+02  0.74585287427E+01 -0.63156827574E+02  0.72509910052E+02  0.47000000000E+01 0.  1.
         -5    1    3    3    0  501 -0.95901370396E+02 -0.58932408624E+02 -0.22807214747E+03  0.25437982641E+03  0.47000000000E+01 0.  1.
          5    1    4    4  502    0 -0.72501782355E+01 -0.33418667615E+02 -0.33935887866E+02  0.48405649617E+02  0.47000000000E+01 0. -1.
         -5    1    4    4    0  502  0.68638036270E+02  0.84892547496E+02 -0.30473331457E+02  0.11344002192E+03  0.47000000000E+01 0. -1.
<mgrwt>
<rscale>  0 0.33523689E+03</rscale>
<asrwt>0</asrwt>
<pdfrwt beam="1">  1       21 0.10238247E-01 0.33523689E+03</pdfrwt>
<pdfrwt beam="2">  1       21 0.64951815E-01 0.33523689E+03</pdfrwt>
<totfact> 0.16326043E+05</totfact>
</mgrwt>
</event>
<event>
 8    1  0.9569852E-006  0.3542184E+03  0.7546771E-02  0.1060897E+00
         21   -1    0    0  504  503  0.00000000000E+00  0.00000000000E+00  0.39486864891E+02  0.39486864891E+02  0.00000000000E+00 0.  1.
         21   -1    0    0  503  504 -0.00000000000E+00 -0.00000000000E+00 -0.79438231095E+03  0.79438231095E+03  0.00000000000E+00 0.  1.
         25    2    1    2    0    0 -0.96873806883E+01 -0.16292853768E+02 -0.85467335255E+02  0.15260612134E+03  0.12499864178E+03 0.  0.
         25    2    1    2    0    0  0.96873806883E+01  0.16292853768E+02 -0.66942811080E+03  0.68126305450E+03  0.12500420579E+03 0.  0.
          5    1    3    3  501    0 -0.19892759811E+01 -0.12252553428E+02 -0.11792886445E+03  0.11867345683E+03  0.47000000000E+01 0. -1.
         -5    1    3    3    0  501 -0.76981047072E+01 -0.40403003402E+01  0.32461529199E+02  0.33932664512E+02  0.47000000000E+01 0. -1.
          5    1    4    4  502    0  0.66891468947E+01 -0.20497173489E+02 -0.61462676359E+03  0.61502278602E+03  0.47000000000E+01 0. -1.
         -5    1    4    4    0  502  0.29982337936E+01  0.36790027258E+02 -0.54801347216E+02  0.66240268479E+02  0.47000000000E+01 0. -1.
<mgrwt>
<rscale>  0 0.35421839E+03</rscale>
<asrwt>0</asrwt>
<pdfrwt beam="1">  1       21 0.60749023E-02 0.35421839E+03</pdfrwt>
<pdfrwt beam="2">  1       21 0.12221266E+00 0.35421839E+03</pdfrwt>
<totfact> 0.92012864E+04</totfact>
</mgrwt>
</event>
<event>
 8    1  0.9569852E-006  0.5882868E+03  0.7546771E-02  0.9930010E-01
         21   -1    0    0  504  503  0.00000000000E+00  0.00000000000E+00  0.64312044688E+02  0.64312044688E+02  0.00000000000E+00 0.  1.
         21   -1    0    0  503  504 -0.00000000000E+00 -0.00000000000E+00 -0.13453208860E+04  0.13453208860E+04  0.00000000000E+00 0.  1.
         25    2    1    2    0    0  0.24652142978E+02 -0.13307381982E+03 -0.11899470398E+04  0.12041244098E+04  0.12500106824E+03 0.  0.
         25    2    1    2    0    0 -0.24652142978E+02  0.13307381982E+03 -0.91061801501E+02  0.20550852088E+03  0.12500052316E+03 0.  0.
          5    1    3    3  501    0 -0.76100532620E+01 -0.38027589239E+02 -0.81533016907E+03  0.81626551137E+03  0.47000000000E+01 0.  1.
         -5    1    3    3    0  501  0.32262196240E+02 -0.95046230576E+02 -0.37461687073E+03  0.38785889843E+03  0.47000000000E+01 0.  1.
          5    1    4    4  502    0  0.22161666428E+02  0.14396023237E+02  0.22208934790E+02  0.34838365754E+02  0.47000000000E+01 0.  1.
         -5    1    4    4    0  502 -0.46813809407E+02  0.11867779658E+03 -0.11327073629E+03  0.17067015513E+03  0.47000000000E+01 0.  1.
<mgrwt>
<rscale>  0 0.58828679E+03</rscale>
<asrwt>0</asrwt>
<pdfrwt beam="1">  1       21 0.98941625E-02 0.58828679E+03</pdfrwt>
<pdfrwt beam="2">  1       21 0.20697241E+00 0.58828679E+03</pdfrwt>
<totfact> 0.83165845E+03</totfact>
</mgrwt>
</event>
<event>
 8    1  0.9569852E-006  0.2601239E+03  0.7546771E-02  0.1107069E+00
         21   -1    0    0  504  503  0.00000000000E+00  0.00000000000E+00  0.99053312247E+03  0.99053312247E+03  0.00000000000E+00 0.  1.
         21   -1    0    0  503  504 -0.00000000000E+00 -0.00000000000E+00 -0.17077778732E+02  0.17077778732E+02  0.00000000000E+00 0.  1.
         25    2    1    2    0    0  0.34542307200E+02 -0.94607559526E+01  0.47445945991E+03  0.49195439091E+03  0.12499866695E+03 0.  0.
         25    2    1    2    0    0 -0.34542307200E+02  0.94607559526E+01  0.49899588383E+03  0.51565651030E+03  0.12498827004E+03 0.  0.
          5    1    3    3  501    0  0.51812311777E+01 -0.52166193947E+02  0.92168747332E+02  0.10613823502E+03  0.47000000000E+01 0. -1.
         -5    1    3    3    0  501  0.29361076023E+02  0.42705437995E+02  0.38229071258E+03  0.38581615589E+03  0.47000000000E+01 0. -1.
          5    1    4    4  502    0  0.23356703759E+02  0.25063787584E+02  0.38690428512E+03  0.38844657921E+03  0.47000000000E+01 0. -1.
         -5    1    4    4    0  502 -0.57899010959E+02 -0.15603031631E+02  0.11209159871E+03  0.12720993109E+03  0.47000000000E+01 0. -1.
<mgrwt>
<rscale>  0 0.26012386E+03</rscale>
<asrwt>0</asrwt>
<pdfrwt beam="1">  1       21 0.15238967E+00 0.26012386E+03</pdfrwt>
<pdfrwt beam="2">  1       21 0.26273513E-02 0.26012386E+03</pdfrwt>
<totfact> 0.22023434E+05</totfact>
</mgrwt>
</event>
<event>
 8    1  0.9569852E-006  0.4598033E+03  0.7546771E-02  0.1024838E+00
         21   -1    0    0  504  503  0.00000000000E+00  0.00000000000E+00  0.13815015300E+04  0.13815015300E+04  0.00000000000E+00 0.  1.
         21   -1    0    0  503  504 -0.00000000000E+00 -0.00000000000E+00 -0.38258928121E+02  0.38258928121E+02  0.00000000000E+00 0.  1.
         25    2    1    2    0    0 -0.10900976242E+03 -0.12854889919E+03  0.38158303562E+03  0.43547271817E+03  0.12499170934E+03 0.  0.
         25    2    1    2    0    0  0.10900976242E+03  0.12854889919E+03  0.96165956625E+03  0.98428773995E+03  0.12500114347E+03 0.  0.
          5    1    3    3  501    0 -0.77867158190E+02 -0.81409254284E+02  0.10818643633E+03  0.15625989893E+03  0.47000000000E+01 0.  1.
         -5    1    3    3    0  501 -0.31142604228E+02 -0.47139644910E+02  0.27339659930E+03  0.27921281924E+03  0.47000000000E+01 0.  1.
          5    1    4    4  502    0  0.63284249673E+02  0.11289760178E+03  0.39801937855E+03  0.41855976926E+03  0.47000000000E+01 0.  1.
         -5    1    4    4    0  502  0.45725512744E+02  0.15651297416E+02  0.56364018770E+03  0.56572797068E+03  0.47000000000E+01 0.  1.
<mgrwt>
<rscale>  0 0.45980330E+03</rscale>
<asrwt>0</asrwt>
<pdfrwt beam="1">  1       21 0.21253866E+00 0.45980330E+03</pdfrwt>
<pdfrwt beam="2">  1       21 0.58859900E-02 0.45980330E+03</pdfrwt>
<totfact> 0.19958213E+04</totfact>
</mgrwt>
</event>
<event>
 8    1  0.9569852E-006  0.2835920E+03  0.7546771E-02  0.1093743E+00
         21   -1    0    0  504  503  0.00000000000E+00  0.00000000000E+00  0.17480312754E+03  0.17480312754E+03  0.00000000000E+00 0.  1.
         21   -1    0    0  503  504 -0.00000000000E+00 -0.00000000000E+00 -0.11502138951E+03  0.11502138951E+03  0.00000000000E+00 0.  1.
         25    2    1    2    0    0 -0.62481600837E+02 -0.22449865521E+02  0.38640078899E+02  0.14671882842E+03  0.12500164803E+03 0.  0.
         25    2    1    2    0    0  0.62481600837E+02  0.22449865521E+02  0.21141659132E+02  0.14310568864E+03  0.12499728583E+03 0.  0.
          5    1    3    3  501    0 -0.31452183079E+02  0.46951310346E+02 -0.82063350576E+01  0.57298335916E+02  0.47000000000E+01 0.  1.
         -5    1    3    3    0  501 -0.31029417757E+02 -0.69401175868E+02  0.46846413957E+02  0.89420492499E+02  0.47000000000E+01 0.  1.
          5    1    4    4  502    0  0.44667560653E+02  0.19133360600E+02 -0.49798584143E+02  0.69737116697E+02  0.47000000000E+01 0.  1.
         -5    1    4    4    0  502  0.17814040184E+02  0.33165049213E+01  0.70940243275E+02  0.73368571940E+02  0.47000000000E+01 0.  1.
<mgrwt>
<rscale>  0 0.28359195E+03</rscale>
<asrwt>0</asrwt>
<pdfrwt beam="1">  1       21 0.26892789E-01 0.28359195E+03</pdfrwt>
<pdfrwt beam="2">  1       21 0.17695598E-01 0.28359195E+03</pdfrwt>
<totfact> 0.37423801E+05</totfact>
</mgrwt>
</event>
<event>
 8    1  0.9569852E-006  0.3196176E+03  0.7546771E-02  0.1075825E+00
         21   -1    0    0  504  503  0.00000000000E+00  0.00000000000E+00  0.15515902418E+03  0.15515902418E+03  0.00000000000E+00 0. -1.
         21   -1    0    0  503  504 -0.00000000000E+00 -0.00000000000E+00 -0.16459795749E+03  0.16459795749E+03  0.00000000000E+00 0. -1.
         25    2    1    2    0    0  0.14321294527E+02 -0.97342752946E+02 -0.19985663885E+02  0.16032887075E+03  0.12500083602E+03 0.  0.
         25    2    1    2    0    0 -0.14321294527E+02  0.97342752946E+02  0.10546730578E+02  0.15942811092E+03  0.12500151199E+03 0.  0.
          5    1    3    3  501    0 -0.35580984434E+02 -0.11579594793E+02  0.30866522792E+02  0.48733209397E+02  0.47000000000E+01 0. -1.
         -5    1    3    3    0  501  0.49902278961E+02 -0.85763158153E+02 -0.50852186677E+02  0.11159566135E+03  0.47000000000E+01 0. -1.
          5    1    4    4  502    0  0.19495454242E+02  0.68035960166E+02 -0.47958381950E+02  0.85621615326E+02  0.47000000000E+01 0.  1.
         -5    1    4    4    0  502 -0.33816748769E+02  0.29306792781E+02  0.58505112529E+02  0.73806495598E+02  0.47000000000E+01 0.  1.
<mgrwt>
<rscale>  0 0.31961764E+03</rscale>
<asrwt>0</asrwt>
<pdfrwt beam="1">  1       21 0.23870619E-01 0.31961764E+03</pdfrwt>
<pdfrwt beam="2">  1       21 0.25322763E-01 0.31961764E+03</pdfrwt>
<totfact> 0.23701691E+05</totfact>
</mgrwt>
</event>
<event>
 8    1  0.9569852E-006  0.2773441E+03  0.7546771E-02  0.1097148E+00
         21   -1    0    0  504  503  0.00000000000E+00  0.00000000000E+00  0.47017660014E+03  0.47017660014E+03  0.00000000000E+00 0.  1.
         21   -1    0    0  503  504 -0.00000000000E+00 -0.00000000000E+00 -0.40899379286E+02  0.40899379286E+02  0.00000000000E+00 0.  1.
         25    2    1    2    0    0 -0.51633820965E+02  0.21440531468E+02  0.17424570808E+03  0.22160732372E+03  0.12498996474E+03 0.  0.
         25    2    1    2    0    0  0.51633820965E+02 -0.21440531468E+02  0.25503151278E+03  0.28946865571E+03  0.12500112908E+03 0.  0.
          5    1    3    3  501    0 -0.68516436941E+02  0.27747909178E+02  0.36441423148E+02  0.82550081259E+02  0.47000000000E+01 0. -1.
         -5    1    3    3    0  501  0.16882615976E+02 -0.63073777094E+01  0.13780428493E+03  0.13905724246E+03  0.47000000000E+01 0. -1.
          5    1    4    4  502    0  0.89288670397E+01  0.37487712907E+02  0.18261027863E+03  0.18669134191E+03  0.47000000000E+01 0.  1.
         -5    1    4    4    0  502  0.42704953925E+02 -0.58928244375E+02  0.72421234153E+02  0.10277731380E+03  0.47000000000E+01 0.  1.
<mgrwt>
<rscale>  0 0.27734405E+03</rscale>
<asrwt>0</asrwt>
<pdfrwt beam="1">  1       21 0.72334857E-01 0.27734405E+03</pdfrwt>
<pdfrwt beam="2">  1       21 0.62922126E-02 0.27734405E+03</pdfrwt>
<totfact> 0.30655293E+05</totfact>
</mgrwt>
</event>
<event>
 8    1  0.9569852E-006  0.2632241E+03  0.7546771E-02  0.1105221E+00
         21   -1    0    0  504  503  0.00000000000E+00  0.00000000000E+00  0.38702107085E+02  0.38702107085E+02  0.00000000000E+00 0. -1.
         21   -1    0    0  503  504 -0.00000000000E+00 -0.00000000000E+00 -0.44756555790E+03  0.44756555790E+03  0.00000000000E+00 0. -1.
         25    2    1    2    0    0  0.14507035334E+02  0.31516810506E+02 -0.24544593410E+03  0.27761882463E+03  0.12499896722E+03 0.  0.
         25    2    1    2    0    0 -0.14507035334E+02 -0.31516810506E+02 -0.16341751671E+03  0.20864884035E+03  0.12500116157E+03 0.  0.
          5    1    3    3  501    0  0.50591315599E+02 -0.18748491106E+02 -0.17760031739E+03  0.18567431128E+03  0.47000000000E+01 0.  1.
         -5    1    3    3    0  501 -0.36084280265E+02  0.50265301613E+02 -0.67845616707E+02  0.91944513348E+02  0.47000000000E+01 0.  1.
          5    1    4    4  502    0  0.33009589635E+02 -0.56414070893E+02 -0.12914014210E+03  0.14481521572E+03  0.47000000000E+01 0.  1.
         -5    1    4    4    0  502 -0.47516624969E+02  0.24897260386E+02 -0.34277374612E+02  0.63833624631E+02  0.47000000000E+01 0.  1.
<mgrwt>
<rscale>  0 0.26322409E+03</rscale>
<asrwt>0</asrwt>
<pdfrwt beam="1">  1       21 0.59541700E-02 0.26322409E+03</pdfrwt>
<pdfrwt beam="2">  1       21 0.68856243E-01 0.26322409E+03</pdfrwt>
<totfact> 0.37748943E+05</totfact>
</mgrwt>
</event>
<event>
 8    1  0.9569852E-006  0.2739024E+03  0.7546771E-02  0.1099067E+00
         21   -1    0    0  504  503  0.00000000000E+00  0.00000000000E+00  0.42542514033E+03  0.42542514033E+03  0.00000000000E+00 0. -1.
         21   -1    0    0  503  504 -0.00000000000E+00 -0.00000000000E+00 -0.44086782655E+02  0.44086782655E+02  0.00000000000E+00 0. -1.
         25    2    1    2    0    0 -0.14982153435E+02 -0.79366569621E+01  0.28206258950E+03  0.30898548231E+03  0.12500107374E+03 0.  0.
         25    2    1    2    0    0  0.14982153435E+02  0.79366569621E+01  0.99275768173E+02  0.16052644068E+03  0.12500241823E+03 0.  0.
          5    1    3    3  501    0  0.70990184207E+01 -0.60232274553E+02  0.20033318803E+03  0.20936522918E+03  0.47000000000E+01 0. -1.
         -5    1    3    3    0  501 -0.22081171856E+02  0.52295617591E+02  0.81729401470E+02  0.99620253133E+02  0.47000000000E+01 0. -1.
          5    1    4    4  502    0  0.14379840479E+02 -0.49255225768E+02  0.88098512180E+02  0.10206025145E+03  0.47000000000E+01 0. -1.
         -5    1    4    4    0  502  0.60231295627E+00  0.57191882730E+02  0.11177255993E+02  0.58466189226E+02  0.47000000000E+01 0. -1.
<mgrwt>
<rscale>  0 0.27390236E+03</rscale>
<asrwt>0</asrwt>
<pdfrwt beam="1">  1       21 0.65450019E-01 0.27390236E+03</pdfrwt>
<pdfrwt beam="2">  1       21 0.67825822E-02 0.27390236E+03</pdfrwt>
<totfact> 0.33626881E+05</totfact>
</mgrwt>
</event>
<event>
 8    1  0.9569852E-006  0.2758949E+03  0.7546771E-02  0.1097952E+00
         21   -1    0    0  504  503  0.00000000000E+00  0.00000000000E+00  0.41421939408E+03  0.41421939408E+03  0.00000000000E+00 0. -1.
         21   -1    0    0  503  504 -0.00000000000E+00 -0.00000000000E+00 -0.45940635067E+02  0.45940635067E+02  0.00000000000E+00 0. -1.
         25    2    1    2    0    0 -0.44245968384E+02 -0.29408635310E+02  0.22438046180E+03  0.26228695120E+03  0.12500111833E+03 0.  0.
         25    2    1    2    0    0  0.44245968384E+02  0.29408635310E+02  0.14389829722E+03  0.19787307795E+03  0.12499784593E+03 0.  0.
          5    1    3    3  501    0 -0.26827247194E+02 -0.77812270263E+02  0.15758809360E+03  0.17784979010E+03  0.47000000000E+01 0.  1.
         -5    1    3    3    0  501 -0.17418721190E+02  0.48403634953E+02  0.66792368198E+02  0.84437161097E+02  0.47000000000E+01 0.  1.
          5    1    4    4  502    0  0.60091618148E+02 -0.20605537229E+02  0.26110113125E+02  0.68843436460E+02  0.47000000000E+01 0.  1.
         -5    1    4    4    0  502 -0.15845649764E+02  0.50014172539E+02  0.11778818409E+03  0.12902964149E+03  0.47000000000E+01 0.  1.
<mgrwt>
<rscale>  0 0.27589492E+03</rscale>
<asrwt>0</asrwt>
<pdfrwt beam="1">  1       21 0.63726058E-01 0.27589492E+03</pdfrwt>
<pdfrwt beam="2">  1       21 0.70677903E-02 0.27589492E+03</pdfrwt>
<totfact> 0.33175555E+05</totfact>
</mgrwt>
</event>
<event>
 8    1  0.9569852E-006  0.3712062E+03  0.7546771E-02  0.1054233E+00
         21   -1    0    0  504  503  0.00000000000E+00  0.00000000000E+00  0.10352498503E+03  0.10352498503E+03  0.00000000000E+00 0. -1.
         21   -1    0    0  503  504 -0.00000000000E+00 -0.00000000000E+00 -0.33275546268E+03  0.33275546268E+03  0.00000000000E+00 0. -1.
         25    2    1    2    0    0  0.58865125851E+02  0.11110933885E+03 -0.50114521386E+02  0.18424776388E+03  0.12500154006E+03 0.  0.
         25    2    1    2    0    0 -0.58865125851E+02 -0.11110933885E+03 -0.17911595627E+03  0.25203268384E+03  0.12501023843E+03 0.  0.
          5    1    3    3  501    0 -0.13413964085E+02  0.40901852724E+02  0.32273137364E+02  0.54005012582E+02  0.47000000000E+01 0. -1.
         -5    1    3    3    0  501  0.72279089936E+02  0.70207486126E+02 -0.82387658750E+02  0.13024275129E+03  0.47000000000E+01 0. -1.
          5    1    4    4  502    0 -0.69137412458E+02 -0.95459262156E+02 -0.61854855346E+02  0.13319371480E+03  0.47000000000E+01 0. -1.
         -5    1    4    4    0  502  0.10272286607E+02 -0.15650076693E+02 -0.11726110092E+03  0.11883896904E+03  0.47000000000E+01 0. -1.
<mgrwt>
<rscale>  0 0.37120617E+03</rscale>
<asrwt>0</asrwt>
<pdfrwt beam="1">  1       21 0.15926921E-01 0.37120617E+03</pdfrwt>
<pdfrwt beam="2">  1       21 0.51193149E-01 0.37120617E+03</pdfrwt>
<totfact> 0.12120602E+05</totfact>
</mgrwt>
</event>
<event>
 8    1  0.9569852E-006  0.3709962E+03  0.7546771E-02  0.1054313E+00
         21   -1    0    0  504  503  0.00000000000E+00  0.00000000000E+00  0.12693418341E+04  0.12693418341E+04  0.00000000000E+00 0. -1.
         21   -1    0    0  503  504 -0.00000000000E+00 -0.00000000000E+00 -0.27108178651E+02  0.27108178651E+02  0.00000000000E+00 0. -1.
         25    2    1    2    0    0  0.12355647962E+03  0.54422893769E+02  0.70346510858E+03  0.72712903460E+03  0.12500167577E+03 0.  0.
         25    2    1    2    0    0 -0.12355647962E+03 -0.54422893769E+02  0.53876854692E+03  0.56932097820E+03  0.12500709598E+03 0.  0.
          5    1    3    3  501    0  0.12688699891E+03  0.68337069044E+02  0.43570457706E+03  0.45894534965E+03  0.47000000000E+01 0.  1.
         -5    1    3    3    0  501 -0.33305192824E+01 -0.13914175275E+02  0.26776053152E+03  0.26818368495E+03  0.47000000000E+01 0.  1.
          5    1    4    4  502    0 -0.29812267210E+02 -0.77882470154E+02  0.30723364176E+03  0.31838506727E+03  0.47000000000E+01 0. -1.
         -5    1    4    4    0  502 -0.93744212413E+02  0.23459576385E+02  0.23153490516E+03  0.25093591092E+03  0.47000000000E+01 0. -1.
<mgrwt>
<rscale>  0 0.37099620E+03</rscale>
<asrwt>0</asrwt>
<pdfrwt beam="1">  1       21 0.19528331E+00 0.37099620E+03</pdfrwt>
<pdfrwt beam="2">  1       21 0.41704900E-02 0.37099620E+03</pdfrwt>
<totfact> 0.48355803E+04</totfact>
</mgrwt>
</event>
<event>
 8    1  0.9569852E-006  0.3413321E+03  0.7546771E-02  0.1066230E+00
         21   -1    0    0  504  503  0.00000000000E+00  0.00000000000E+00  0.26338400049E+03  0.26338400049E+03  0.00000000000E+00 0. -1.
         21   -1    0    0  503  504 -0.00000000000E+00 -0.00000000000E+00 -0.11058723343E+03  0.11058723343E+03  0.00000000000E+00 0. -1.
         25    2    1    2    0    0  0.40847193704E+02  0.10655837878E+03  0.10033297549E+03  0.19676928174E+03  0.12501305109E+03 0.  0.
         25    2    1    2    0    0 -0.40847193704E+02 -0.10655837878E+03  0.52463791566E+02  0.17720195219E+03  0.12499960446E+03 0.  0.
          5    1    3    3  501    0  0.28663730591E+02 -0.16127794260E+02  0.57048548784E+02  0.66017740930E+02  0.47000000000E+01 0.  1.
         -5    1    3    3    0  501  0.12183463113E+02  0.12268617304E+03  0.43284426708E+02  0.13075154081E+03  0.47000000000E+01 0.  1.
          5    1    4    4  502    0 -0.35884557859E+01  0.27569178216E+02 -0.46143107522E+00  0.28199991508E+02  0.47000000000E+01 0. -1.
         -5    1    4    4    0  502 -0.37258737918E+02 -0.13412755699E+03  0.52925222642E+02  0.14900196068E+03  0.47000000000E+01 0. -1.
<mgrwt>
<rscale>  0 0.34133214E+03</rscale>
<asrwt>0</asrwt>
<pdfrwt beam="1">  1       21 0.40520615E-01 0.34133214E+03</pdfrwt>
<pdfrwt beam="2">  1       21 0.17013421E-01 0.34133214E+03</pdfrwt>
<totfact> 0.17576588E+05</totfact>
</mgrwt>
</event>
<event>
 8    1  0.9569852E-006  0.2590064E+03  0.7546771E-02  0.1107742E+00
         21   -1    0    0  504  503  0.00000000000E+00  0.00000000000E+00  0.33292771630E+02  0.33292771630E+02  0.00000000000E+00 0.  1.
         21   -1    0    0  503  504 -0.00000000000E+00 -0.00000000000E+00 -0.50374552525E+03  0.50374552525E+03  0.00000000000E+00 0.  1.
         25    2    1    2    0    0 -0.23169478230E+02 -0.20711544860E+02 -0.26312063622E+03  0.29295533055E+03  0.12499825471E+03 0.  0.
         25    2    1    2    0    0  0.23169478230E+02  0.20711544860E+02 -0.20733211740E+03  0.24408296633E+03  0.12499637889E+03 0.  0.
          5    1    3    3  501    0 -0.41614281402E+02 -0.40468335972E+02 -0.46281197325E+02  0.74387323240E+02  0.47000000000E+01 0. -1.
         -5    1    3    3    0  501  0.18444803172E+02  0.19756791113E+02 -0.21683943889E+03  0.21856800731E+03  0.47000000000E+01 0. -1.
          5    1    4    4  502    0 -0.50036881787E+02  0.14818405514E+02 -0.11199474465E+03  0.12364541039E+03  0.47000000000E+01 0.  1.
         -5    1    4    4    0  502  0.73206360017E+02  0.58931393463E+01 -0.95337372752E+02  0.12043755594E+03  0.47000000000E+01 0.  1.
<mgrwt>
<rscale>  0 0.25900645E+03</rscale>
<asrwt>0</asrwt>
<pdfrwt beam="1">  1       21 0.51219648E-02 0.25900645E+03</pdfrwt>
<pdfrwt beam="2">  1       21 0.77499313E-01 0.25900645E+03</pdfrwt>
<totfact> 0.37534448E+05</totfact>
</mgrwt>
</event>
<event>
 8    1  0.9569852E-006  0.2702333E+03  0.7546771E-02  0.1101146E+00
         21   -1    0    0  504  503  0.00000000000E+00  0.00000000000E+00  0.26956610940E+03  0.26956610940E+03  0.00000000000E+00 0. -1.
         21   -1    0    0  503  504 -0.00000000000E+00 -0.00000000000E+00 -0.67725550628E+02  0.67725550628E+02  0.00000000000E+00 0. -1.
         25    2    1    2    0    0 -0.10925113156E+02  0.34403561807E+02  0.55434473847E+02  0.14142878579E+03  0.12500462950E+03 0.  0.
         25    2    1    2    0    0  0.10925113156E+02 -0.34403561807E+02  0.14640608493E+03  0.19586287424E+03  0.12499824255E+03 0.  0.
          5    1    3    3  501    0 -0.40117184333E+02 -0.28429616524E+02 -0.46348170384E+01  0.49610514042E+02  0.47000000000E+01 0.  1.
         -5    1    3    3    0  501  0.29192071177E+02  0.62833178332E+02  0.60069290885E+02  0.91818271745E+02  0.47000000000E+01 0.  1.
          5    1    4    4  502    0 -0.36210646219E+02  0.82164097535E+01  0.12202692633E+03  0.12763769442E+03  0.47000000000E+01 0.  1.
         -5    1    4    4    0  502  0.47135759375E+02 -0.42619971561E+02  0.24379158604E+02  0.68225179823E+02  0.47000000000E+01 0.  1.
<mgrwt>
<rscale>  0 0.27023333E+03</rscale>
<asrwt>0</asrwt>
<pdfrwt beam="1">  1       21 0.41471709E-01 0.27023333E+03</pdfrwt>
<pdfrwt beam="2">  1       21 0.10419316E-01 0.27023333E+03</pdfrwt>
<totfact> 0.41554640E+05</totfact>
</mgrwt>
</event>
<event>
 8    1  0.9569852E-006  0.3721831E+03  0.7546771E-02  0.1053861E+00
         21   -1    0    0  504  503  0.00000000000E+00  0.00000000000E+00  0.25674551163E+03  0.25674551163E+03  0.00000000000E+00 0. -1.
         21   -1    0    0  503  504 -0.00000000000E+00 -0.00000000000E+00 -0.13488088121E+03  0.13488088121E+03  0.00000000000E+00 0. -1.
         25    2    1    2    0    0 -0.12018172443E+03  0.42289242730E+02  0.11634436998E+03  0.21305479258E+03  0.12499722107E+03 0.  0.
         25    2    1    2    0    0  0.12018172443E+03 -0.42289242730E+02  0.55202604416E+01  0.17857160026E+03  0.12500126482E+03 0.  0.
          5    1    3    3  501    0 -0.93368481972E+02 -0.97054888816E+01  0.13929968951E+02  0.95015809080E+02  0.47000000000E+01 0. -1.
         -5    1    3    3    0  501 -0.26813242456E+02  0.51994731612E+02  0.10241440103E+03  0.11803898350E+03  0.47000000000E+01 0. -1.
          5    1    4    4  502    0  0.10233525661E+03 -0.79452883264E+02  0.26116257603E+02  0.13224754937E+03  0.47000000000E+01 0.  1.
         -5    1    4    4    0  502  0.17846467822E+02  0.37163640534E+02 -0.20595997162E+02  0.46324050887E+02  0.47000000000E+01 0.  1.
<mgrwt>
<rscale>  0 0.37218308E+03</rscale>
<asrwt>0</asrwt>
<pdfrwt beam="1">  1       21 0.39499310E-01 0.37218308E+03</pdfrwt>
<pdfrwt beam="2">  1       21 0.20750905E-01 0.37218308E+03</pdfrwt>
<totfact> 0.12661808E+05</totfact>
</mgrwt>
</event>
<event>
 8    1  0.9569852E-006  0.3754060E+03  0.7546771E-02  0.1052645E+00
         21   -1    0    0  504  503  0.00000000000E+00  0.00000000000E+00  0.34279446657E+03  0.34279446657E+03  0.00000000000E+00 0. -1.
         21   -1    0    0  503  504 -0.00000000000E+00 -0.00000000000E+00 -0.10277998953E+03  0.10277998953E+03  0.00000000000E+00 0. -1.
         25    2    1    2    0    0  0.12923243152E+03 -0.52540059045E+02  0.10562501777E+03  0.21503844022E+03  0.12499362877E+03 0.  0.
         25    2    1    2    0    0 -0.12923243152E+03  0.52540059045E+02  0.13438945927E+03  0.23053601588E+03  0.12499939478E+03 0.  0.
          5    1    3    3  501    0 -0.72475620240E+01 -0.49765321777E+02  0.33101497579E+02  0.60389680815E+02  0.47000000000E+01 0.  1.
         -5    1    3    3    0  501  0.13647999355E+03 -0.27747372673E+01  0.72523520190E+02  0.15464875941E+03  0.47000000000E+01 0.  1.
          5    1    4    4  502    0 -0.13642291439E+02  0.44089062929E+02  0.98891693159E+02  0.10923193014E+03  0.47000000000E+01 0.  1.
         -5    1    4    4    0  502 -0.11559014008E+03  0.84509961154E+01  0.35497766116E+02  0.12130408575E+03  0.47000000000E+01 0.  1.
<mgrwt>
<rscale>  0 0.37540598E+03</rscale>
<asrwt>0</asrwt>
<pdfrwt beam="1">  1       21 0.52737610E-01 0.37540598E+03</pdfrwt>
<pdfrwt beam="2">  1       21 0.15812306E-01 0.37540598E+03</pdfrwt>
<totfact> 0.11519999E+05</totfact>
</mgrwt>
</event>
<event>
 8    1  0.9569852E-006  0.4449578E+03  0.7546771E-02  0.1029236E+00
         21   -1    0    0  504  503  0.00000000000E+00  0.00000000000E+00  0.20476433122E+03  0.20476433122E+03  0.00000000000E+00 0. -1.
         21   -1    0    0  503  504 -0.00000000000E+00 -0.00000000000E+00 -0.24172594201E+03  0.24172594201E+03  0.00000000000E+00 0. -1.
         25    2    1    2    0    0  0.26445374790E+02  0.49922673024E+02 -0.19423155899E+03  0.23780245298E+03  0.12502990445E+03 0.  0.
         25    2    1    2    0    0 -0.26445374790E+02 -0.49922673024E+02  0.15726994820E+03  0.20868782025E+03  0.12500055433E+03 0.  0.
          5    1    3    3  501    0  0.18152681133E+02  0.36552179791E+02  0.17650737615E+01  0.41119182448E+02  0.47000000000E+01 0. -1.
         -5    1    3    3    0  501  0.82926936571E+01  0.13370493233E+02 -0.19599663275E+03  0.19668327053E+03  0.47000000000E+01 0. -1.
          5    1    4    4  502    0 -0.37769459779E+02  0.29707507765E+02  0.26461317632E+02  0.55057782742E+02  0.47000000000E+01 0. -1.
         -5    1    4    4    0  502  0.11324084989E+02 -0.79630180789E+02  0.13080863056E+03  0.15363003750E+03  0.47000000000E+01 0. -1.
<mgrwt>
<rscale>  0 0.44495775E+03</rscale>
<asrwt>0</asrwt>
<pdfrwt beam="1">  1       21 0.31502205E-01 0.44495775E+03</pdfrwt>
<pdfrwt beam="2">  1       21 0.37188607E-01 0.44495775E+03</pdfrwt>
<totfact> 0.62548042E+04</totfact>
</mgrwt>
</event>
<event>
 8    1  0.9569852E-006  0.2550428E+03  0.7546771E-02  0.1110159E+00
         21   -1    0    0  504  503  0.00000000000E+00  0.00000000000E+00  0.20868469481E+02  0.20868469481E+02  0.00000000000E+00 0.  1.
         21   -1    0    0  503  504 -0.00000000000E+00 -0.00000000000E+00 -0.77924748061E+03  0.77924748061E+03  0.00000000000E+00 0.  1.
         25    2    1    2    0    0 -0.64996027212E+01 -0.22419503896E+02 -0.40930895800E+03  0.42860461288E+03  0.12499284818E+03 0.  0.
         25    2    1    2    0    0  0.64996027212E+01  0.22419503896E+02 -0.34907005313E+03  0.37151133721E+03  0.12500357072E+03 0.  0.
          5    1    3    3  501    0 -0.10281834049E+00  0.11848497193E+01 -0.40284755585E+03  0.40287672766E+03  0.47000000000E+01 0. -1.
         -5    1    3    3    0  501 -0.63967843807E+01 -0.23604353615E+02 -0.64614021482E+01  0.25727885217E+02  0.47000000000E+01 0. -1.
          5    1    4    4  502    0 -0.13228909932E+02 -0.48681509362E+02 -0.17971152173E+03  0.18671693671E+03  0.47000000000E+01 0.  1.
         -5    1    4    4    0  502  0.19728512653E+02  0.71101013258E+02 -0.16935853140E+03  0.18479440050E+03  0.47000000000E+01 0.  1.
<mgrwt>
<rscale>  0 0.25504276E+03</rscale>
<asrwt>0</asrwt>
<pdfrwt beam="1">  1       21 0.32105342E-02 0.25504276E+03</pdfrwt>
<pdfrwt beam="2">  1       21 0.11988421E+00 0.25504276E+03</pdfrwt>
<totfact> 0.29368029E+05</totfact>
</mgrwt>
</event>
<event>
 8    1  0.9569852E-006  0.2676330E+03  0.7546771E-02  0.1102642E+00
         21   -1    0    0  504  503  0.00000000000E+00  0.00000000000E+00  0.20049148024E+03  0.20049148024E+03  0.00000000000E+00 0.  1.
         21   -1    0    0  503  504 -0.00000000000E+00 -0.00000000000E+00 -0.89314817933E+02  0.89314817933E+02  0.00000000000E+00 0.  1.
         25    2    1    2    0    0 -0.19913516781E+02  0.29996942245E+02  0.89589860450E+02  0.15794590318E+03  0.12499680212E+03 0.  0.
         25    2    1    2    0    0  0.19913516781E+02 -0.29996942245E+02  0.21586801861E+02  0.13186039500E+03  0.12499923624E+03 0.  0.
          5    1    3    3  501    0 -0.54765861030E+02  0.16567195359E+02  0.10305370850E+03  0.11796579306E+03  0.47000000000E+01 0.  1.
         -5    1    3    3    0  501  0.34852344250E+02  0.13429746886E+02 -0.13463848047E+02  0.39980110122E+02  0.47000000000E+01 0.  1.
          5    1    4    4  502    0  0.59863074997E+02 -0.50194749043E+02  0.33756315921E+02  0.85233088904E+02  0.47000000000E+01 0. -1.
         -5    1    4    4    0  502 -0.39949558216E+02  0.20197806797E+02 -0.12169514060E+02  0.46627306094E+02  0.47000000000E+01 0. -1.
<mgrwt>
<rscale>  0 0.26763303E+03</rscale>
<asrwt>0</asrwt>
<pdfrwt beam="1">  1       21 0.30844843E-01 0.26763303E+03</pdfrwt>
<pdfrwt beam="2">  1       21 0.13740741E-01 0.26763303E+03</pdfrwt>
<totfact> 0.45733487E+05</totfact>
</mgrwt>
</event>
<event>
 8    1  0.9569852E-006  0.2782135E+03  0.7546771E-02  0.1096669E+00
         21   -1    0    0  504  503  0.00000000000E+00  0.00000000000E+00  0.12646536617E+03  0.12646536617E+03  0.00000000000E+00 0. -1.
         21   -1    0    0  503  504 -0.00000000000E+00 -0.00000000000E+00 -0.15301170681E+03  0.15301170681E+03  0.00000000000E+00 0. -1.
         25    2    1    2    0    0  0.42583247538E+02  0.43283120685E+02 -0.70457514692E+01  0.13914713926E+03  0.12500208896E+03 0.  0.
         25    2    1    2    0    0 -0.42583247538E+02 -0.43283120685E+02 -0.19500589177E+02  0.14032993372E+03  0.12500182324E+03 0.  0.
          5    1    3    3  501    0  0.80061838704E+02 -0.11351423276E+01 -0.96242620751E+01  0.80783061252E+02  0.47000000000E+01 0.  1.
         -5    1    3    3    0  501 -0.37478591166E+02  0.44418263012E+02  0.25785106059E+01  0.58364078008E+02  0.47000000000E+01 0.  1.
          5    1    4    4  502    0 -0.47049396039E+02 -0.77880243222E+02  0.13470220125E+02  0.92100568849E+02  0.47000000000E+01 0.  1.
         -5    1    4    4    0  502  0.44661485012E+01  0.34597122538E+02 -0.32970809301E+02  0.48229364875E+02  0.47000000000E+01 0.  1.
<mgrwt>
<rscale>  0 0.27821345E+03</rscale>
<asrwt>0</asrwt>
<pdfrwt beam="1">  1       21 0.19456210E-01 0.27821345E+03</pdfrwt>
<pdfrwt beam="2">  1       21 0.23540263E-01 0.27821345E+03</pdfrwt>
<totfact> 0.40548031E+05</totfact>
</mgrwt>
</event>
<event>
 8    1  0.9569852E-006  0.3123873E+03  0.7546771E-02  0.1079207E+00
         21   -1    0    0  504  503  0.00000000000E+00  0.00000000000E+00  0.23275373253E+03  0.23275373253E+03  0.00000000000E+00 0.  1.
         21   -1    0    0  503  504 -0.00000000000E+00 -0.00000000000E+00 -0.10481662588E+03  0.10481662588E+03  0.00000000000E+00 0.  1.
         25    2    1    2    0    0  0.59738326349E+02 -0.63889809332E+02  0.10016456385E+03  0.18249458787E+03  0.12498303636E+03 0.  0.
         25    2    1    2    0    0 -0.59738326349E+02  0.63889809332E+02  0.27772542801E+02  0.15507577054E+03  0.12500642025E+03 0.  0.
          5    1    3    3  501    0 -0.34054183670E+02  0.66357632715E+01  0.20336583375E+02  0.40489349254E+02  0.47000000000E+01 0. -1.
         -5    1    3    3    0  501  0.93792510019E+02 -0.70525572604E+02  0.79827980472E+02  0.14200523861E+03  0.47000000000E+01 0. -1.
          5    1    4    4  502    0 -0.45246205225E+00  0.85672627480E+02 -0.28641079618E+00  0.85803122626E+02  0.47000000000E+01 0.  1.
         -5    1    4    4    0  502 -0.59285864297E+02 -0.21782818148E+02  0.28058953597E+02  0.69272647913E+02  0.47000000000E+01 0.  1.
<mgrwt>
<rscale>  0 0.31238733E+03</rscale>
<asrwt>0</asrwt>
<pdfrwt beam="1">  1       21 0.35808266E-01 0.31238733E+03</pdfrwt>
<pdfrwt beam="2">  1       21 0.16125635E-01 0.31238733E+03</pdfrwt>
<totfact> 0.25108117E+05</totfact>
</mgrwt>
</event>
<event>
 8    1  0.9569852E-006  0.4940494E+03  0.7546771E-02  0.1015344E+00
         21   -1    0    0  504  503  0.00000000000E+00  0.00000000000E+00  0.15566189142E+03  0.15566189142E+03  0.00000000000E+00 0.  1.
         21   -1    0    0  503  504 -0.00000000000E+00 -0.00000000000E+00 -0.39201126191E+03  0.39201126191E+03  0.00000000000E+00 0.  1.
         25    2    1    2    0    0 -0.49925652978E+02  0.18173309304E+03 -0.22834495632E+03  0.32138159331E+03  0.12500088604E+03 0.  0.
         25    2    1    2    0    0  0.49925652978E+02 -0.18173309304E+03 -0.80044141781E+01  0.22629156002E+03  0.12499724620E+03 0.  0.
          5    1    3    3  501    0 -0.95879514673E+01 -0.86932228912E+01 -0.67323600151E+02  0.68717232736E+02  0.47000000000E+01 0.  1.
         -5    1    3    3    0  501 -0.40337701511E+02  0.19042631593E+03 -0.16102135617E+03  0.25266436058E+03  0.47000000000E+01 0.  1.
          5    1    4    4  502    0 -0.58974293494E+01 -0.46785842195E+02  0.50179192295E+02  0.69019823545E+02  0.47000000000E+01 0.  1.
         -5    1    4    4    0  502  0.55823082328E+02 -0.13494725085E+03 -0.58183606473E+02  0.15727173648E+03  0.47000000000E+01 0.  1.
<mgrwt>
<rscale>  0 0.49404945E+03</rscale>
<asrwt>0</asrwt>
<pdfrwt beam="1">  1       21 0.23947983E-01 0.49404945E+03</pdfrwt>
<pdfrwt beam="2">  1       21 0.60309425E-01 0.49404945E+03</pdfrwt>
<totfact> 0.38216003E+04</totfact>
</mgrwt>
</event>
<event>
 8    1  0.9569852E-006  0.2938777E+03  0.7546771E-02  0.1088342E+00
         21   -1    0    0  504  503  0.00000000000E+00  0.00000000000E+00  0.22347799429E+03  0.22347799429E+03  0.00000000000E+00 0.  1.
         21   -1    0    0  503  504 -0.00000000000E+00 -0.00000000000E+00 -0.96613668671E+02  0.96613668671E+02  0.00000000000E+00 0.  1.
         25    2    1    2    0    0 -0.19430439250E+02  0.26599733411E+02 -0.12657594024E+02  0.12989016102E+03  0.12500460574E+03 0.  0.
         25    2    1    2    0    0  0.19430439250E+02 -0.26599733411E+02  0.13952191964E+03  0.19020150194E+03  0.12500062997E+03 0.  0.
          5    1    3    3  501    0 -0.44102121388E+02 -0.38734680753E+02 -0.75577744314E+00  0.58890014464E+02  0.47000000000E+01 0. -1.
         -5    1    3    3    0  501  0.24671682138E+02  0.65334414164E+02 -0.11901816581E+02  0.71000146560E+02  0.47000000000E+01 0. -1.
          5    1    4    4  502    0 -0.21818719987E+02 -0.50983648833E+02  0.12959683944E+03  0.14104190790E+03  0.47000000000E+01 0. -1.
         -5    1    4    4    0  502  0.41249159237E+02  0.24383915422E+02  0.99250802000E+01  0.49159594039E+02  0.47000000000E+01 0. -1.
<mgrwt>
<rscale>  0 0.29387772E+03</rscale>
<asrwt>0</asrwt>
<pdfrwt beam="1">  1       21 0.34381230E-01 0.29387772E+03</pdfrwt>
<pdfrwt beam="2">  1       21 0.14863641E-01 0.29387772E+03</pdfrwt>
<totfact> 0.31777152E+05</totfact>
</mgrwt>
</event>
<event>
 8    1  0.9569852E-006  0.3107222E+03  0.7546771E-02  0.1080000E+00
         21   -1    0    0  504  503  0.00000000000E+00  0.00000000000E+00  0.26648297283E+02  0.26648297283E+02  0.00000000000E+00 0.  1.
         21   -1    0    0  503  504 -0.00000000000E+00 -0.00000000000E+00 -0.90576421946E+03  0.90576421946E+03  0.00000000000E+00 0.  1.
         25    2    1    2    0    0  0.43053010990E+02  0.73555397110E+02 -0.54556979657E+03  0.56615837536E+03  0.12499977943E+03 0.  0.
         25    2    1    2    0    0 -0.43053010990E+02 -0.73555397110E+02 -0.33354612561E+03  0.36625414139E+03  0.12500047990E+03 0.  0.
          5    1    3    3  501    0 -0.17436460418E+01  0.34455056603E+02 -0.46295262844E+03  0.46426007519E+03  0.47000000000E+01 0. -1.
         -5    1    3    3    0  501  0.44796657031E+02  0.39100340507E+02 -0.82617168124E+02  0.10189830017E+03  0.47000000000E+01 0. -1.
          5    1    4    4  502    0  0.10160421395E+01 -0.78100439111E+02 -0.30120166949E+03  0.31119968933E+03  0.47000000000E+01 0. -1.
         -5    1    4    4    0  502 -0.44069053129E+02  0.45450420009E+01 -0.32344456120E+02  0.55054452065E+02  0.47000000000E+01 0. -1.
<mgrwt>
<rscale>  0 0.31072222E+03</rscale>
<asrwt>0</asrwt>
<pdfrwt beam="1">  1       21 0.40997381E-02 0.31072222E+03</pdfrwt>
<pdfrwt beam="2">  1       21 0.13934834E+00 0.31072222E+03</pdfrwt>
<totfact> 0.13041167E+05</totfact>
</mgrwt>
</event>
<event>
 8    1  0.9569852E-006  0.5450548E+03  0.7546771E-02  0.1002645E+00
         21   -1    0    0  504  503  0.00000000000E+00  0.00000000000E+00  0.15159623566E+03  0.15159623566E+03  0.00000000000E+00 0.  1.
         21   -1    0    0  503  504 -0.00000000000E+00 -0.00000000000E+00 -0.48992759867E+03  0.48992759867E+03  0.00000000000E+00 0.  1.
         25    2    1    2    0    0 -0.34708260486E+02  0.23966868591E+03 -0.16800355640E+03  0.32015030861E+03  0.12500113113E+03 0.  0.
         25    2    1    2    0    0  0.34708260486E+02 -0.23966868591E+03 -0.17032780661E+03  0.32137352572E+03  0.12499455577E+03 0.  0.
          5    1    3    3  501    0 -0.51466350986E+02  0.17951893845E+03 -0.61626980778E+02  0.19671250420E+03  0.47000000000E+01 0.  1.
         -5    1    3    3    0  501  0.16758090500E+02  0.60149747461E+02 -0.10637657562E+03  0.12343780441E+03  0.47000000000E+01 0.  1.
          5    1    4    4  502    0  0.56241915522E+02 -0.24014343198E+03 -0.16951097186E+03  0.29931268027E+03  0.47000000000E+01 0. -1.
         -5    1    4    4    0  502 -0.21533655036E+02  0.47474606972E+00 -0.81683475210E+00  0.22060845452E+02  0.47000000000E+01 0. -1.
<mgrwt>
<rscale>  0 0.54505479E+03</rscale>
<asrwt>0</asrwt>
<pdfrwt beam="1">  1       21 0.23322497E-01 0.54505479E+03</pdfrwt>
<pdfrwt beam="2">  1       21 0.75373478E-01 0.54505479E+03</pdfrwt>
<totfact> 0.24131581E+04</totfact>
</mgrwt>
</event>
<event>
 8    1  0.9569852E-006  0.8278510E+03  0.7546771E-02  0.9520556E-01
         21   -1    0    0  504  503  0.00000000000E+00  0.00000000000E+00  0.19885732537E+03  0.19885732537E+03  0.00000000000E+00 0.  1.
         21   -1    0    0  503  504 -0.00000000000E+00 -0.00000000000E+00 -0.86159416764E+03  0.86159416764E+03  0.00000000000E+00 0.  1.
         25    2    1    2    0    0 -0.27254737761E+03 -0.10915641424E+03 -0.66909744968E+03  0.74129217706E+03  0.12500199512E+03 0.  0.
         25    2    1    2    0    0  0.27254737761E+03  0.10915641424E+03  0.63606074167E+01  0.31915931596E+03  0.12500006330E+03 0.  0.
          5    1    3    3  501    0 -0.14139056362E+03 -0.49798623165E+02 -0.48429286251E+03  0.50698408361E+03  0.47000000000E+01 0.  1.
         -5    1    3    3    0  501 -0.13115681399E+03 -0.59357791076E+02 -0.18480458717E+03  0.23430809345E+03  0.47000000000E+01 0.  1.
          5    1    4    4  502    0  0.15168815468E+03  0.67748962624E+01  0.40158674133E+02  0.15713053362E+03  0.47000000000E+01 0. -1.
         -5    1    4    4    0  502  0.12085922293E+03  0.10238151798E+03 -0.33798066716E+02  0.16202878233E+03  0.47000000000E+01 0. -1.
<mgrwt>
<rscale>  0 0.82785098E+03</rscale>
<asrwt>0</asrwt>
<pdfrwt beam="1">  1       21 0.30593435E-01 0.82785098E+03</pdfrwt>
<pdfrwt beam="2">  1       21 0.13255295E+00 0.82785098E+03</pdfrwt>
<totfact> 0.33288185E+03</totfact>
</mgrwt>
</event>
<event>
 8    1  0.9569852E-006  0.2626680E+03  0.7546771E-02  0.1105551E+00
         21   -1    0    0  504  503  0.00000000000E+00  0.00000000000E+00  0.29344612340E+02  0.29344612340E+02  0.00000000000E+00 0.  1.
         21   -1    0    0  503  504 -0.00000000000E+00 -0.00000000000E+00 -0.58779530017E+03  0.58779530017E+03  0.00000000000E+00 0.  1.
         25    2    1    2    0    0  0.31699231302E+01  0.31927461423E+02 -0.33649543582E+03  0.36039237675E+03  0.12499630269E+03 0.  0.
         25    2    1    2    0    0 -0.31699231302E+01 -0.31927461423E+02 -0.22195525201E+03  0.25674753576E+03  0.12500300804E+03 0.  0.
          5    1    3    3  501    0  0.33156443084E+02 -0.19955141872E+02 -0.26097665967E+03  0.26387206047E+03  0.47000000000E+01 0. -1.
         -5    1    3    3    0  501 -0.29986519954E+02  0.51882603294E+02 -0.75518776154E+02  0.96520316283E+02  0.47000000000E+01 0. -1.
          5    1    4    4  502    0  0.19027030156E+02 -0.38196184587E+02 -0.22835374282E+03  0.23235425164E+03  0.47000000000E+01 0. -1.
         -5    1    4    4    0  502 -0.22196953286E+02  0.62687231646E+01  0.63984908162E+01  0.24393284117E+02  0.47000000000E+01 0. -1.
<mgrwt>
<rscale>  0 0.26266804E+03</rscale>
<asrwt>0</asrwt>
<pdfrwt beam="1">  1       21 0.45145556E-02 0.26266804E+03</pdfrwt>
<pdfrwt beam="2">  1       21 0.90430049E-01 0.26266804E+03</pdfrwt>
<totfact> 0.32607048E+05</totfact>
</mgrwt>
</event>
<event>
 8    1  0.9569852E-006  0.2684005E+03  0.7546771E-02  0.1102199E+00
         21   -1    0    0  504  503  0.00000000000E+00  0.00000000000E+00  0.27998097141E+03  0.27998097141E+03  0.00000000000E+00 0. -1.
         21   -1    0    0  503  504 -0.00000000000E+00 -0.00000000000E+00 -0.64324751705E+02  0.64324751705E+02  0.00000000000E+00 0. -1.
         25    2    1    2    0    0 -0.17964581150E+02 -0.24636514657E+00  0.49565434301E+02  0.13566365714E+03  0.12500043487E+03 0.  0.
         25    2    1    2    0    0  0.17964581150E+02  0.24636514657E+00  0.16609078541E+03  0.20864206598E+03  0.12499030294E+03 0.  0.
          5    1    3    3  501    0 -0.18111180152E+02 -0.23588575603E+02 -0.35951359286E+02  0.46893773360E+02  0.47000000000E+01 0.  1.
         -5    1    3    3    0  501  0.14659900186E+00  0.23342210457E+02  0.85516793587E+02  0.88769883776E+02  0.47000000000E+01 0.  1.
          5    1    4    4  502    0 -0.52850588720E+02  0.95335932184E+01  0.83035873094E+02  0.99000607817E+02  0.47000000000E+01 0. -1.
         -5    1    4    4    0  502  0.70815169869E+02 -0.92872280718E+01  0.83054912312E+02  0.10964145816E+03  0.47000000000E+01 0. -1.
<mgrwt>
<rscale>  0 0.26840050E+03</rscale>
<asrwt>0</asrwt>
<pdfrwt beam="1">  1       21 0.43073995E-01 0.26840050E+03</pdfrwt>
<pdfrwt beam="2">  1       21 0.98961158E-02 0.26840050E+03</pdfrwt>
<totfact> 0.42154543E+05</totfact>
</mgrwt>
</event>
<event>
 8    1  0.9569852E-006  0.5283693E+03  0.7546771E-02  0.1006628E+00
         21   -1    0    0  504  503  0.00000000000E+00  0.00000000000E+00  0.49197370193E+03  0.49197370193E+03  0.00000000000E+00 0.  1.
         21   -1    0    0  503  504 -0.00000000000E+00 -0.00000000000E+00 -0.14186434554E+03  0.14186434554E+03  0.00000000000E+00 0.  1.
         25    2    1    2    0    0  0.61967685526E+02  0.13582995485E+03  0.38922632128E+03  0.43522019979E+03  0.12501888836E+03 0.  0.
         25    2    1    2    0    0 -0.61967685526E+02 -0.13582995485E+03 -0.39116964884E+02  0.19861784769E+03  0.12501656608E+03 0.  0.
          5    1    3    3  501    0  0.82712889331E+02  0.32144908463E+02  0.17447054180E+03  0.19579779661E+03  0.47000000000E+01 0.  1.
         -5    1    3    3    0  501 -0.20745203805E+02  0.10368504638E+03  0.21475577948E+03  0.23942240318E+03  0.47000000000E+01 0.  1.
          5    1    4    4  502    0  0.22078708742E+02 -0.90373649504E+02 -0.43593492536E+02  0.10284623715E+03  0.47000000000E+01 0.  1.
         -5    1    4    4    0  502 -0.84046394268E+02 -0.45456305341E+02  0.44765276522E+01  0.95771610536E+02  0.47000000000E+01 0.  1.
<mgrwt>
<rscale>  0 0.52836929E+03</rscale>
<asrwt>0</asrwt>
<pdfrwt beam="1">  1       21 0.75688261E-01 0.52836929E+03</pdfrwt>
<pdfrwt beam="2">  1       21 0.21825284E-01 0.52836929E+03</pdfrwt>
<totfact> 0.27267097E+04</totfact>
</mgrwt>
</event>
<event>
 8    1  0.9569852E-006  0.5340414E+03  0.7546771E-02  0.1005257E+00
         21   -1    0    0  504  503  0.00000000000E+00  0.00000000000E+00  0.33283875424E+03  0.33283875424E+03  0.00000000000E+00 0.  1.
         21   -1    0    0  503  504 -0.00000000000E+00 -0.00000000000E+00 -0.21421799638E+03  0.21421799638E+03  0.00000000000E+00 0.  1.
         25    2    1    2    0    0 -0.17888788923E+03  0.15373163674E+03  0.65830344443E+02  0.27494259867E+03  0.12500202104E+03 0.  0.
         25    2    1    2    0    0  0.17888788923E+03 -0.15373163674E+03  0.52790413416E+02  0.27211415195E+03  0.12499996358E+03 0.  0.
          5    1    3    3  501    0 -0.14053643677E+03  0.75642931344E+02  0.91609794412E+02  0.18408364282E+03  0.47000000000E+01 0.  1.
         -5    1    3    3    0  501 -0.38351452455E+02  0.78088705397E+02 -0.25779449969E+02  0.90858955842E+02  0.47000000000E+01 0.  1.
          5    1    4    4  502    0  0.48851384228E+02 -0.28618996966E+02 -0.39678076299E+02  0.69296063865E+02  0.47000000000E+01 0.  1.
         -5    1    4    4    0  502  0.13003650500E+03 -0.12511263978E+03  0.92468489716E+02  0.20281808809E+03  0.47000000000E+01 0.  1.
<mgrwt>
<rscale>  0 0.53404139E+03</rscale>
<asrwt>0</asrwt>
<pdfrwt beam="1">  1       21 0.51205962E-01 0.53404139E+03</pdfrwt>
<pdfrwt beam="2">  1       21 0.32956615E-01 0.53404139E+03</pdfrwt>
<totfact> 0.28749514E+04</totfact>
</mgrwt>
</event>
<event>
 8    1  0.9569852E-006  0.3235750E+03  0.7546771E-02  0.1074016E+00
         21   -1    0    0  504  503  0.00000000000E+00  0.00000000000E+00  0.25240161162E+03  0.25240161162E+03  0.00000000000E+00 0.  1.
         21   -1    0    0  503  504 -0.00000000000E+00 -0.00000000000E+00 -0.10370454743E+03  0.10370454743E+03  0.00000000000E+00 0.  1.
         25    2    1    2    0    0  0.50211379376E+02  0.64167537900E+02  0.14317670320E+03  0.20679207592E+03  0.12499895514E+03 0.  0.
         25    2    1    2    0    0 -0.50211379376E+02 -0.64167537900E+02  0.55203609866E+01  0.14931408313E+03  0.12500226196E+03 0.  0.
          5    1    3    3  501    0  0.84326378732E+02  0.75118686474E+02  0.11058226864E+03  0.15812742756E+03  0.47000000000E+01 0.  1.
         -5    1    3    3    0  501 -0.34114999356E+02 -0.10951148575E+02  0.32594434560E+02  0.48664648364E+02  0.47000000000E+01 0.  1.
          5    1    4    4  502    0 -0.27959360977E+02 -0.10154161202E+03  0.23954522247E+01  0.10545261035E+03  0.47000000000E+01 0.  1.
         -5    1    4    4    0  502 -0.22252018399E+02  0.37374074122E+02  0.31249087620E+01  0.43861472776E+02  0.47000000000E+01 0.  1.
<mgrwt>
<rscale>  0 0.32357500E+03</rscale>
<asrwt>0</asrwt>
<pdfrwt beam="1">  1       21 0.38831017E-01 0.32357500E+03</pdfrwt>
<pdfrwt beam="2">  1       21 0.15954546E-01 0.32357500E+03</pdfrwt>
<totfact> 0.21685247E+05</totfact>
</mgrwt>
</event>
<event>
 8    1  0.9569852E-006  0.2967440E+03  0.7546771E-02  0.1086880E+00
         21   -1    0    0  504  503  0.00000000000E+00  0.00000000000E+00  0.62739053986E+03  0.62739053986E+03  0.00000000000E+00 0.  1.
         21   -1    0    0  503  504 -0.00000000000E+00 -0.00000000000E+00 -0.35088595426E+02  0.35088595426E+02  0.00000000000E+00 0.  1.
         25    2    1    2    0    0  0.89975171741E+01 -0.33700174060E+02  0.13556952818E+03  0.18766876571E+03  0.12499524633E+03 0.  0.
         25    2    1    2    0    0 -0.89975171741E+01  0.33700174060E+02  0.45673241626E+03  0.47481036958E+03  0.12499491970E+03 0.  0.
          5    1    3    3  501    0  0.42779860353E+02 -0.68127250785E+02  0.94074979991E+02  0.12386940951E+03  0.47000000000E+01 0. -1.
         -5    1    3    3    0  501 -0.33782343179E+02  0.34427076726E+02  0.41494548187E+02  0.63799356202E+02  0.47000000000E+01 0. -1.
          5    1    4    4  502    0  0.37819272270E+02 -0.28988139264E+01  0.35383558477E+03  0.35589382058E+03  0.47000000000E+01 0.  1.
         -5    1    4    4    0  502 -0.46816789444E+02  0.36598987986E+02  0.10289683149E+03  0.11891654900E+03  0.47000000000E+01 0.  1.
<mgrwt>
<rscale>  0 0.29674402E+03</rscale>
<asrwt>0</asrwt>
<pdfrwt beam="1">  1       21 0.96521613E-01 0.29674402E+03</pdfrwt>
<pdfrwt beam="2">  1       21 0.53982459E-02 0.29674402E+03</pdfrwt>
<totfact> 0.20435571E+05</totfact>
</mgrwt>
</event>
<event>
 8    1  0.9569852E-006  0.5354664E+03  0.7546771E-02  0.1004915E+00
         21   -1    0    0  504  503  0.00000000000E+00  0.00000000000E+00  0.83472355537E+02  0.83472355537E+02  0.00000000000E+00 0.  1.
         21   -1    0    0  503  504 -0.00000000000E+00 -0.00000000000E+00 -0.85874025657E+03  0.85874025657E+03  0.00000000000E+00 0.  1.
         25    2    1    2    0    0 -0.13399062322E+03 -0.13148111777E+03 -0.13375483130E+03  0.26221237516E+03  0.12499681336E+03 0.  0.
         25    2    1    2    0    0  0.13399062322E+03  0.13148111777E+03 -0.64151306974E+03  0.68000023695E+03  0.12498212738E+03 0.  0.
          5    1    3    3  501    0 -0.25853535809E+02 -0.46560846852E+02  0.18904587374E+02  0.56707946508E+02  0.47000000000E+01 0. -1.
         -5    1    3    3    0  501 -0.10813708741E+03 -0.84920270922E+02 -0.15265941867E+03  0.20550442865E+03  0.47000000000E+01 0. -1.
          5    1    4    4  502    0  0.11439477605E+03  0.69506321832E+02 -0.25503634988E+03  0.28806756728E+03  0.47000000000E+01 0.  1.
         -5    1    4    4    0  502  0.19595847172E+02  0.61974795942E+02 -0.38647671986E+03  0.39193266967E+03  0.47000000000E+01 0.  1.
<mgrwt>
<rscale>  0 0.53546642E+03</rscale>
<asrwt>0</asrwt>
<pdfrwt beam="1">  1       21 0.12841901E-01 0.53546642E+03</pdfrwt>
<pdfrwt beam="2">  1       21 0.13211389E+00 0.53546642E+03</pdfrwt>
<totfact> 0.18909401E+04</totfact>
</mgrwt>
</event>
<event>
 8    1  0.9569852E-006  0.4661707E+03  0.7546771E-02  0.1023007E+00
         21   -1    0    0  504  503  0.00000000000E+00  0.00000000000E+00  0.15528668725E+03  0.15528668725E+03  0.00000000000E+00 0. -1.
         21   -1    0    0  503  504 -0.00000000000E+00 -0.00000000000E+00 -0.34986119272E+03  0.34986119272E+03  0.00000000000E+00 0. -1.
         25    2    1    2    0    0 -0.73680413123E+02 -0.17196861694E+03 -0.16319709669E+03  0.27797004464E+03  0.12502817626E+03 0.  0.
         25    2    1    2    0    0  0.73680413123E+02  0.17196861694E+03 -0.31377408772E+02  0.22717783533E+03  0.12499287418E+03 0.  0.
          5    1    3    3  501    0  0.12343702040E+02 -0.52497522363E+02 -0.10775231769E+03  0.12058610535E+03  0.47000000000E+01 0. -1.
         -5    1    3    3    0  501 -0.86024115163E+02 -0.11947109458E+03 -0.55444778997E+02  0.15738393929E+03  0.47000000000E+01 0. -1.
          5    1    4    4  502    0 -0.19632803050E+02  0.27034578850E+01  0.18492404774E+02  0.27510264893E+02  0.47000000000E+01 0. -1.
         -5    1    4    4    0  502  0.93313216174E+02  0.16926515905E+03 -0.49869813546E+02  0.19966757044E+03  0.47000000000E+01 0. -1.
<mgrwt>
<rscale>  0 0.46617072E+03</rscale>
<asrwt>0</asrwt>
<pdfrwt beam="1">  1       21 0.23890260E-01 0.46617072E+03</pdfrwt>
<pdfrwt beam="2">  1       21 0.53824799E-01 0.46617072E+03</pdfrwt>
<totfact> 0.49464176E+04</totfact>
</mgrwt>
</event>
<event>
 8    1  0.9569852E-006  0.2850870E+03  0.7546771E-02  0.1092943E+00
         21   -1    0    0  504  503  0.00000000000E+00  0.00000000000E+00  0.21167625399E+03  0.21167625399E+03  0.00000000000E+00 0. -1.
         21   -1    0    0  503  504 -0.00000000000E+00 -0.00000000000E+00 -0.95989259351E+02  0.95989259351E+02  0.00000000000E+00 0. -1.
         25    2    1    2    0    0  0.48307207835E+02 -0.12454212893E+02  0.10851210089E+03  0.17288596638E+03  0.12500395027E+03 0.  0.
         25    2    1    2    0    0 -0.48307207835E+02  0.12454212893E+02  0.71748937485E+01  0.13477954696E+03  0.12500141372E+03 0.  0.
          5    1    3    3  501    0  0.49805225229E+02 -0.52650588201E+02  0.11062238170E+03  0.13233308819E+03  0.47000000000E+01 0. -1.
         -5    1    3    3    0  501 -0.14980173939E+01  0.40196375308E+02 -0.21102808067E+01  0.40552878185E+02  0.47000000000E+01 0. -1.
          5    1    4    4  502    0  0.28740606251E+02  0.76329060745E+01  0.40583310407E+02  0.50530968588E+02  0.47000000000E+01 0.  1.
         -5    1    4    4    0  502 -0.77047814086E+02  0.48213068186E+01 -0.33408416658E+02  0.84248578377E+02  0.47000000000E+01 0.  1.
<mgrwt>
<rscale>  0 0.28508698E+03</rscale>
<asrwt>0</asrwt>
<pdfrwt beam="1">  1       21 0.32565577E-01 0.28508698E+03</pdfrwt>
<pdfrwt beam="2">  1       21 0.14767578E-01 0.28508698E+03</pdfrwt>
<totfact> 0.35890753E+05</totfact>
</mgrwt>
</event>
<event>
 8    1  0.9569852E-006  0.3169420E+03  0.7546771E-02  0.1077065E+00
         21   -1    0    0  504  503  0.00000000000E+00  0.00000000000E+00  0.54003131994E+02  0.54003131994E+02  0.00000000000E+00 0.  1.
         21   -1    0    0  503  504 -0.00000000000E+00 -0.00000000000E+00 -0.46502968575E+03  0.46502968575E+03  0.00000000000E+00 0.  1.
         25    2    1    2    0    0  0.52480317905E+02 -0.80960049476E+02 -0.22742939847E+03  0.27686999827E+03  0.12499660504E+03 0.  0.
         25    2    1    2    0    0 -0.52480317905E+02  0.80960049476E+02 -0.18359715528E+03  0.24216281948E+03  0.12500480923E+03 0.  0.
          5    1    3    3  501    0  0.37240081201E+02  0.21959479223E+02 -0.11820361846E+03  0.12594930644E+03  0.47000000000E+01 0.  1.
         -5    1    3    3    0  501  0.15240236704E+02 -0.10291952870E+03 -0.10922578001E+03  0.15092069183E+03  0.47000000000E+01 0.  1.
          5    1    4    4  502    0  0.61440910953E+01  0.14693631950E+01  0.16879844238E+02  0.18626004002E+02  0.47000000000E+01 0. -1.
         -5    1    4    4    0  502 -0.58624409000E+02  0.79490686281E+02 -0.20047699952E+03  0.22353681547E+03  0.47000000000E+01 0. -1.
<mgrwt>
<rscale>  0 0.31694201E+03</rscale>
<asrwt>0</asrwt>
<pdfrwt beam="1">  1       21 0.83081743E-02 0.31694201E+03</pdfrwt>
<pdfrwt beam="2">  1       21 0.71543027E-01 0.31694201E+03</pdfrwt>
<totfact> 0.19166443E+05</totfact>
</mgrwt>
</event>
<event>
 8    1  0.9569852E-006  0.2990014E+03  0.7546771E-02  0.1085741E+00
         21   -1    0    0  504  503  0.00000000000E+00  0.00000000000E+00  0.98553193470E+02  0.98553193470E+02  0.00000000000E+00 0.  1.
         21   -1    0    0  503  504 -0.00000000000E+00 -0.00000000000E+00 -0.22678570078E+03  0.22678570078E+03  0.00000000000E+00 0.  1.
         25    2    1    2    0    0  0.88264552214E+01  0.41509968244E+02  0.12232474119E+02  0.13257652045E+03  0.12500366626E+03 0.  0.
         25    2    1    2    0    0 -0.88264552214E+01 -0.41509968244E+02 -0.14046498143E+03  0.19276237380E+03  0.12500375182E+03 0.  0.
          5    1    3    3  501    0  0.21863999749E+02 -0.35905594363E+02  0.30111737288E+02  0.51923529484E+02  0.47000000000E+01 0.  1.
         -5    1    3    3    0  501 -0.13037544528E+02  0.77415562606E+02 -0.17879263169E+02  0.80652990970E+02  0.47000000000E+01 0.  1.
          5    1    4    4  502    0  0.52989857047E+02 -0.39441133873E+02 -0.49579463930E+02  0.82726907562E+02  0.47000000000E+01 0. -1.
         -5    1    4    4    0  502 -0.61816312269E+02 -0.20688343704E+01 -0.90885517500E+02  0.11003546623E+03  0.47000000000E+01 0. -1.
<mgrwt>
<rscale>  0 0.29900137E+03</rscale>
<asrwt>0</asrwt>
<pdfrwt beam="1">  1       21 0.15162030E-01 0.29900137E+03</pdfrwt>
<pdfrwt beam="2">  1       21 0.34890107E-01 0.29900137E+03</pdfrwt>
<totfact> 0.29718696E+05</totfact>
</mgrwt>
</event>
<event>
 8    1  0.9569852E-006  0.3510051E+03  0.7546771E-02  0.1062203E+00
         21   -1    0    0  504  503  0.00000000000E+00  0.00000000000E+00  0.95902501586E+03  0.95902501586E+03  0.00000000000E+00 0. -1.
         21   -1    0    0  503  504 -0.00000000000E+00 -0.00000000000E+00 -0.32117137324E+02  0.32117137324E+02  0.00000000000E+00 0. -1.
         25    2    1    2    0    0 -0.28420225772E+02  0.10020754111E+03  0.27774417110E+03  0.32189759475E+03  0.12500790535E+03 0.  0.
         25    2    1    2    0    0  0.28420225772E+02 -0.10020754111E+03  0.64916370744E+03  0.66924455843E+03  0.12500199762E+03 0.  0.
          5    1    3    3  501    0  0.86061805094E+01  0.10647652087E+02 -0.10421230587E+02  0.17836223952E+02  0.47000000000E+01 0.  1.
         -5    1    3    3    0  501 -0.37026406282E+02  0.89559889025E+02  0.28816540168E+03  0.30406137080E+03  0.47000000000E+01 0.  1.
          5    1    4    4  502    0 -0.36994239153E+01 -0.97043725450E+02  0.61251768500E+03  0.62018640329E+03  0.47000000000E+01 0. -1.
         -5    1    4    4    0  502  0.32119649688E+02 -0.31638156621E+01  0.36646022436E+02  0.49058155143E+02  0.47000000000E+01 0. -1.
<mgrwt>
<rscale>  0 0.35100506E+03</rscale>
<asrwt>0</asrwt>
<pdfrwt beam="1">  1       21 0.14754229E+00 0.35100506E+03</pdfrwt>
<pdfrwt beam="2">  1       21 0.49410988E-02 0.35100506E+03</pdfrwt>
<totfact> 0.80541642E+04</totfact>
</mgrwt>
</event>
<event>
 8    1  0.9569852E-006  0.3147788E+03  0.7546771E-02  0.1078078E+00
         21   -1    0    0  504  503  0.00000000000E+00  0.00000000000E+00  0.76227790964E+02  0.76227790964E+02  0.00000000000E+00 0.  1.
         21   -1    0    0  503  504 -0.00000000000E+00 -0.00000000000E+00 -0.32496571065E+03  0.32496571065E+03  0.00000000000E+00 0.  1.
         25    2    1    2    0    0  0.57736620149E+02  0.54226649294E+02 -0.19267959515E+03  0.24295098696E+03  0.12500283548E+03 0.  0.
         25    2    1    2    0    0 -0.57736620149E+02 -0.54226649294E+02 -0.56058324537E+02  0.15824251466E+03  0.12499644353E+03 0.  0.
          5    1    3    3  501    0  0.55435844872E+02 -0.28734477488E+02 -0.62326076936E+02  0.88348361385E+02  0.47000000000E+01 0.  1.
         -5    1    3    3    0  501  0.23007752775E+01  0.82961126781E+02 -0.13035351821E+03  0.15460262557E+03  0.47000000000E+01 0.  1.
          5    1    4    4  502    0  0.28953431909E+02 -0.52903806558E+02 -0.30416431040E+02  0.67707926012E+02  0.47000000000E+01 0. -1.
         -5    1    4    4    0  502 -0.86690052058E+02 -0.13228427358E+01 -0.25641893497E+02  0.90534588644E+02  0.47000000000E+01 0. -1.
<mgrwt>
<rscale>  0 0.31477877E+03</rscale>
<asrwt>0</asrwt>
<pdfrwt beam="1">  1       21 0.11727352E-01 0.31477877E+03</pdfrwt>
<pdfrwt beam="2">  1       21 0.49994725E-01 0.31477877E+03</pdfrwt>
<totfact> 0.22587870E+05</totfact>
</mgrwt>
</event>
<event>
 8    1  0.9569852E-006  0.3137346E+03  0.7546771E-02  0.1078569E+00
         21   -1    0    0  504  503  0.00000000000E+00  0.00000000000E+00  0.15786019242E+02  0.15786019242E+02  0.00000000000E+00 0. -1.
         21   -1    0    0  503  504 -0.00000000000E+00 -0.00000000000E+00 -0.15588068635E+04  0.15588068635E+04  0.00000000000E+00 0. -1.
         25    2    1    2    0    0 -0.85281191164E+02 -0.20989368967E+02 -0.95026577767E+03  0.96246805046E+03  0.12500505897E+03 0.  0.
         25    2    1    2    0    0  0.85281191164E+02  0.20989368967E+02 -0.59275506656E+03  0.61212483226E+03  0.12499922462E+03 0.  0.
          5    1    3    3  501    0  0.27968632975E+02  0.83552355432E+01 -0.10330311542E+03  0.10745081687E+03  0.47000000000E+01 0. -1.
         -5    1    3    3    0  501 -0.11324982414E+03 -0.29344604510E+02 -0.84696266226E+03  0.85501723359E+03  0.47000000000E+01 0. -1.
          5    1    4    4  502    0  0.20058652000E+02  0.31517532432E-01 -0.47764364972E+03  0.47808774993E+03  0.47000000000E+01 0.  1.
         -5    1    4    4    0  502  0.65222539164E+02  0.20957851435E+02 -0.11511141684E+03  0.13403708233E+03  0.47000000000E+01 0.  1.
<mgrwt>
<rscale>  0 0.31373463E+03</rscale>
<asrwt>0</asrwt>
<pdfrwt beam="1">  1       21 0.24286173E-02 0.31373463E+03</pdfrwt>
<pdfrwt beam="2">  1       21 0.23981655E+00 0.31373463E+03</pdfrwt>
<totfact> 0.63865357E+04</totfact>
</mgrwt>
</event>
<event>
 8    1  0.9569852E-006  0.2876055E+03  0.7546771E-02  0.1091606E+00
         21   -1    0    0  504  503  0.00000000000E+00  0.00000000000E+00  0.40978717470E+02  0.40978717470E+02  0.00000000000E+00 0. -1.
         21   -1    0    0  503  504 -0.00000000000E+00 -0.00000000000E+00 -0.50463359158E+03  0.50463359158E+03  0.00000000000E+00 0. -1.
         25    2    1    2    0    0  0.40781993230E+02  0.57946192753E+02 -0.24275171144E+03  0.28208993823E+03  0.12500163045E+03 0.  0.
         25    2    1    2    0    0 -0.40781993230E+02 -0.57946192753E+02 -0.22090316267E+03  0.26352237082E+03  0.12499960168E+03 0.  0.
          5    1    3    3  501    0  0.40581694374E+02 -0.17670452360E+02 -0.17460169364E+03  0.18018590463E+03  0.47000000000E+01 0. -1.
         -5    1    3    3    0  501  0.20029885557E+00  0.75616645113E+02 -0.68150017805E+02  0.10190403360E+03  0.47000000000E+01 0. -1.
          5    1    4    4  502    0  0.47013757555E+00  0.73790229995E+01 -0.17144229650E+03  0.17166601888E+03  0.47000000000E+01 0. -1.
         -5    1    4    4    0  502 -0.41252130805E+02 -0.65325215752E+02 -0.49460866165E+02  0.91856351935E+02  0.47000000000E+01 0. -1.
<mgrwt>
<rscale>  0 0.28760554E+03</rscale>
<asrwt>0</asrwt>
<pdfrwt beam="1">  1       21 0.63044183E-02 0.28760554E+03</pdfrwt>
<pdfrwt beam="2">  1       21 0.77635934E-01 0.28760554E+03</pdfrwt>
<totfact> 0.25989345E+05</totfact>
</mgrwt>
</event>
<event>
 8    1  0.9569852E-006  0.3260821E+03  0.7546771E-02  0.1072884E+00
         21   -1    0    0  504  503  0.00000000000E+00  0.00000000000E+00  0.36936122346E+03  0.36936122346E+03  0.00000000000E+00 0.  1.
         21   -1    0    0  503  504 -0.00000000000E+00 -0.00000000000E+00 -0.71968523591E+02  0.71968523591E+02  0.00000000000E+00 0.  1.
         25    2    1    2    0    0 -0.30004676741E+02 -0.79555183141E+01  0.13405157725E+02  0.12949145894E+03  0.12499907515E+03 0.  0.
         25    2    1    2    0    0  0.30004676741E+02  0.79555183141E+01  0.28398754215E+03  0.31183828811E+03  0.12502248974E+03 0.  0.
          5    1    3    3  501    0 -0.88030078362E+01 -0.12393108608E+02  0.68385070556E+02  0.70211750889E+02  0.47000000000E+01 0. -1.
         -5    1    3    3    0  501 -0.21201668905E+02  0.44375902936E+01 -0.54979912831E+02  0.59279708053E+02  0.47000000000E+01 0. -1.
          5    1    4    4  502    0  0.36605973933E+02 -0.34611796266E+02  0.25436602968E+03  0.25934945696E+03  0.47000000000E+01 0. -1.
         -5    1    4    4    0  502 -0.66012971921E+01  0.42567314581E+02  0.29621512467E+02  0.52488831155E+02  0.47000000000E+01 0. -1.
<mgrwt>
<rscale>  0 0.32608209E+03</rscale>
<asrwt>0</asrwt>
<pdfrwt beam="1">  1       21 0.56824803E-01 0.32608209E+03</pdfrwt>
<pdfrwt beam="2">  1       21 0.11072081E-01 0.32608209E+03</pdfrwt>
<totfact> 0.19023997E+05</totfact>
</mgrwt>
</event>
<event>
 8    1  0.9569852E-006  0.4561892E+03  0.7546771E-02  0.1025892E+00
         21   -1    0    0  504  503  0.00000000000E+00  0.00000000000E+00  0.20917471934E+03  0.20917471934E+03  0.00000000000E+00 0. -1.
         21   -1    0    0  503  504 -0.00000000000E+00 -0.00000000000E+00 -0.24872578829E+03  0.24872578829E+03  0.00000000000E+00 0. -1.
         25    2    1    2    0    0  0.59638143073E+02  0.14962800936E+03  0.82852221384E+02  0.22007408159E+03  0.12499144573E+03 0.  0.
         25    2    1    2    0    0 -0.59638143073E+02 -0.14962800936E+03 -0.12240329034E+03  0.23782642604E+03  0.12503437185E+03 0.  0.
          5    1    3    3  501    0 -0.29472494981E+02  0.75983873152E+02  0.62002801338E+02  0.10251153259E+03  0.47000000000E+01 0. -1.
         -5    1    3    3    0  501  0.89110638054E+02  0.73644136211E+02  0.20849420046E+02  0.11756254901E+03  0.47000000000E+01 0. -1.
          5    1    4    4  502    0 -0.13199806548E+02 -0.15536398522E+03 -0.10313337895E+03  0.18700477708E+03  0.47000000000E+01 0.  1.
         -5    1    4    4    0  502 -0.46438336525E+02  0.57359758595E+01 -0.19269911386E+02  0.50821648960E+02  0.47000000000E+01 0.  1.
<mgrwt>
<rscale>  0 0.45618920E+03</rscale>
<asrwt>0</asrwt>
<pdfrwt beam="1">  1       21 0.32180726E-01 0.45618920E+03</pdfrwt>
<pdfrwt beam="2">  1       21 0.38265506E-01 0.45618920E+03</pdfrwt>
<totfact> 0.56409887E+04</totfact>
</mgrwt>
</event>
<event>
 8    1  0.9569852E-006  0.3878238E+03  0.7546771E-02  0.1048079E+00
         21   -1    0    0  504  503  0.00000000000E+00  0.00000000000E+00  0.56873819969E+03  0.56873819969E+03  0.00000000000E+00 0.  1.
         21   -1    0    0  503  504 -0.00000000000E+00 -0.00000000000E+00 -0.66114479583E+02  0.66114479583E+02  0.00000000000E+00 0.  1.
         25    2    1    2    0    0 -0.77904483170E+02 -0.12509784087E+03  0.22503065942E+03  0.29662041932E+03  0.12500518867E+03 0.  0.
         25    2    1    2    0    0  0.77904483170E+02  0.12509784087E+03  0.27759306069E+03  0.33823225995E+03  0.12499830415E+03 0.  0.
          5    1    3    3  501    0  0.12383995529E+02 -0.22869667337E+02 -0.70813305613E+01  0.27360926006E+02  0.47000000000E+01 0. -1.
         -5    1    3    3    0  501 -0.90288478700E+02 -0.10222817353E+03  0.23211198998E+03  0.26925949332E+03  0.47000000000E+01 0. -1.
          5    1    4    4  502    0  0.51788770799E+02 -0.79696676689E+01  0.11498302303E+03  0.12644673965E+03  0.47000000000E+01 0.  1.
         -5    1    4    4    0  502  0.26115712372E+02  0.13306750854E+03  0.16261003766E+03  0.21178552030E+03  0.47000000000E+01 0.  1.
<mgrwt>
<rscale>  0 0.38782383E+03</rscale>
<asrwt>0</asrwt>
<pdfrwt beam="1">  1       21 0.87498181E-01 0.38782383E+03</pdfrwt>
<pdfrwt beam="2">  1       21 0.10171459E-01 0.38782383E+03</pdfrwt>
<totfact> 0.82918769E+04</totfact>
</mgrwt>
</event>
<event>
 8    1  0.9569852E-006  0.2641996E+03  0.7546771E-02  0.1104646E+00
         21   -1    0    0  504  503  0.00000000000E+00  0.00000000000E+00  0.58922781363E+01  0.58922781363E+01  0.00000000000E+00 0.  1.
         21   -1    0    0  503  504 -0.00000000000E+00 -0.00000000000E+00 -0.29615642824E+04  0.29615642824E+04  0.00000000000E+00 0.  1.
         25    2    1    2    0    0  0.31052632292E+02 -0.43482420877E+01 -0.11519891303E+04  0.11591766362E+04  0.12501337625E+03 0.  0.
         25    2    1    2    0    0 -0.31052632292E+02  0.43482420877E+01 -0.18036828740E+04  0.18082799244E+04  0.12498480707E+03 0.  0.
          5    1    3    3  501    0  0.43781707244E+02  0.29116897062E+02 -0.10435188724E+04  0.10448532714E+04  0.47000000000E+01 0.  1.
         -5    1    3    3    0  501 -0.12729074952E+02 -0.33465139149E+02 -0.10847025792E+03  0.11432336480E+03  0.47000000000E+01 0.  1.
          5    1    4    4  502    0 -0.52947107809E+01  0.61561790840E+02 -0.11180789635E+04  0.11197948681E+04  0.47000000000E+01 0.  1.
         -5    1    4    4    0  502 -0.25757921512E+02 -0.57213548752E+02 -0.68560391048E+03  0.68848505629E+03  0.47000000000E+01 0.  1.
<mgrwt>
<rscale>  0 0.26419963E+03</rscale>
<asrwt>0</asrwt>
<pdfrwt beam="1">  1       21 0.90650634E-03 0.26419963E+03</pdfrwt>
<pdfrwt beam="2">  1       21 0.45562426E+00 0.26419963E+03</pdfrwt>
<totfact> 0.15471092E+04</totfact>
</mgrwt>
</event>
<event>
 8    1  0.9569852E-006  0.6601105E+03  0.7546771E-02  0.9787990E-01
         21   -1    0    0  504  503  0.00000000000E+00  0.00000000000E+00  0.67052458369E+03  0.67052458369E+03  0.00000000000E+00 0. -1.
         21   -1    0    0  503  504 -0.00000000000E+00 -0.00000000000E+00 -0.16246456161E+03  0.16246456161E+03  0.00000000000E+00 0. -1.
         25    2    1    2    0    0 -0.38793789466E+02  0.15268588457E+03  0.58428419982E+03  0.61792385012E+03  0.12499568366E+03 0.  0.
         25    2    1    2    0    0  0.38793789466E+02 -0.15268588457E+03 -0.76224177752E+02  0.21506529518E+03  0.12500007388E+03 0.  0.
          5    1    3    3  501    0 -0.34607433377E+02  0.65212770836E+01  0.25680236436E+03  0.25924842495E+03  0.47000000000E+01 0. -1.
         -5    1    3    3    0  501 -0.41863560887E+01  0.14616460749E+03  0.32748183547E+03  0.35867542517E+03  0.47000000000E+01 0. -1.
          5    1    4    4  502    0 -0.20446682502E+02 -0.10128662185E+02 -0.54277643718E+02  0.59066142845E+02  0.47000000000E+01 0. -1.
         -5    1    4    4    0  502  0.59240471968E+02 -0.14255722239E+03 -0.21946534034E+02  0.15599915234E+03  0.47000000000E+01 0. -1.
<mgrwt>
<rscale>  0 0.66011054E+03</rscale>
<asrwt>0</asrwt>
<pdfrwt beam="1">  1       21 0.10315763E+00 0.66011054E+03</pdfrwt>
<pdfrwt beam="2">  1       21 0.24994548E-01 0.66011054E+03</pdfrwt>
<totfact> 0.97648636E+03</totfact>
</mgrwt>
</event>
<event>
 8    1  0.9569852E-006  0.3392880E+03  0.7546771E-02  0.1067100E+00
         21   -1    0    0  504  503  0.00000000000E+00  0.00000000000E+00  0.25011646651E+02  0.25011646651E+02  0.00000000000E+00 0. -1.
         21   -1    0    0  503  504 -0.00000000000E+00 -0.00000000000E+00 -0.11506275592E+04  0.11506275592E+04  0.00000000000E+00 0. -1.
         25    2    1    2    0    0 -0.28150598253E+02  0.96878568417E+02 -0.37375946842E+03  0.40681421280E+03  0.12499500111E+03 0.  0.
         25    2    1    2    0    0  0.28150598253E+02 -0.96878568417E+02 -0.75185644414E+03  0.76882499306E+03  0.12500337661E+03 0.  0.
          5    1    3    3  501    0 -0.48316483910E+02  0.27186711848E+02 -0.29264169009E+03  0.29788395173E+03  0.47000000000E+01 0. -1.
         -5    1    3    3    0  501  0.20165885657E+02  0.69691856569E+02 -0.81117778337E+02  0.10893026108E+03  0.47000000000E+01 0. -1.
          5    1    4    4  502    0 -0.38059264770E+01 -0.79660724567E+02 -0.19450146823E+03  0.21026941589E+03  0.47000000000E+01 0. -1.
         -5    1    4    4    0  502  0.31956524730E+02 -0.17217843850E+02 -0.55735497591E+03  0.55855557718E+03  0.47000000000E+01 0. -1.
<mgrwt>
<rscale>  0 0.33928802E+03</rscale>
<asrwt>0</asrwt>
<pdfrwt beam="1">  1       21 0.38479456E-02 0.33928802E+03</pdfrwt>
<pdfrwt beam="2">  1       21 0.17701963E+00 0.33928802E+03</pdfrwt>
<totfact> 0.74764629E+04</totfact>
</mgrwt>
</event>
<event>
 8    1  0.9569852E-006  0.3148485E+03  0.7546771E-02  0.1078045E+00
         21   -1    0    0  504  503  0.00000000000E+00  0.00000000000E+00  0.20014243474E+03  0.20014243474E+03  0.00000000000E+00 0. -1.
         21   -1    0    0  503  504 -0.00000000000E+00 -0.00000000000E+00 -0.12382382686E+03  0.12382382686E+03  0.00000000000E+00 0. -1.
         25    2    1    2    0    0 -0.36400170397E+02 -0.51129045877E+01  0.12906748781E+03  0.18339328878E+03  0.12499427091E+03 0.  0.
         25    2    1    2    0    0  0.36400170397E+02  0.51129045877E+01 -0.52748879928E+02  0.14057297282E+03  0.12500880831E+03 0.  0.
          5    1    3    3  501    0  0.10812770332E+02  0.36444305755E+02  0.11153535076E+03  0.11792933432E+03  0.47000000000E+01 0. -1.
         -5    1    3    3    0  501 -0.47212940729E+02 -0.41557210343E+02  0.17532137053E+02  0.65463954459E+02  0.47000000000E+01 0. -1.
          5    1    4    4  502    0 -0.29432745295E+02  0.38156475487E+01  0.24635891975E+02  0.38856953499E+02  0.47000000000E+01 0. -1.
         -5    1    4    4    0  502  0.65832915692E+02  0.12972570390E+01 -0.77384771903E+02  0.10171601932E+03  0.47000000000E+01 0. -1.
<mgrwt>
<rscale>  0 0.31484855E+03</rscale>
<asrwt>0</asrwt>
<pdfrwt beam="1">  1       21 0.30791144E-01 0.31484855E+03</pdfrwt>
<pdfrwt beam="2">  1       21 0.19049819E-01 0.31484855E+03</pdfrwt>
<totfact> 0.24853604E+05</totfact>
</mgrwt>
</event>
<event>
 8    1  0.9569852E-006  0.2633170E+03  0.7546771E-02  0.1105167E+00
         21   -1    0    0  504  503  0.00000000000E+00  0.00000000000E+00  0.68460843427E+02  0.68460843427E+02  0.00000000000E+00 0. -1.
         21   -1    0    0  503  504 -0.00000000000E+00 -0.00000000000E+00 -0.25319532440E+03  0.25319532440E+03  0.00000000000E+00 0. -1.
         25    2    1    2    0    0 -0.34015279691E+01  0.23278831024E+02 -0.50827129496E+02  0.13696534697E+03  0.12499053888E+03 0.  0.
         25    2    1    2    0    0  0.34015279691E+01 -0.23278831024E+02 -0.13390735148E+03  0.18469082086E+03  0.12500418459E+03 0.  0.
          5    1    3    3  501    0  0.29169441440E+02 -0.32159512443E+02  0.13681031333E+02  0.45764081689E+02  0.47000000000E+01 0.  1.
         -5    1    3    3    0  501 -0.32570969409E+02  0.55438343467E+02 -0.64508160829E+02  0.91201265277E+02  0.47000000000E+01 0.  1.
          5    1    4    4  502    0  0.33833869718E+02 -0.37763328572E+02 -0.14101478759E+03  0.14992684897E+03  0.47000000000E+01 0.  1.
         -5    1    4    4    0  502 -0.30432341749E+02  0.14484497548E+02  0.71074361082E+01  0.34763971890E+02  0.47000000000E+01 0.  1.
<mgrwt>
<rscale>  0 0.26331704E+03</rscale>
<asrwt>0</asrwt>
<pdfrwt beam="1">  1       21 0.10532438E-01 0.26331704E+03</pdfrwt>
<pdfrwt beam="2">  1       21 0.38953127E-01 0.26331704E+03</pdfrwt>
<totfact> 0.46370528E+05</totfact>
</mgrwt>
</event>
<event>
 8    1  0.9569852E-006  0.2749020E+03  0.7546771E-02  0.1098506E+00
         21   -1    0    0  504  503  0.00000000000E+00  0.00000000000E+00  0.67843973332E+02  0.67843973332E+02  0.00000000000E+00 0. -1.
         21   -1    0    0  503  504 -0.00000000000E+00 -0.00000000000E+00 -0.27847391182E+03  0.27847391182E+03  0.00000000000E+00 0. -1.
         25    2    1    2    0    0 -0.34337258072E+02  0.22731091116E+02 -0.55361156294E+02  0.14277974123E+03  0.12500178832E+03 0.  0.
         25    2    1    2    0    0  0.34337258072E+02 -0.22731091116E+02 -0.15526878220E+03  0.20353814393E+03  0.12499452594E+03 0.  0.
          5    1    3    3  501    0  0.15704907442E+02 -0.31431676533E+02  0.17037821808E+02  0.39331562128E+02  0.47000000000E+01 0.  1.
         -5    1    3    3    0  501 -0.50042165514E+02  0.54162767650E+02 -0.72398978102E+02  0.10344817910E+03  0.47000000000E+01 0.  1.
          5    1    4    4  502    0  0.18138023706E+02  0.43937905639E+02 -0.11334068004E+03  0.12299482594E+03  0.47000000000E+01 0. -1.
         -5    1    4    4    0  502  0.16199234366E+02 -0.66668996755E+02 -0.41928102158E+02  0.80543317990E+02  0.47000000000E+01 0. -1.
<mgrwt>
<rscale>  0 0.27490199E+03</rscale>
<asrwt>0</asrwt>
<pdfrwt beam="1">  1       21 0.10437534E-01 0.27490199E+03</pdfrwt>
<pdfrwt beam="2">  1       21 0.42842140E-01 0.27490199E+03</pdfrwt>
<totfact> 0.38717545E+05</totfact>
</mgrwt>
</event>
<event>
 8    1  0.9569852E-006  0.3158894E+03  0.7546771E-02  0.1077557E+00
         21   -1    0    0  504  503  0.00000000000E+00  0.00000000000E+00  0.76395510235E+02  0.76395510235E+02  0.00000000000E+00 0.  1.
         21   -1    0    0  503  504 -0.00000000000E+00 -0.00000000000E+00 -0.32654452539E+03  0.32654452539E+03  0.00000000000E+00 0.  1.
         25    2    1    2    0    0 -0.62112985479E+02 -0.28101358801E+02 -0.37883687802E+02  0.14734640492E+03  0.12501231903E+03 0.  0.
         25    2    1    2    0    0  0.62112985479E+02  0.28101358801E+02 -0.21226532736E+03  0.25559363071E+03  0.12499530203E+03 0.  0.
          5    1    3    3  501    0 -0.42112482126E+02 -0.20500158584E+02  0.42873607299E+02  0.63670667152E+02  0.47000000000E+01 0. -1.
         -5    1    3    3    0  501 -0.20000503354E+02 -0.76012002168E+01 -0.80757295101E+02  0.83675737769E+02  0.47000000000E+01 0. -1.
          5    1    4    4  502    0  0.35852722160E+02 -0.43630939756E+02 -0.13698010008E+03  0.14823870752E+03  0.47000000000E+01 0.  1.
         -5    1    4    4    0  502  0.26260263319E+02  0.71732298556E+02 -0.75285227276E+02  0.10735492318E+03  0.47000000000E+01 0.  1.
<mgrwt>
<rscale>  0 0.31588945E+03</rscale>
<asrwt>0</asrwt>
<pdfrwt beam="1">  1       21 0.11753156E-01 0.31588945E+03</pdfrwt>
<pdfrwt beam="2">  1       21 0.50237618E-01 0.31588945E+03</pdfrwt>
<totfact> 0.22264244E+05</totfact>
</mgrwt>
</event>
<event>
 8    1  0.9569852E-006  0.3065070E+03  0.7546771E-02  0.1082032E+00
         21   -1    0    0  504  503  0.00000000000E+00  0.00000000000E+00  0.12096578426E+02  0.12096578426E+02  0.00000000000E+00 0.  1.
         21   -1    0    0  503  504 -0.00000000000E+00 -0.00000000000E+00 -0.19415935599E+04  0.19415935599E+04  0.00000000000E+00 0.  1.
         25    2    1    2    0    0 -0.67548403323E+02 -0.54200534164E+02 -0.84370744557E+03  0.85730290011E+03  0.12500209648E+03 0.  0.
         25    2    1    2    0    0  0.67548403323E+02  0.54200534164E+02 -0.10857895359E+04  0.10963872382E+04  0.12500230060E+03 0.  0.
          5    1    3    3  501    0  0.28871953549E+02  0.18944339497E+01 -0.34535195139E+03  0.34659376640E+03  0.47000000000E+01 0. -1.
         -5    1    3    3    0  501 -0.96420356872E+02 -0.56094968114E+02 -0.49835549418E+03  0.51070913370E+03  0.47000000000E+01 0. -1.
          5    1    4    4  502    0  0.49154339349E+02  0.71181907535E+02 -0.10429895089E+04  0.10465812050E+04  0.47000000000E+01 0. -1.
         -5    1    4    4    0  502  0.18394063975E+02 -0.16981373371E+02 -0.42800027012E+02  0.49806033202E+02  0.47000000000E+01 0. -1.
<mgrwt>
<rscale>  0 0.30650702E+03</rscale>
<asrwt>0</asrwt>
<pdfrwt beam="1">  1       21 0.18610134E-02 0.30650702E+03</pdfrwt>
<pdfrwt beam="2">  1       21 0.29870648E+00 0.30650702E+03</pdfrwt>
<totfact> 0.44271424E+04</totfact>
</mgrwt>
</event>
<event>
 8    1  0.9569852E-006  0.2697946E+03  0.7546771E-02  0.1101397E+00
         21   -1    0    0  504  503  0.00000000000E+00  0.00000000000E+00  0.14874824068E+02  0.14874824068E+02  0.00000000000E+00 0. -1.
         21   -1    0    0  503  504 -0.00000000000E+00 -0.00000000000E+00 -0.12233610572E+04  0.12233610572E+04  0.00000000000E+00 0. -1.
         25    2    1    2    0    0  0.30830729243E+02 -0.91202003317E+01 -0.78447963874E+03  0.79502285146E+03  0.12497727324E+03 0.  0.
         25    2    1    2    0    0 -0.30830729243E+02  0.91202003317E+01 -0.42400659436E+03  0.44321302978E+03  0.12498994272E+03 0.  0.
          5    1    3    3  501    0 -0.59894351733E+01  0.50893583600E+02 -0.46523691035E+03  0.46807424938E+03  0.47000000000E+01 0. -1.
         -5    1    3    3    0  501  0.36820164416E+02 -0.60013783932E+02 -0.31924272839E+03  0.32694860207E+03  0.47000000000E+01 0. -1.
          5    1    4    4  502    0  0.57946371519E+01  0.50398358886E+02 -0.33151679745E+03  0.33540877953E+03  0.47000000000E+01 0. -1.
         -5    1    4    4    0  502 -0.36625366395E+02 -0.41278158554E+02 -0.92489796916E+02  0.10780425024E+03  0.47000000000E+01 0. -1.
<mgrwt>
<rscale>  0 0.26979459E+03</rscale>
<asrwt>0</asrwt>
<pdfrwt beam="1">  1       21 0.22884334E-02 0.26979459E+03</pdfrwt>
<pdfrwt beam="2">  1       21 0.18820948E+00 0.26979459E+03</pdfrwt>
<totfact> 0.15293496E+05</totfact>
</mgrwt>
</event>
<event>
 8    1  0.9569852E-006  0.3316555E+03  0.7546771E-02  0.1070407E+00
         21   -1    0    0  504  503  0.00000000000E+00  0.00000000000E+00  0.31511515042E+03  0.31511515042E+03  0.00000000000E+00 0. -1.
         21   -1    0    0  503  504 -0.00000000000E+00 -0.00000000000E+00 -0.87266030135E+02  0.87266030135E+02  0.00000000000E+00 0. -1.
         25    2    1    2    0    0 -0.76810620521E+02  0.18666382021E+02  0.20493691462E+03  0.25272938992E+03  0.12499880124E+03 0.  0.
         25    2    1    2    0    0  0.76810620521E+02 -0.18666382021E+02  0.22912205667E+02  0.14965179064E+03  0.12498953568E+03 0.  0.
          5    1    3    3  501    0 -0.81017657062E+00  0.34604785596E+02  0.15812048463E+03  0.16193308874E+03  0.47000000000E+01 0.  1.
         -5    1    3    3    0  501 -0.76000443951E+02 -0.15938403575E+02  0.46816429994E+02  0.90796301173E+02  0.47000000000E+01 0.  1.
          5    1    4    4  502    0 -0.29752610648E+02  0.58213937723E+01  0.25929159066E+02  0.40168616552E+02  0.47000000000E+01 0.  1.
         -5    1    4    4    0  502  0.10656323117E+03 -0.24487775794E+02 -0.30169533986E+01  0.10948317409E+03  0.47000000000E+01 0.  1.
<mgrwt>
<rscale>  0 0.33165553E+03</rscale>
<asrwt>0</asrwt>
<pdfrwt beam="1">  1       21 0.48479253E-01 0.33165553E+03</pdfrwt>
<pdfrwt beam="2">  1       21 0.13425543E-01 0.33165553E+03</pdfrwt>
<totfact> 0.18786422E+05</totfact>
</mgrwt>
</event>
<event>
 8    1  0.9569852E-006  0.2981839E+03  0.7546771E-02  0.1086152E+00
         21   -1    0    0  504  503  0.00000000000E+00  0.00000000000E+00  0.26372292256E+02  0.26372292256E+02  0.00000000000E+00 0.  1.
         21   -1    0    0  503  504 -0.00000000000E+00 -0.00000000000E+00 -0.84286956058E+03  0.84286956058E+03  0.00000000000E+00 0.  1.
         25    2    1    2    0    0 -0.63115924578E+02 -0.82579566257E+01 -0.55549450398E+03  0.57293206718E+03  0.12500078347E+03 0.  0.
         25    2    1    2    0    0  0.63115924578E+02  0.82579566257E+01 -0.26100276435E+03  0.29630978566E+03  0.12500092918E+03 0.  0.
          5    1    3    3  501    0  0.19275260326E+02  0.20721999332E+02 -0.32720940236E+03  0.32846464027E+03  0.47000000000E+01 0.  1.
         -5    1    3    3    0  501 -0.82391184904E+02 -0.28979955957E+02 -0.22828510162E+03  0.24446742690E+03  0.47000000000E+01 0.  1.
          5    1    4    4  502    0  0.53109881617E+02  0.17324778928E+02 -0.27631885705E+02  0.62501348769E+02  0.47000000000E+01 0. -1.
         -5    1    4    4    0  502  0.10006042961E+02 -0.90668223023E+01 -0.23337087864E+03  0.23380843689E+03  0.47000000000E+01 0. -1.
<mgrwt>
<rscale>  0 0.29818385E+03</rscale>
<asrwt>0</asrwt>
<pdfrwt beam="1">  1       21 0.40572756E-02 0.29818385E+03</pdfrwt>
<pdfrwt beam="2">  1       21 0.12967224E+00 0.29818385E+03</pdfrwt>
<totfact> 0.16047962E+05</totfact>
</mgrwt>
</event>
<event>
 8    1  0.9569852E-006  0.3524812E+03  0.7546771E-02  0.1061601E+00
         21   -1    0    0  504  503  0.00000000000E+00  0.00000000000E+00  0.72645258342E+03  0.72645258342E+03  0.00000000000E+00 0.  1.
         21   -1    0    0  503  504 -0.00000000000E+00 -0.00000000000E+00 -0.42756747741E+02  0.42756747741E+02  0.00000000000E+00 0.  1.
         25    2    1    2    0    0  0.95671980315E+02 -0.78551841143E+02  0.31873201505E+03  0.36405900843E+03  0.12500137854E+03 0.  0.
         25    2    1    2    0    0 -0.95671980315E+02  0.78551841143E+02  0.36496382063E+03  0.40515032273E+03  0.12499869630E+03 0.  0.
          5    1    3    3  501    0  0.10423666257E+03 -0.20344130896E+02  0.13969839262E+03  0.17554741919E+03  0.47000000000E+01 0. -1.
         -5    1    3    3    0  501 -0.85646822570E+01 -0.58207710248E+02  0.17903362243E+03  0.18851158923E+03  0.47000000000E+01 0. -1.
          5    1    4    4  502    0  0.19647186005E+02  0.54071828484E+02  0.12948332812E+03  0.14176669854E+03  0.47000000000E+01 0. -1.
         -5    1    4    4    0  502 -0.11531916632E+03  0.24480012659E+02  0.23548049251E+03  0.26338362419E+03  0.47000000000E+01 0. -1.
<mgrwt>
<rscale>  0 0.35248120E+03</rscale>
<asrwt>0</asrwt>
<pdfrwt beam="1">  1       21 0.11176193E+00 0.35248120E+03</pdfrwt>
<pdfrwt beam="2">  1       21 0.65779617E-02 0.35248120E+03</pdfrwt>
<totfact> 0.10023463E+05</totfact>
</mgrwt>
</event>
<event>
 8    1  0.9569852E-006  0.2985121E+03  0.7546771E-02  0.1085987E+00
         21   -1    0    0  504  503  0.00000000000E+00  0.00000000000E+00  0.17688135064E+03  0.17688135064E+03  0.00000000000E+00 0.  1.
         21   -1    0    0  503  504 -0.00000000000E+00 -0.00000000000E+00 -0.12594528157E+03  0.12594528157E+03  0.00000000000E+00 0.  1.
         25    2    1    2    0    0  0.69516742127E+02 -0.40369992044E+02  0.39570384090E+02  0.15378324257E+03  0.12498462588E+03 0.  0.
         25    2    1    2    0    0 -0.69516742127E+02  0.40369992044E+02  0.11365684981E+02  0.14904338965E+03  0.12498975761E+03 0.  0.
          5    1    3    3  501    0  0.52908185387E+02  0.28161055888E+02 -0.17862509027E+02  0.62717464700E+02  0.47000000000E+01 0.  1.
         -5    1    3    3    0  501  0.16608556740E+02 -0.68531047932E+02  0.57432893117E+02  0.91065777872E+02  0.47000000000E+01 0.  1.
          5    1    4    4  502    0 -0.51521582278E+02  0.80067432619E+02  0.32048794349E+02  0.10057078316E+03  0.47000000000E+01 0. -1.
         -5    1    4    4    0  502 -0.17995159848E+02 -0.39697440575E+02 -0.20683109367E+02  0.48472606483E+02  0.47000000000E+01 0. -1.
<mgrwt>
<rscale>  0 0.29851212E+03</rscale>
<asrwt>0</asrwt>
<pdfrwt beam="1">  1       21 0.27212516E-01 0.29851212E+03</pdfrwt>
<pdfrwt beam="2">  1       21 0.19376197E-01 0.29851212E+03</pdfrwt>
<totfact> 0.30774589E+05</totfact>
</mgrwt>
</event>
<event>
 8    1  0.9569852E-006  0.4005515E+03  0.7546771E-02  0.1043589E+00
         21   -1    0    0  504  503  0.00000000000E+00  0.00000000000E+00  0.86944103302E+03  0.86944103302E+03  0.00000000000E+00 0. -1.
         21   -1    0    0  503  504 -0.00000000000E+00 -0.00000000000E+00 -0.46133522040E+02  0.46133522040E+02  0.00000000000E+00 0. -1.
         25    2    1    2    0    0 -0.88141256051E+02 -0.12873698680E+03  0.43915893678E+03  0.48252195999E+03  0.12499910931E+03 0.  0.
         25    2    1    2    0    0  0.88141256051E+02  0.12873698680E+03  0.38414857420E+03  0.43305259507E+03  0.12498932054E+03 0.  0.
          5    1    3    3  501    0  0.23943518026E+02  0.54377890322E+01  0.52488323604E+02  0.58137558599E+02  0.47000000000E+01 0.  1.
         -5    1    3    3    0  501 -0.11208477408E+03 -0.13417477583E+03  0.38667061317E+03  0.42438440139E+03  0.47000000000E+01 0.  1.
          5    1    4    4  502    0  0.67065545069E+02  0.12888346170E+03  0.19787061635E+03  0.24552719778E+03  0.47000000000E+01 0. -1.
         -5    1    4    4    0  502  0.21075710982E+02 -0.14647489752E+00  0.18627795785E+03  0.18752539729E+03  0.47000000000E+01 0. -1.
<mgrwt>
<rscale>  0 0.40055151E+03</rscale>
<asrwt>0</asrwt>
<pdfrwt beam="1">  1       21 0.13376015E+00 0.40055151E+03</pdfrwt>
<pdfrwt beam="2">  1       21 0.70974655E-02 0.40055151E+03</pdfrwt>
<totfact> 0.54914274E+04</totfact>
</mgrwt>
</event>
<event>
 8    1  0.9569852E-006  0.2911508E+03  0.7546771E-02  0.1089750E+00
         21   -1    0    0  504  503  0.00000000000E+00  0.00000000000E+00  0.34600190465E+03  0.34600190465E+03  0.00000000000E+00 0.  1.
         21   -1    0    0  503  504 -0.00000000000E+00 -0.00000000000E+00 -0.61248780112E+02  0.61248780112E+02  0.00000000000E+00 0.  1.
         25    2    1    2    0    0 -0.58950093883E+02 -0.10164658225E+02  0.80007310019E+02  0.16001384522E+03  0.12499930864E+03 0.  0.
         25    2    1    2    0    0  0.58950093883E+02  0.10164658225E+02  0.20474581452E+03  0.24723683954E+03  0.12500708947E+03 0.  0.
          5    1    3    3  501    0 -0.30653785986E+02  0.43756299450E+02  0.83050649221E+02  0.98862372381E+02  0.47000000000E+01 0.  1.
         -5    1    3    3    0  501 -0.28296307897E+02 -0.53920957675E+02 -0.30433392021E+01  0.61151472842E+02  0.47000000000E+01 0.  1.
          5    1    4    4  502    0  0.98228602019E+02  0.11293327137E+02  0.14432317941E+03  0.17500762157E+03  0.47000000000E+01 0.  1.
         -5    1    4    4    0  502 -0.39278508136E+02 -0.11286689115E+01  0.60422635108E+02  0.72229217968E+02  0.47000000000E+01 0.  1.
<mgrwt>
<rscale>  0 0.29115078E+03</rscale>
<asrwt>0</asrwt>
<pdfrwt beam="1">  1       21 0.53231061E-01 0.29115078E+03</pdfrwt>
<pdfrwt beam="2">  1       21 0.94228895E-02 0.29115078E+03</pdfrwt>
<totfact> 0.29405850E+05</totfact>
</mgrwt>
</event>
<event>
 8    1  0.9569852E-006  0.3163757E+03  0.7546771E-02  0.1077330E+00
         21   -1    0    0  504  503  0.00000000000E+00  0.00000000000E+00  0.39965054851E+03  0.39965054851E+03  0.00000000000E+00 0. -1.
         21   -1    0    0  503  504 -0.00000000000E+00 -0.00000000000E+00 -0.62613171559E+02  0.62613171559E+02  0.00000000000E+00 0. -1.
         25    2    1    2    0    0  0.34504505191E+02 -0.34895701548E+02  0.29068223794E+03  0.32020232368E+03  0.12500037509E+03 0.  0.
         25    2    1    2    0    0 -0.34504505191E+02  0.34895701548E+02  0.46355139010E+02  0.14206139639E+03  0.12499748224E+03 0.  0.
          5    1    3    3  501    0  0.30118378217E+02 -0.61593145198E+02  0.71007758366E+02  0.98818135937E+02  0.47000000000E+01 0.  1.
         -5    1    3    3    0  501  0.43861269738E+01  0.26697443650E+02  0.21967447958E+03  0.22138418775E+03  0.47000000000E+01 0.  1.
          5    1    4    4  502    0 -0.42548106759E+02  0.61427171104E+02 -0.13362550080E+02  0.76054496798E+02  0.47000000000E+01 0.  1.
         -5    1    4    4    0  502  0.80436015675E+01 -0.26531469556E+02  0.59717689090E+02  0.66006899588E+02  0.47000000000E+01 0.  1.
<mgrwt>
<rscale>  0 0.31637565E+03</rscale>
<asrwt>0</asrwt>
<pdfrwt beam="1">  1       21 0.61484698E-01 0.31637565E+03</pdfrwt>
<pdfrwt beam="2">  1       21 0.96327959E-02 0.31637565E+03</pdfrwt>
<totfact> 0.20618242E+05</totfact>
</mgrwt>
</event>
<event>
 8    1  0.9569852E-006  0.4835579E+03  0.7546771E-02  0.1018162E+00
         21   -1    0    0  504  503  0.00000000000E+00  0.00000000000E+00  0.13688811339E+04  0.13688811339E+04  0.00000000000E+00 0. -1.
         21   -1    0    0  503  504 -0.00000000000E+00 -0.00000000000E+00 -0.42704269008E+02  0.42704269008E+02  0.00000000000E+00 0. -1.
         25    2    1    2    0    0 -0.10241522347E+03  0.43597192034E+01  0.13822196114E+03  0.21268231978E+03  0.12498229257E+03 0.  0.
         25    2    1    2    0    0  0.10241522347E+03 -0.43597192034E+01  0.11879549038E+04  0.11989030832E+04  0.12499545688E+03 0.  0.
          5    1    3    3  501    0 -0.10406655706E+03 -0.30189873260E+02  0.14074243121E+03  0.17768454826E+03  0.47000000000E+01 0. -1.
         -5    1    3    3    0  501  0.16513335945E+01  0.34549592464E+02 -0.25204700692E+01  0.34997771521E+02  0.47000000000E+01 0. -1.
          5    1    4    4  502    0 -0.27572238898E+02 -0.37435300531E+01  0.32191599991E+03  0.32315049648E+03  0.47000000000E+01 0. -1.
         -5    1    4    4    0  502  0.12998746237E+03 -0.61618915033E+00  0.86603890388E+03  0.87575258669E+03  0.47000000000E+01 0. -1.
<mgrwt>
<rscale>  0 0.48355793E+03</rscale>
<asrwt>0</asrwt>
<pdfrwt beam="1">  1       21 0.21059706E+00 0.48355793E+03</pdfrwt>
<pdfrwt beam="2">  1       21 0.65698886E-02 0.48355793E+03</pdfrwt>
<totfact> 0.16826503E+04</totfact>
</mgrwt>
</event>
<event>
 8    1  0.9569852E-006  0.3831522E+03  0.7546771E-02  0.1049775E+00
         21   -1    0    0  504  503  0.00000000000E+00  0.00000000000E+00  0.16623128148E+03  0.16623128148E+03  0.00000000000E+00 0. -1.
         21   -1    0    0  503  504 -0.00000000000E+00 -0.00000000000E+00 -0.22078514495E+03  0.22078514495E+03  0.00000000000E+00 0. -1.
         25    2    1    2    0    0  0.27858165989E+02  0.90006194873E+02  0.84291570192E+02  0.17778191455E+03  0.12499659118E+03 0.  0.
         25    2    1    2    0    0 -0.27858165989E+02 -0.90006194873E+02 -0.13884543366E+03  0.20923451189E+03  0.12499533587E+03 0.  0.
          5    1    3    3  501    0  0.52776079268E+02  0.20277825263E+01  0.65572252189E+02  0.84328148930E+02  0.47000000000E+01 0. -1.
         -5    1    3    3    0  501 -0.24917913279E+02  0.87978412346E+02  0.18719318004E+02  0.93453765615E+02  0.47000000000E+01 0. -1.
          5    1    4    4  502    0  0.38840816564E+02  0.28912718808E+01 -0.54055491589E+02  0.66791127071E+02  0.47000000000E+01 0.  1.
         -5    1    4    4    0  502 -0.66698982553E+02 -0.92897466753E+02 -0.84789942072E+02  0.14244338482E+03  0.47000000000E+01 0.  1.
<mgrwt>
<rscale>  0 0.38315218E+03</rscale>
<asrwt>0</asrwt>
<pdfrwt beam="1">  1       21 0.25574043E-01 0.38315218E+03</pdfrwt>
<pdfrwt beam="2">  1       21 0.33966945E-01 0.38315218E+03</pdfrwt>
<totfact> 0.11478186E+05</totfact>
</mgrwt>
</event>
<event>
 8    1  0.9569852E-006  0.2810993E+03  0.7546771E-02  0.1095090E+00
         21   -1    0    0  504  503  0.00000000000E+00  0.00000000000E+00  0.89922946354E+02  0.89922946354E+02  0.00000000000E+00 0.  1.
         21   -1    0    0  503  504 -0.00000000000E+00 -0.00000000000E+00 -0.21967918907E+03  0.21967918907E+03  0.00000000000E+00 0.  1.
         25    2    1    2    0    0 -0.31017951485E+02  0.56232706376E+02 -0.62704928394E+02  0.15389587640E+03  0.12501120809E+03 0.  0.
         25    2    1    2    0    0  0.31017951485E+02 -0.56232706376E+02 -0.67051314318E+02  0.15570625902E+03  0.12499731903E+03 0.  0.
          5    1    3    3  501    0 -0.77754463723E+02  0.48232857176E+02 -0.31257807238E+02  0.96805504252E+02  0.47000000000E+01 0. -1.
         -5    1    3    3    0  501  0.46736512237E+02  0.79998491993E+01 -0.31447121156E+02  0.57090372151E+02  0.47000000000E+01 0. -1.
          5    1    4    4  502    0 -0.11860523678E+02  0.73697692770E+01  0.29099753307E+02  0.32617037935E+02  0.47000000000E+01 0. -1.
         -5    1    4    4    0  502  0.42878475163E+02 -0.63602475653E+02 -0.96151067624E+02  0.12308922108E+03  0.47000000000E+01 0. -1.
<mgrwt>
<rscale>  0 0.28109927E+03</rscale>
<asrwt>0</asrwt>
<pdfrwt beam="1">  1       21 0.13834300E-01 0.28109927E+03</pdfrwt>
<pdfrwt beam="2">  1       21 0.33796798E-01 0.28109927E+03</pdfrwt>
<totfact> 0.37593979E+05</totfact>
</mgrwt>
</event>
<event>
 8    1  0.9569852E-006  0.3301008E+03  0.7546771E-02  0.1071092E+00
         21   -1    0    0  504  503  0.00000000000E+00  0.00000000000E+00  0.62988451387E+02  0.62988451387E+02  0.00000000000E+00 0.  1.
         21   -1    0    0  503  504 -0.00000000000E+00 -0.00000000000E+00 -0.43248624780E+03  0.43248624780E+03  0.00000000000E+00 0.  1.
         25    2    1    2    0    0  0.81619943937E+02  0.68650180512E+02 -0.16146455419E+03  0.23037528383E+03  0.12500922608E+03 0.  0.
         25    2    1    2    0    0 -0.81619943937E+02 -0.68650180512E+02 -0.20803324223E+03  0.26509941536E+03  0.12500083049E+03 0.  0.
          5    1    3    3  501    0  0.11491124206E+03  0.57476761156E+02 -0.12045317485E+03  0.17617953615E+03  0.47000000000E+01 0.  1.
         -5    1    3    3    0  501 -0.33291298127E+02  0.11173419356E+02 -0.41011379338E+02  0.54195747677E+02  0.47000000000E+01 0.  1.
          5    1    4    4  502    0 -0.81885642979E+02 -0.10730309054E+02 -0.18488787457E+03  0.20254879467E+03  0.47000000000E+01 0.  1.
         -5    1    4    4    0  502  0.26569904210E+00 -0.57919871458E+02 -0.23145367657E+02  0.62550620698E+02  0.47000000000E+01 0.  1.
<mgrwt>
<rscale>  0 0.33010083E+03</rscale>
<asrwt>0</asrwt>
<pdfrwt beam="1">  1       21 0.96905308E-02 0.33010083E+03</pdfrwt>
<pdfrwt beam="2">  1       21 0.66536347E-01 0.33010083E+03</pdfrwt>
<totfact> 0.17096812E+05</totfact>
</mgrwt>
</event>
<event>
 8    1  0.9569852E-006  0.3662750E+03  0.7546771E-02  0.1056127E+00
         21   -1    0    0  504  503  0.00000000000E+00  0.00000000000E+00  0.28809029003E+03  0.28809029003E+03  0.00000000000E+00 0. -1.
         21   -1    0    0  503  504 -0.00000000000E+00 -0.00000000000E+00 -0.11641952796E+03  0.11641952796E+03  0.00000000000E+00 0. -1.
         25    2    1    2    0    0  0.96491762692E+02  0.81511405523E+02  0.36933925107E+02  0.18150745599E+03  0.12500428896E+03 0.  0.
         25    2    1    2    0    0 -0.96491762692E+02 -0.81511405523E+02  0.13473683696E+03  0.22300236201E+03  0.12498507403E+03 0.  0.
          5    1    3    3  501    0 -0.28441082517E+01  0.70847368433E+02 -0.86645969122E+01  0.71586338119E+02  0.47000000000E+01 0. -1.
         -5    1    3    3    0  501  0.99335870943E+02  0.10664037090E+02  0.45598522019E+02  0.10992111787E+03  0.47000000000E+01 0. -1.
          5    1    4    4  502    0 -0.13173878201E+02  0.27391021793E+01 -0.22151111257E+02  0.26340377323E+02  0.47000000000E+01 0. -1.
         -5    1    4    4    0  502 -0.83317884491E+02 -0.84250507703E+02  0.15688794822E+03  0.19666198468E+03  0.47000000000E+01 0. -1.
<mgrwt>
<rscale>  0 0.36627495E+03</rscale>
<asrwt>0</asrwt>
<pdfrwt beam="1">  1       21 0.44321583E-01 0.36627495E+03</pdfrwt>
<pdfrwt beam="2">  1       21 0.17910697E-01 0.36627495E+03</pdfrwt>
<totfact> 0.13197510E+05</totfact>
</mgrwt>
</event>
<event>
 8    1  0.9569852E-006  0.5657647E+03  0.7546771E-02  0.9979095E-01
         21   -1    0    0  504  503  0.00000000000E+00  0.00000000000E+00  0.89467245991E+02  0.89467245991E+02  0.00000000000E+00 0.  1.
         21   -1    0    0  503  504 -0.00000000000E+00 -0.00000000000E+00 -0.89443255384E+03  0.89443255384E+03  0.00000000000E+00 0.  1.
         25    2    1    2    0    0 -0.11903565727E+03  0.20681614733E+03 -0.25232518764E+03  0.36910097569E+03  0.12500049375E+03 0.  0.
         25    2    1    2    0    0  0.11903565727E+03 -0.20681614733E+03 -0.55264012021E+03  0.61479882415E+03  0.12499634080E+03 0.  0.
          5    1    3    3  501    0 -0.11682707447E+02 -0.14344042617E+02 -0.39637605135E+02  0.43993942227E+02  0.47000000000E+01 0.  1.
         -5    1    3    3    0  501 -0.10735294982E+03  0.22116018994E+03 -0.21268758251E+03  0.32510703346E+03  0.47000000000E+01 0.  1.
          5    1    4    4  502    0  0.12444592227E+03 -0.15030612983E+03 -0.50187707434E+03  0.53849921818E+03  0.47000000000E+01 0.  1.
         -5    1    4    4    0  502 -0.54102650044E+01 -0.56510017494E+02 -0.50763045870E+02  0.76299605967E+02  0.47000000000E+01 0.  1.
<mgrwt>
<rscale>  0 0.56576468E+03</rscale>
<asrwt>0</asrwt>
<pdfrwt beam="1">  1       21 0.13764192E-01 0.56576468E+03</pdfrwt>
<pdfrwt beam="2">  1       21 0.13760501E+00 0.56576468E+03</pdfrwt>
<totfact> 0.14838189E+04</totfact>
</mgrwt>
</event>
<event>
 8    1  0.9569852E-006  0.2879833E+03  0.7546771E-02  0.1091407E+00
         21   -1    0    0  504  503  0.00000000000E+00  0.00000000000E+00  0.18204448144E+03  0.18204448144E+03  0.00000000000E+00 0.  1.
         21   -1    0    0  503  504 -0.00000000000E+00 -0.00000000000E+00 -0.11389301438E+03  0.11389301438E+03  0.00000000000E+00 0.  1.
         25    2    1    2    0    0  0.24068826547E+02  0.18912094752E+02  0.10043790257E+03  0.16324765449E+03  0.12500019474E+03 0.  0.
         25    2    1    2    0    0 -0.24068826547E+02 -0.18912094752E+02 -0.32286435506E+02  0.13268984132E+03  0.12500881702E+03 0.  0.
          5    1    3    3  501    0 -0.34366839345E+02 -0.22572511967E+02  0.20485816781E+01  0.41435306563E+02  0.47000000000E+01 0. -1.
         -5    1    3    3    0  501  0.58435665892E+02  0.41484606719E+02  0.98389320890E+02  0.12181234793E+03  0.47000000000E+01 0. -1.
          5    1    4    4  502    0  0.29453809392E+01 -0.21559103726E+02  0.45236851304E+02  0.50417585605E+02  0.47000000000E+01 0. -1.
         -5    1    4    4    0  502 -0.27014207486E+02  0.26470089743E+01 -0.77523286810E+02  0.82272255715E+02  0.47000000000E+01 0. -1.
<mgrwt>
<rscale>  0 0.28798330E+03</rscale>
<asrwt>0</asrwt>
<pdfrwt beam="1">  1       21 0.28006843E-01 0.28798330E+03</pdfrwt>
<pdfrwt beam="2">  1       21 0.17522002E-01 0.28798330E+03</pdfrwt>
<totfact> 0.35191393E+05</totfact>
</mgrwt>
</event>
<event>
 8    1  0.9569852E-006  0.4609311E+03  0.7546771E-02  0.1024512E+00
         21   -1    0    0  504  503  0.00000000000E+00  0.00000000000E+00  0.21887171799E+03  0.21887171799E+03  0.00000000000E+00 0. -1.
         21   -1    0    0  503  504 -0.00000000000E+00 -0.00000000000E+00 -0.24267350516E+03  0.24267350516E+03  0.00000000000E+00 0. -1.
         25    2    1    2    0    0 -0.12318929972E+03  0.12283190282E+03 -0.97034595217E+02  0.23516092499E+03  0.12498667150E+03 0.  0.
         25    2    1    2    0    0  0.12318929972E+03 -0.12283190282E+03  0.73232808051E+02  0.22638429816E+03  0.12499410531E+03 0.  0.
          5    1    3    3  501    0 -0.14111825863E+03  0.11034662767E+03 -0.10906495759E+03  0.20978082880E+03  0.47000000000E+01 0.  1.
         -5    1    3    3    0  501  0.17928958911E+02  0.12485275157E+02  0.12030362378E+02  0.25380096184E+02  0.47000000000E+01 0.  1.
          5    1    4    4  502    0  0.66445361672E+02 -0.42630724723E+02  0.97041843101E+02  0.12518615774E+03  0.47000000000E+01 0.  1.
         -5    1    4    4    0  502  0.56743938050E+02 -0.80201178101E+02 -0.23809035050E+02  0.10119814042E+03  0.47000000000E+01 0.  1.
<mgrwt>
<rscale>  0 0.46093109E+03</rscale>
<asrwt>0</asrwt>
<pdfrwt beam="1">  1       21 0.33672572E-01 0.46093109E+03</pdfrwt>
<pdfrwt beam="2">  1       21 0.37334385E-01 0.46093109E+03</pdfrwt>
<totfact> 0.54106635E+04</totfact>
</mgrwt>
</event>
<event>
 8    1  0.9569852E-006  0.3782846E+03  0.7546771E-02  0.1051570E+00
         21   -1    0    0  504  503  0.00000000000E+00  0.00000000000E+00  0.52501278680E+02  0.52501278680E+02  0.00000000000E+00 0.  1.
         21   -1    0    0  503  504 -0.00000000000E+00 -0.00000000000E+00 -0.68140831825E+03  0.68140831825E+03  0.00000000000E+00 0.  1.
         25    2    1    2    0    0 -0.57722445996E+02  0.51258956372E+02 -0.83341598411E+02  0.16890871328E+03  0.12499988007E+03 0.  0.
         25    2    1    2    0    0  0.57722445996E+02 -0.51258956372E+02 -0.54556544116E+03  0.56500088365E+03  0.12499994621E+03 0.  0.
          5    1    3    3  501    0 -0.79075561580E+01  0.73866759681E+02 -0.68513046247E+01  0.74751976598E+02  0.47000000000E+01 0.  1.
         -5    1    3    3    0  501 -0.49814889838E+02 -0.22607803309E+02 -0.76490293787E+02  0.94156736687E+02  0.47000000000E+01 0.  1.
          5    1    4    4  502    0  0.84337948999E+02 -0.34965352101E+02 -0.22467306764E+03  0.24256039003E+03  0.47000000000E+01 0.  1.
         -5    1    4    4    0  502 -0.26615503003E+02 -0.16293604271E+02 -0.32089237353E+03  0.32244049362E+03  0.47000000000E+01 0.  1.
<mgrwt>
<rscale>  0 0.37828459E+03</rscale>
<asrwt>0</asrwt>
<pdfrwt beam="1">  1       21 0.80771204E-02 0.37828459E+03</pdfrwt>
<pdfrwt beam="2">  1       21 0.10483204E+00 0.37828459E+03</pdfrwt>
<totfact> 0.81295809E+04</totfact>
</mgrwt>
</event>
<event>
 8    1  0.9569852E-006  0.2690909E+03  0.7546771E-02  0.1101801E+00
         21   -1    0    0  504  503  0.00000000000E+00  0.00000000000E+00  0.11635311570E+03  0.11635311570E+03  0.00000000000E+00 0. -1.
         21   -1    0    0  503  504 -0.00000000000E+00 -0.00000000000E+00 -0.15558222754E+03  0.15558222754E+03  0.00000000000E+00 0. -1.
         25    2    1    2    0    0  0.44195680566E+02  0.34677772926E+01  0.34255363436E+01  0.13262319005E+03  0.12494755932E+03 0.  0.
         25    2    1    2    0    0 -0.44195680566E+02 -0.34677772926E+01 -0.42654648191E+02  0.13931215319E+03  0.12499269320E+03 0.  0.
          5    1    3    3  501    0  0.25201663154E+02  0.62716978074E+02 -0.10842049487E+02  0.68616202180E+02  0.47000000000E+01 0.  1.
         -5    1    3    3    0  501  0.18994017412E+02 -0.59249200782E+02  0.14267585830E+02  0.64006987870E+02  0.47000000000E+01 0.  1.
          5    1    4    4  502    0 -0.52998950238E+02 -0.45755159490E+02  0.10176996925E+02  0.70908988236E+02  0.47000000000E+01 0.  1.
         -5    1    4    4    0  502  0.88032696723E+01  0.42287382198E+02 -0.52831645115E+02  0.68403164953E+02  0.47000000000E+01 0.  1.
<mgrwt>
<rscale>  0 0.26909089E+03</rscale>
<asrwt>0</asrwt>
<pdfrwt beam="1">  1       21 0.17900479E-01 0.26909089E+03</pdfrwt>
<pdfrwt beam="2">  1       21 0.23935727E-01 0.26909089E+03</pdfrwt>
<totfact> 0.45974510E+05</totfact>
</mgrwt>
</event>
<event>
 8    1  0.9569852E-006  0.3073751E+03  0.7546771E-02  0.1081611E+00
         21   -1    0    0  504  503  0.00000000000E+00  0.00000000000E+00  0.29119353983E+03  0.29119353983E+03  0.00000000000E+00 0. -1.
         21   -1    0    0  503  504 -0.00000000000E+00 -0.00000000000E+00 -0.81113973546E+02  0.81113973546E+02  0.00000000000E+00 0. -1.
         25    2    1    2    0    0  0.84896054123E+02  0.47591559139E+01  0.13853400972E+03  0.20505436508E+03  0.12500252485E+03 0.  0.
         25    2    1    2    0    0 -0.84896054123E+02 -0.47591559139E+01  0.71545556563E+02  0.16725314829E+03  0.12499943751E+03 0.  0.
          5    1    3    3  501    0 -0.27023581240E+01  0.23285929383E+02  0.10757585001E+03  0.11020068400E+03  0.47000000000E+01 0.  1.
         -5    1    3    3    0  501  0.87598412247E+02 -0.18526773469E+02  0.30958159704E+02  0.94853681087E+02  0.47000000000E+01 0.  1.
          5    1    4    4  502    0 -0.24122557706E+02  0.55564760907E+02  0.97138302434E+01  0.61528765166E+02  0.47000000000E+01 0.  1.
         -5    1    4    4    0  502 -0.60773496418E+02 -0.60323916821E+02  0.61831726320E+02  0.10572438312E+03  0.47000000000E+01 0.  1.
<mgrwt>
<rscale>  0 0.30737511E+03</rscale>
<asrwt>0</asrwt>
<pdfrwt beam="1">  1       21 0.44799006E-01 0.30737511E+03</pdfrwt>
<pdfrwt beam="2">  1       21 0.12479073E-01 0.30737511E+03</pdfrwt>
<totfact> 0.25435520E+05</totfact>
</mgrwt>
</event>
<event>
 8    1  0.9569852E-006  0.3063199E+03  0.7546771E-02  0.1082123E+00
         21   -1    0    0  504  503  0.00000000000E+00  0.00000000000E+00  0.50264866970E+03  0.50264866970E+03  0.00000000000E+00 0.  1.
         21   -1    0    0  503  504 -0.00000000000E+00 -0.00000000000E+00 -0.46668728273E+02  0.46668728273E+02  0.00000000000E+00 0.  1.
         25    2    1    2    0    0  0.18856498354E+01 -0.75812269864E+02  0.14614899410E+03  0.20672488083E+03  0.12499836775E+03 0.  0.
         25    2    1    2    0    0 -0.18856498354E+01  0.75812269864E+02  0.30983094732E+03  0.34259251714E+03  0.12499344360E+03 0.  0.
          5    1    3    3  501    0 -0.42653764946E+02 -0.28466438145E+02  0.55977972294E+01  0.51798717152E+02  0.47000000000E+01 0. -1.
         -5    1    3    3    0  501  0.44539414782E+02 -0.47345831718E+02  0.14055119687E+03  0.15492616368E+03  0.47000000000E+01 0. -1.
          5    1    4    4  502    0  0.11281677102E+02  0.62247071865E+02  0.46774405895E+02  0.78815666215E+02  0.47000000000E+01 0. -1.
         -5    1    4    4    0  502 -0.13167326938E+02  0.13565197998E+02  0.26305654143E+03  0.26377685092E+03  0.47000000000E+01 0. -1.
<mgrwt>
<rscale>  0 0.30631993E+03</rscale>
<asrwt>0</asrwt>
<pdfrwt beam="1">  1       21 0.77330561E-01 0.30631993E+03</pdfrwt>
<pdfrwt beam="2">  1       21 0.71798047E-02 0.30631993E+03</pdfrwt>
<totfact> 0.20826078E+05</totfact>
</mgrwt>
</event>
<event>
 8    1  0.9569852E-006  0.2689982E+03  0.7546771E-02  0.1101854E+00
         21   -1    0    0  504  503  0.00000000000E+00  0.00000000000E+00  0.28213466794E+02  0.28213466794E+02  0.00000000000E+00 0. -1.
         21   -1    0    0  503  504 -0.00000000000E+00 -0.00000000000E+00 -0.64118366808E+03  0.64118366808E+03  0.00000000000E+00 0. -1.
         25    2    1    2    0    0  0.40304290412E+02  0.28515108536E+02 -0.29326346632E+03  0.32258880639E+03  0.12499011996E+03 0.  0.
         25    2    1    2    0    0 -0.40304290412E+02 -0.28515108536E+02 -0.31970673496E+03  0.34680832848E+03  0.12500429226E+03 0.  0.
          5    1    3    3  501    0 -0.14616219502E+01  0.65332606044E+02 -0.22515362168E+03  0.23449249265E+03  0.47000000000E+01 0. -1.
         -5    1    3    3    0  501  0.41765912362E+02 -0.36817497508E+02 -0.68109844640E+02  0.88096313743E+02  0.47000000000E+01 0. -1.
          5    1    4    4  502    0  0.29235097715E+02  0.26720798851E+02 -0.14999786936E+03  0.15520999595E+03  0.47000000000E+01 0. -1.
         -5    1    4    4    0  502 -0.69539388126E+02 -0.55235907386E+02 -0.16970886560E+03  0.19159833253E+03  0.47000000000E+01 0. -1.
<mgrwt>
<rscale>  0 0.26899825E+03</rscale>
<asrwt>0</asrwt>
<pdfrwt beam="1">  1       21 0.43405338E-02 0.26899825E+03</pdfrwt>
<pdfrwt beam="2">  1       21 0.98643630E-01 0.26899825E+03</pdfrwt>
<totfact> 0.28347194E+05</totfact>
</mgrwt>
</event>
<event>
 8    1  0.9569852E-006  0.2872104E+03  0.7546771E-02  0.1091815E+00
         21   -1    0    0  504  503  0.00000000000E+00  0.00000000000E+00  0.12106753379E+03  0.12106753379E+03  0.00000000000E+00 0. -1.
         21   -1    0    0  503  504 -0.00000000000E+00 -0.00000000000E+00 -0.17033839138E+03  0.17033839138E+03  0.00000000000E+00 0. -1.
         25    2    1    2    0    0 -0.33173774716E+02 -0.53008908994E+02  0.88031932505E+01  0.14005505678E+03  0.12500991543E+03 0.  0.
         25    2    1    2    0    0  0.33173774716E+02  0.53008908994E+02 -0.58074050846E+02  0.15135086840E+03  0.12499618482E+03 0.  0.
          5    1    3    3  501    0  0.15350654129E+02 -0.68561533329E+02  0.39143535352E+02  0.80564463596E+02  0.47000000000E+01 0.  1.
         -5    1    3    3    0  501 -0.48524428846E+02  0.15552624335E+02 -0.30340342102E+02  0.59490593184E+02  0.47000000000E+01 0.  1.
          5    1    4    4  502    0  0.13566730184E+01  0.11819566948E+02 -0.89474261822E+02  0.90384048665E+02  0.47000000000E+01 0.  1.
         -5    1    4    4    0  502  0.31817101698E+02  0.41189342046E+02  0.31400210977E+02  0.60966819730E+02  0.47000000000E+01 0.  1.
<mgrwt>
<rscale>  0 0.28721037E+03</rscale>
<asrwt>0</asrwt>
<pdfrwt beam="1">  1       21 0.18625774E-01 0.28721037E+03</pdfrwt>
<pdfrwt beam="2">  1       21 0.26205906E-01 0.28721037E+03</pdfrwt>
<totfact> 0.35735524E+05</totfact>
</mgrwt>
</event>
<event>
 8    1  0.9569852E-006  0.3045109E+03  0.7546771E-02  0.1083007E+00
         21   -1    0    0  504  503  0.00000000000E+00  0.00000000000E+00  0.10416121469E+04  0.10416121469E+04  0.00000000000E+00 0. -1.
         21   -1    0    0  503  504 -0.00000000000E+00 -0.00000000000E+00 -0.22255621654E+02  0.22255621654E+02  0.00000000000E+00 0. -1.
         25    2    1    2    0    0  0.33508819002E+02 -0.77816974039E+01  0.78863275861E+03  0.79921843467E+03  0.12500033042E+03 0.  0.
         25    2    1    2    0    0 -0.33508819002E+02  0.77816974039E+01  0.23072376660E+03  0.26464933385E+03  0.12498967023E+03 0.  0.
          5    1    3    3  501    0  0.34869461932E+02 -0.60345759362E+02  0.57183320979E+03  0.57608402154E+03  0.47000000000E+01 0. -1.
         -5    1    3    3    0  501 -0.13606429295E+01  0.52564061958E+02  0.21679954882E+03  0.22313441314E+03  0.47000000000E+01 0. -1.
          5    1    4    4  502    0  0.20063403389E+02 -0.36495713592E+02  0.15992826885E+03  0.16532881915E+03  0.47000000000E+01 0. -1.
         -5    1    4    4    0  502 -0.53572222392E+02  0.44277410996E+02  0.70795497756E+02  0.99320514694E+02  0.47000000000E+01 0. -1.
<mgrwt>
<rscale>  0 0.30451092E+03</rscale>
<asrwt>0</asrwt>
<pdfrwt beam="1">  1       21 0.16024798E+00 0.30451092E+03</pdfrwt>
<pdfrwt beam="2">  1       21 0.34239426E-02 0.30451092E+03</pdfrwt>
<totfact> 0.12176055E+05</totfact>
</mgrwt>
</event>
<event>
 8    1  0.9569852E-006  0.2790071E+03  0.7546771E-02  0.1096232E+00
         21   -1    0    0  504  503  0.00000000000E+00  0.00000000000E+00  0.17801460283E+03  0.17801460283E+03  0.00000000000E+00 0.  1.
         21   -1    0    0  503  504 -0.00000000000E+00 -0.00000000000E+00 -0.10932386392E+03  0.10932386392E+03  0.00000000000E+00 0.  1.
         25    2    1    2    0    0  0.50433267834E+01 -0.61622079146E+02  0.38228190379E+02  0.14459995349E+03  0.12500014490E+03 0.  0.
         25    2    1    2    0    0 -0.50433267834E+01  0.61622079146E+02  0.30462548527E+02  0.14273851326E+03  0.12499440197E+03 0.  0.
          5    1    3    3  501    0  0.40917459048E+02 -0.60451835252E+02 -0.20182031201E+02  0.75881929494E+02  0.47000000000E+01 0. -1.
         -5    1    3    3    0  501 -0.35874132264E+02 -0.11702438939E+01  0.58410221581E+02  0.68718023994E+02  0.47000000000E+01 0. -1.
          5    1    4    4  502    0 -0.49087081957E+02  0.41276669375E+02  0.58133825834E+02  0.86688734885E+02  0.47000000000E+01 0. -1.
         -5    1    4    4    0  502  0.44043755174E+02  0.20345409771E+02 -0.27671277307E+02  0.56049778380E+02  0.47000000000E+01 0. -1.
<mgrwt>
<rscale>  0 0.27900713E+03</rscale>
<asrwt>0</asrwt>
<pdfrwt beam="1">  1       21 0.27386862E-01 0.27900713E+03</pdfrwt>
<pdfrwt beam="2">  1       21 0.16819056E-01 0.27900713E+03</pdfrwt>
<totfact> 0.39732451E+05</totfact>
</mgrwt>
</event>
<event>
 8    1  0.9569852E-006  0.4754237E+03  0.7546771E-02  0.1020401E+00
         21   -1    0    0  504  503  0.00000000000E+00  0.00000000000E+00  0.22751406891E+03  0.22751406891E+03  0.00000000000E+00 0. -1.
         21   -1    0    0  503  504 -0.00000000000E+00 -0.00000000000E+00 -0.24836667564E+03  0.24836667564E+03  0.00000000000E+00 0. -1.
         25    2    1    2    0    0  0.20188672986E+03 -0.61815942237E+01 -0.19688202088E+02  0.23834796333E+03  0.12500265005E+03 0.  0.
         25    2    1    2    0    0 -0.20188672986E+03  0.61815942237E+01 -0.11644046479E+01  0.23753278122E+03  0.12499601000E+03 0.  0.
          5    1    3    3  501    0  0.20278517717E+03  0.11854884845E+02 -0.43805701821E+02  0.20785426598E+03  0.47000000000E+01 0.  1.
         -5    1    3    3    0  501 -0.89844730615E+00 -0.18036479069E+02  0.24117499732E+02  0.30493697351E+02  0.47000000000E+01 0.  1.
          5    1    4    4  502    0 -0.20439642745E+03  0.29683407234E+02  0.17092231427E+02  0.20729987601E+03  0.47000000000E+01 0.  1.
         -5    1    4    4    0  502  0.25096975869E+01 -0.23501813010E+02 -0.18256636075E+02  0.30232905212E+02  0.47000000000E+01 0.  1.
<mgrwt>
<rscale>  0 0.47542366E+03</rscale>
<asrwt>0</asrwt>
<pdfrwt beam="1">  1       21 0.35002164E-01 0.47542366E+03</pdfrwt>
<pdfrwt beam="2">  1       21 0.38210258E-01 0.47542366E+03</pdfrwt>
<totfact> 0.47573736E+04</totfact>
</mgrwt>
</event>
<event>
 8    1  0.9569852E-006  0.2662918E+03  0.7546771E-02  0.1103421E+00
         21   -1    0    0  504  503  0.00000000000E+00  0.00000000000E+00  0.54711645297E+02  0.54711645297E+02  0.00000000000E+00 0.  1.
         21   -1    0    0  503  504 -0.00000000000E+00 -0.00000000000E+00 -0.32402297786E+03  0.32402297786E+03  0.00000000000E+00 0.  1.
         25    2    1    2    0    0  0.39972417970E+02 -0.18439448535E+02 -0.15298904415E+03  0.20240176288E+03  0.12499207386E+03 0.  0.
         25    2    1    2    0    0 -0.39972417970E+02  0.18439448535E+02 -0.11632228841E+03  0.17633286027E+03  0.12499838147E+03 0.  0.
          5    1    3    3  501    0  0.69716732067E+02  0.27462557544E+02 -0.68426371870E+02  0.10158185450E+03  0.47000000000E+01 0.  1.
         -5    1    3    3    0  501 -0.29744314097E+02 -0.45902006079E+02 -0.84562672280E+02  0.10081990838E+03  0.47000000000E+01 0.  1.
          5    1    4    4  502    0  0.95478568613E+01 -0.27859563839E+02  0.11181746639E+02  0.31850248443E+02  0.47000000000E+01 0.  1.
         -5    1    4    4    0  502 -0.49520274832E+02  0.46299012374E+02 -0.12750403505E+03  0.14448261183E+03  0.47000000000E+01 0.  1.
<mgrwt>
<rscale>  0 0.26629180E+03</rscale>
<asrwt>0</asrwt>
<pdfrwt beam="1">  1       21 0.84171762E-02 0.26629180E+03</pdfrwt>
<pdfrwt beam="2">  1       21 0.49849689E-01 0.26629180E+03</pdfrwt>
<totfact> 0.41443002E+05</totfact>
</mgrwt>
</event>
<event>
 8    1  0.9569852E-006  0.2674990E+03  0.7546771E-02  0.1102720E+00
         21   -1    0    0  504  503  0.00000000000E+00  0.00000000000E+00  0.63218580795E+02  0.63218580795E+02  0.00000000000E+00 0.  1.
         21   -1    0    0  503  504 -0.00000000000E+00 -0.00000000000E+00 -0.28296952073E+03  0.28296952073E+03  0.00000000000E+00 0.  1.
         25    2    1    2    0    0 -0.21094267808E+02 -0.32625252785E+02 -0.14546036647E+03  0.19568591776E+03  0.12499953978E+03 0.  0.
         25    2    1    2    0    0  0.21094267808E+02  0.32625252785E+02 -0.74290573471E+02  0.15050218376E+03  0.12498977061E+03 0.  0.
          5    1    3    3  501    0 -0.61515982291E+02 -0.52159893134E+02 -0.66094591050E+02  0.10438129859E+03  0.47000000000E+01 0.  1.
         -5    1    3    3    0  501  0.40421714483E+02  0.19534640349E+02 -0.79365775418E+02  0.91304619177E+02  0.47000000000E+01 0.  1.
          5    1    4    4  502    0 -0.14474600725E+02 -0.37109093680E+02 -0.57818809653E+02  0.70368342666E+02  0.47000000000E+01 0.  1.
         -5    1    4    4    0  502  0.35568868533E+02  0.69734346465E+02 -0.16471763818E+02  0.80133841097E+02  0.47000000000E+01 0.  1.
<mgrwt>
<rscale>  0 0.26749902E+03</rscale>
<asrwt>0</asrwt>
<pdfrwt beam="1">  1       21 0.97259357E-02 0.26749902E+03</pdfrwt>
<pdfrwt beam="2">  1       21 0.43533772E-01 0.26749902E+03</pdfrwt>
<totfact> 0.42541531E+05</totfact>
</mgrwt>
</event>
<event>
 8    1  0.9569852E-006  0.2518175E+03  0.7546771E-02  0.1112162E+00
         21   -1    0    0  504  503  0.00000000000E+00  0.00000000000E+00  0.27111555916E+02  0.27111555916E+02  0.00000000000E+00 0.  1.
         21   -1    0    0  503  504 -0.00000000000E+00 -0.00000000000E+00 -0.58473292508E+03  0.58473292508E+03  0.00000000000E+00 0.  1.
         25    2    1    2    0    0  0.14422923901E+02 -0.32405375561E+01 -0.28619443336E+03  0.31265204018E+03  0.12500209089E+03 0.  0.
         25    2    1    2    0    0 -0.14422923901E+02  0.32405375561E+01 -0.27142693580E+03  0.29919244081E+03  0.12500005337E+03 0.  0.
          5    1    3    3  501    0  0.30950903981E+02  0.24546961617E+02 -0.20122184323E+02  0.44581432052E+02  0.47000000000E+01 0. -1.
         -5    1    3    3    0  501 -0.16527980079E+02 -0.27787499173E+02 -0.26607224904E+03  0.26807060813E+03  0.47000000000E+01 0. -1.
          5    1    4    4  502    0  0.54022273554E+02  0.14922792558E+02 -0.11781385786E+03  0.13054995550E+03  0.47000000000E+01 0.  1.
         -5    1    4    4    0  502 -0.68445197456E+02 -0.11682255002E+02 -0.15361307794E+03  0.16864248531E+03  0.47000000000E+01 0.  1.
<mgrwt>
<rscale>  0 0.25181755E+03</rscale>
<asrwt>0</asrwt>
<pdfrwt beam="1">  1       21 0.41710089E-02 0.25181755E+03</pdfrwt>
<pdfrwt beam="2">  1       21 0.89958905E-01 0.25181755E+03</pdfrwt>
<totfact> 0.37838552E+05</totfact>
</mgrwt>
</event>
<event>
 8    1  0.9569852E-006  0.2866912E+03  0.7546771E-02  0.1092089E+00
         21   -1    0    0  504  503  0.00000000000E+00  0.00000000000E+00  0.14665644065E+04  0.14665644065E+04  0.00000000000E+00 0. -1.
         21   -1    0    0  503  504 -0.00000000000E+00 -0.00000000000E+00 -0.14010948614E+02  0.14010948614E+02  0.00000000000E+00 0. -1.
         25    2    1    2    0    0  0.37268500451E+02 -0.17239803374E+02  0.43247098965E+03  0.45204349725E+03  0.12500405822E+03 0.  0.
         25    2    1    2    0    0 -0.37268500451E+02  0.17239803374E+02  0.10200824682E+04  0.10285318579E+04  0.12499355460E+03 0.  0.
          5    1    3    3  501    0 -0.38223316251E+02 -0.32154098830E+02  0.22960910192E+03  0.23502624888E+03  0.47000000000E+01 0. -1.
         -5    1    3    3    0  501  0.75491816702E+02  0.14914295456E+02  0.20286188772E+03  0.21701724837E+03  0.47000000000E+01 0. -1.
          5    1    4    4  502    0  0.42649775865E+02 -0.62565892447E+00  0.51992824763E+03  0.52169614482E+03  0.47000000000E+01 0. -1.
         -5    1    4    4    0  502 -0.79918276316E+02  0.17865462299E+02  0.50015422061E+03  0.50683571306E+03  0.47000000000E+01 0. -1.
<mgrwt>
<rscale>  0 0.28669118E+03</rscale>
<asrwt>0</asrwt>
<pdfrwt beam="1">  1       21 0.22562517E+00 0.28669118E+03</pdfrwt>
<pdfrwt beam="2">  1       21 0.21555317E-02 0.28669118E+03</pdfrwt>
<totfact> 0.96235383E+04</totfact>
</mgrwt>
</event>
<event>
 8    1  0.9569852E-006  0.5253470E+03  0.7546771E-02  0.1007367E+00
         21   -1    0    0  504  503  0.00000000000E+00  0.00000000000E+00  0.38874739643E+03  0.38874739643E+03  0.00000000000E+00 0. -1.
         21   -1    0    0  503  504 -0.00000000000E+00 -0.00000000000E+00 -0.17748639521E+03  0.17748639521E+03  0.00000000000E+00 0. -1.
         25    2    1    2    0    0 -0.22698729545E+03  0.11732468006E+02  0.15024087521E+03  0.29976118162E+03  0.12499424914E+03 0.  0.
         25    2    1    2    0    0  0.22698729545E+03 -0.11732468006E+02  0.61020126012E+02  0.26647261003E+03  0.12499325187E+03 0.  0.
          5    1    3    3  501    0 -0.53301932080E+02 -0.48840911885E+02  0.22864291555E+02  0.75969707552E+02  0.47000000000E+01 0.  1.
         -5    1    3    3    0  501 -0.17368536337E+03  0.60573379891E+02  0.12737658366E+03  0.22379147407E+03  0.47000000000E+01 0.  1.
          5    1    4    4  502    0  0.12176625753E+03 -0.18848423252E+02 -0.30204543460E+02  0.12695152216E+03  0.47000000000E+01 0.  1.
         -5    1    4    4    0  502  0.10522103792E+03  0.71159552451E+01  0.91224669472E+02  0.13952108787E+03  0.47000000000E+01 0.  1.
<mgrwt>
<rscale>  0 0.52534702E+03</rscale>
<asrwt>0</asrwt>
<pdfrwt beam="1">  1       21 0.59807292E-01 0.52534702E+03</pdfrwt>
<pdfrwt beam="2">  1       21 0.27305599E-01 0.52534702E+03</pdfrwt>
<totfact> 0.29921817E+04</totfact>
</mgrwt>
</event>
<event>
 8    1  0.9569852E-006  0.3756862E+03  0.7546771E-02  0.1052540E+00
         21   -1    0    0  504  503  0.00000000000E+00  0.00000000000E+00  0.62948075696E+03  0.62948075696E+03  0.00000000000E+00 0.  1.
         21   -1    0    0  503  504 -0.00000000000E+00 -0.00000000000E+00 -0.56054188564E+02  0.56054188564E+02  0.00000000000E+00 0.  1.
         25    2    1    2    0    0  0.12946144205E+03 -0.37816243247E+02  0.21674154207E+03  0.28423836251E+03  0.12499686968E+03 0.  0.
         25    2    1    2    0    0 -0.12946144205E+03  0.37816243247E+02  0.35668502633E+03  0.40129658302E+03  0.12499762519E+03 0.  0.
          5    1    3    3  501    0  0.12084007735E+03 -0.39590715513E+01  0.21759775785E+03  0.24897564693E+03  0.47000000000E+01 0.  1.
         -5    1    3    3    0  501  0.86213647083E+01 -0.33857171695E+02 -0.85621578353E+00  0.35262715581E+02  0.47000000000E+01 0.  1.
          5    1    4    4  502    0 -0.14950762358E+03  0.47524167219E+02  0.27646035439E+03  0.31790484980E+03  0.47000000000E+01 0.  1.
         -5    1    4    4    0  502  0.20046181521E+02 -0.97079239724E+01  0.80224671938E+02  0.83391733217E+02  0.47000000000E+01 0.  1.
<mgrwt>
<rscale>  0 0.37568622E+03</rscale>
<asrwt>0</asrwt>
<pdfrwt beam="1">  1       21 0.96843188E-01 0.37568622E+03</pdfrwt>
<pdfrwt beam="2">  1       21 0.86237218E-02 0.37568622E+03</pdfrwt>
<totfact> 0.87787885E+04</totfact>
</mgrwt>
</event>
<event>
 8    1  0.9569852E-006  0.3922446E+03  0.7546771E-02  0.1046499E+00
         21   -1    0    0  504  503  0.00000000000E+00  0.00000000000E+00  0.78199875233E+02  0.78199875233E+02  0.00000000000E+00 0.  1.
         21   -1    0    0  503  504 -0.00000000000E+00 -0.00000000000E+00 -0.49186716007E+03  0.49186716007E+03  0.00000000000E+00 0.  1.
         25    2    1    2    0    0  0.10815457357E+03  0.96216924310E+02 -0.26991457193E+03  0.33080904963E+03  0.12500257145E+03 0.  0.
         25    2    1    2    0    0 -0.10815457357E+03 -0.96216924310E+02 -0.14375271291E+03  0.23925798568E+03  0.12499773171E+03 0.  0.
          5    1    3    3  501    0  0.41658759315E+02  0.11036088971E+02 -0.37587862069E+01  0.43513974320E+02  0.47000000000E+01 0. -1.
         -5    1    3    3    0  501  0.66495814258E+02  0.85180835339E+02 -0.26615578572E+03  0.28729507531E+03  0.47000000000E+01 0. -1.
          5    1    4    4  502    0 -0.42835296986E+02 -0.10176082666E+03 -0.13257305373E+03  0.17259152089E+03  0.47000000000E+01 0.  1.
         -5    1    4    4    0  502 -0.65319276587E+02  0.55439023468E+01 -0.11179659180E+02  0.66666464782E+02  0.47000000000E+01 0.  1.
<mgrwt>
<rscale>  0 0.39224457E+03</rscale>
<asrwt>0</asrwt>
<pdfrwt beam="1">  1       21 0.12030750E-01 0.39224457E+03</pdfrwt>
<pdfrwt beam="2">  1       21 0.75671870E-01 0.39224457E+03</pdfrwt>
<totfact> 0.85549950E+04</totfact>
</mgrwt>
</event>
<event>
 8    1  0.9569852E-006  0.3111409E+03  0.7546771E-02  0.1079800E+00
         21   -1    0    0  504  503  0.00000000000E+00  0.00000000000E+00  0.14990105342E+03  0.14990105342E+03  0.00000000000E+00 0. -1.
         21   -1    0    0  503  504 -0.00000000000E+00 -0.00000000000E+00 -0.16145423745E+03  0.16145423745E+03  0.00000000000E+00 0. -1.
         25    2    1    2    0    0 -0.57126652612E+02  0.62136431958E+02  0.32360113068E+02  0.15426500209E+03  0.12500449327E+03 0.  0.
         25    2    1    2    0    0  0.57126652612E+02 -0.62136431958E+02 -0.43913297100E+02  0.15709028878E+03  0.12499836220E+03 0.  0.
          5    1    3    3  501    0 -0.65818512832E+02  0.88080155927E+02  0.50513766531E+02  0.12109467828E+03  0.47000000000E+01 0. -1.
         -5    1    3    3    0  501  0.86918602202E+01 -0.25943723968E+02 -0.18153653463E+02  0.33170323807E+02  0.47000000000E+01 0. -1.
          5    1    4    4  502    0  0.56584558830E+02  0.14881112701E+02 -0.53391840013E+02  0.79347579630E+02  0.47000000000E+01 0.  1.
         -5    1    4    4    0  502  0.54209378185E+00 -0.77017544659E+02  0.94785429130E+01  0.77742709155E+02  0.47000000000E+01 0.  1.
<mgrwt>
<rscale>  0 0.31114087E+03</rscale>
<asrwt>0</asrwt>
<pdfrwt beam="1">  1       21 0.23061700E-01 0.31114087E+03</pdfrwt>
<pdfrwt beam="2">  1       21 0.24839114E-01 0.31114087E+03</pdfrwt>
<totfact> 0.26327213E+05</totfact>
</mgrwt>
</event>
<event>
 8    1  0.9569852E-006  0.2621271E+03  0.7546771E-02  0.1105872E+00
         21   -1    0    0  504  503  0.00000000000E+00  0.00000000000E+00  0.75736680361E+02  0.75736680361E+02  0.00000000000E+00 0.  1.
         21   -1    0    0  503  504 -0.00000000000E+00 -0.00000000000E+00 -0.22680765632E+03  0.22680765632E+03  0.00000000000E+00 0.  1.
         25    2    1    2    0    0  0.33646225212E+02  0.19902943215E+02 -0.69578973113E+02  0.14829394208E+03  0.12498665584E+03 0.  0.
         25    2    1    2    0    0 -0.33646225212E+02 -0.19902943215E+02 -0.81492002844E+02  0.15425039460E+03  0.12499616829E+03 0.  0.
          5    1    3    3  501    0  0.73595110459E+01  0.39409772268E+02  0.25420576712E+02  0.47703126453E+02  0.47000000000E+01 0. -1.
         -5    1    3    3    0  501  0.26286714166E+02 -0.19506829053E+02 -0.94999549825E+02  0.10059081563E+03  0.47000000000E+01 0. -1.
          5    1    4    4  502    0 -0.73080577089E+02 -0.42315794058E+02 -0.44740746110E+02  0.95682921866E+02  0.47000000000E+01 0.  1.
         -5    1    4    4    0  502  0.39434351877E+02  0.22412850843E+02 -0.36751256734E+02  0.58567472734E+02  0.47000000000E+01 0.  1.
<mgrwt>
<rscale>  0 0.26212714E+03</rscale>
<asrwt>0</asrwt>
<pdfrwt beam="1">  1       21 0.11651797E-01 0.26212714E+03</pdfrwt>
<pdfrwt beam="2">  1       21 0.34893485E-01 0.26212714E+03</pdfrwt>
<totfact> 0.48301175E+05</totfact>
</mgrwt>
</event>
<event>
 8    1  0.9569852E-006  0.2530959E+03  0.7546771E-02  0.1111364E+00
         21   -1    0    0  504  503  0.00000000000E+00  0.00000000000E+00  0.58670724643E+02  0.58670724643E+02  0.00000000000E+00 0.  1.
         21   -1    0    0  503  504 -0.00000000000E+00 -0.00000000000E+00 -0.27295365244E+03  0.27295365244E+03  0.00000000000E+00 0.  1.
         25    2    1    2    0    0  0.31498746483E+01  0.19408471818E+02 -0.10994052609E+03  0.16761532753E+03  0.12498547218E+03 0.  0.
         25    2    1    2    0    0 -0.31498746483E+01 -0.19408471818E+02 -0.10434240171E+03  0.16400904955E+03  0.12500008421E+03 0.  0.
          5    1    3    3  501    0 -0.31517427045E+02 -0.22374225760E+02  0.61042371225E+01  0.39412001938E+02  0.47000000000E+01 0.  1.
         -5    1    3    3    0  501  0.34667301694E+02  0.41782697578E+02 -0.11604476321E+03  0.12820332559E+03  0.47000000000E+01 0.  1.
          5    1    4    4  502    0 -0.12172280859E+02  0.50418452065E+02 -0.24815270200E+02  0.57689447605E+02  0.47000000000E+01 0.  1.
         -5    1    4    4    0  502  0.90224062109E+01 -0.69826923882E+02 -0.79527131507E+02  0.10631960195E+03  0.47000000000E+01 0.  1.
<mgrwt>
<rscale>  0 0.25309594E+03</rscale>
<asrwt>0</asrwt>
<pdfrwt beam="1">  1       21 0.90262653E-02 0.25309594E+03</pdfrwt>
<pdfrwt beam="2">  1       21 0.41992870E-01 0.25309594E+03</pdfrwt>
<totfact> 0.52422987E+05</totfact>
</mgrwt>
</event>
<event>
 8    1  0.9569852E-006  0.3017326E+03  0.7546771E-02  0.1084378E+00
         21   -1    0    0  504  503  0.00000000000E+00  0.00000000000E+00  0.19364748113E+03  0.19364748113E+03  0.00000000000E+00 0. -1.
         21   -1    0    0  503  504 -0.00000000000E+00 -0.00000000000E+00 -0.11753646646E+03  0.11753646646E+03  0.00000000000E+00 0. -1.
         25    2    1    2    0    0  0.29785778522E+02  0.34161504709E+02 -0.35457148798E+02  0.13760954263E+03  0.12499990326E+03 0.  0.
         25    2    1    2    0    0 -0.29785778522E+02 -0.34161504709E+02  0.11156816347E+03  0.17357440496E+03  0.12500567168E+03 0.  0.
          5    1    3    3  501    0  0.23080107904E+02  0.47852025722E+01 -0.80053132225E+02  0.83583392630E+02  0.47000000000E+01 0.  1.
         -5    1    3    3    0  501  0.67056706173E+01  0.29376302137E+02  0.44595983427E+02  0.54026149997E+02  0.47000000000E+01 0.  1.
          5    1    4    4  502    0  0.22101286320E+01 -0.77956974448E+02  0.72288609464E+02  0.10644203865E+03  0.47000000000E+01 0.  1.
         -5    1    4    4    0  502 -0.31995907154E+02  0.43795469739E+02  0.39279554001E+02  0.67132366313E+02  0.47000000000E+01 0.  1.
<mgrwt>
<rscale>  0 0.30173260E+03</rscale>
<asrwt>0</asrwt>
<pdfrwt beam="1">  1       21 0.29791920E-01 0.30173260E+03</pdfrwt>
<pdfrwt beam="2">  1       21 0.18082533E-01 0.30173260E+03</pdfrwt>
<totfact> 0.29321563E+05</totfact>
</mgrwt>
</event>
<event>
 8    1  0.9569852E-006  0.2803575E+03  0.7546771E-02  0.1095494E+00
         21   -1    0    0  504  503  0.00000000000E+00  0.00000000000E+00  0.14394689971E+03  0.14394689971E+03  0.00000000000E+00 0. -1.
         21   -1    0    0  503  504 -0.00000000000E+00 -0.00000000000E+00 -0.13650920676E+03  0.13650920676E+03  0.00000000000E+00 0. -1.
         25    2    1    2    0    0 -0.34675336965E+02  0.48234637956E+02  0.26019038590E+02  0.14081352189E+03  0.12498999274E+03 0.  0.
         25    2    1    2    0    0  0.34675336965E+02 -0.48234637956E+02 -0.18581345644E+02  0.13964258457E+03  0.12500330287E+03 0.  0.
          5    1    3    3  501    0 -0.68985396190E+02  0.25419231214E+02 -0.22459466131E+02  0.77017139793E+02  0.47000000000E+01 0. -1.
         -5    1    3    3    0  501  0.34310059226E+02  0.22815406742E+02  0.48478504721E+02  0.63796382099E+02  0.47000000000E+01 0. -1.
          5    1    4    4  502    0  0.23245258679E+02 -0.32835699949E+02 -0.72044402871E+02  0.82649931804E+02  0.47000000000E+01 0. -1.
         -5    1    4    4    0  502  0.11430078286E+02 -0.15398938007E+02  0.53463057228E+02  0.56992652768E+02  0.47000000000E+01 0. -1.
<mgrwt>
<rscale>  0 0.28035747E+03</rscale>
<asrwt>0</asrwt>
<pdfrwt beam="1">  1       21 0.22145677E-01 0.28035747E+03</pdfrwt>
<pdfrwt beam="2">  1       21 0.21001416E-01 0.28035747E+03</pdfrwt>
<totfact> 0.39429079E+05</totfact>
</mgrwt>
</event>
<event>
 8    1  0.9569852E-006  0.2603975E+03  0.7546771E-02  0.1106905E+00
         21   -1    0    0  504  503  0.00000000000E+00  0.00000000000E+00  0.54262327427E+02  0.54262327427E+02  0.00000000000E+00 0.  1.
         21   -1    0    0  503  504 -0.00000000000E+00 -0.00000000000E+00 -0.31240292377E+03  0.31240292377E+03  0.00000000000E+00 0.  1.
         25    2    1    2    0    0  0.12877479571E+01 -0.33485415179E+02 -0.10904095898E+03  0.16923539781E+03  0.12501103077E+03 0.  0.
         25    2    1    2    0    0 -0.12877479571E+01  0.33485415179E+02 -0.14909963736E+03  0.19742985338E+03  0.12499965528E+03 0.  0.
          5    1    3    3  501    0  0.26634108497E+02  0.39173649283E+02 -0.64609013631E+02  0.80251885809E+02  0.47000000000E+01 0.  1.
         -5    1    3    3    0  501 -0.25346360539E+02 -0.72659064462E+02 -0.44431945351E+02  0.88983512005E+02  0.47000000000E+01 0.  1.
          5    1    4    4  502    0  0.34452151987E+02 -0.35763261248E+02 -0.72944993331E+02  0.88368680445E+02  0.47000000000E+01 0.  1.
         -5    1    4    4    0  502 -0.35739899944E+02  0.69248676427E+02 -0.76154644026E+02  0.10906117293E+03  0.47000000000E+01 0.  1.
<mgrwt>
<rscale>  0 0.26039746E+03</rscale>
<asrwt>0</asrwt>
<pdfrwt beam="1">  1       21 0.83480503E-02 0.26039746E+03</pdfrwt>
<pdfrwt beam="2">  1       21 0.48061989E-01 0.26039746E+03</pdfrwt>
<totfact> 0.45441737E+05</totfact>
</mgrwt>
</event>
<event>
 8    1  0.9569852E-006  0.3140260E+03  0.7546771E-02  0.1078432E+00
         21   -1    0    0  504  503  0.00000000000E+00  0.00000000000E+00  0.77419346924E+03  0.77419346924E+03  0.00000000000E+00 0.  1.
         21   -1    0    0  503  504 -0.00000000000E+00 -0.00000000000E+00 -0.31843564339E+02  0.31843564339E+02  0.00000000000E+00 0.  1.
         25    2    1    2    0    0 -0.67825396871E+02  0.64936587450E+02  0.40850604212E+03  0.43739959750E+03  0.12499670634E+03 0.  0.
         25    2    1    2    0    0  0.67825396871E+02 -0.64936587450E+02  0.33384386279E+03  0.36863743608E+03  0.12499915884E+03 0.  0.
          5    1    3    3  501    0 -0.92524550975E+02  0.76260219164E+02  0.37647000920E+03  0.39513057511E+03  0.47000000000E+01 0.  1.
         -5    1    3    3    0  501  0.24699154105E+02 -0.11323631714E+02  0.32036032920E+02  0.42269022392E+02  0.47000000000E+01 0.  1.
          5    1    4    4  502    0 -0.32221013570E+02 -0.36607666392E+02  0.74290286664E+02  0.88991300961E+02  0.47000000000E+01 0.  1.
         -5    1    4    4    0  502  0.10004641044E+03 -0.28328921058E+02  0.25955357612E+03  0.27964613512E+03  0.47000000000E+01 0.  1.
<mgrwt>
<rscale>  0 0.31402598E+03</rscale>
<asrwt>0</asrwt>
<pdfrwt beam="1">  1       21 0.11910667E+00 0.31402598E+03</pdfrwt>
<pdfrwt beam="2">  1       21 0.48990105E-02 0.31402598E+03</pdfrwt>
<totfact> 0.14381568E+05</totfact>
</mgrwt>
</event>
<event>
 8    1  0.9569852E-006  0.2989186E+03  0.7546771E-02  0.1085782E+00
         21   -1    0    0  504  503  0.00000000000E+00  0.00000000000E+00  0.20941042840E+03  0.20941042840E+03  0.00000000000E+00 0.  1.
         21   -1    0    0  503  504 -0.00000000000E+00 -0.00000000000E+00 -0.10667130749E+03  0.10667130749E+03  0.00000000000E+00 0.  1.
         25    2    1    2    0    0 -0.12059040206E+02 -0.26634072517E+02 -0.29566819804E+02  0.13173407463E+03  0.12499950126E+03 0.  0.
         25    2    1    2    0    0  0.12059040206E+02  0.26634072517E+02  0.13230594071E+03  0.18434766126E+03  0.12499761596E+03 0.  0.
          5    1    3    3  501    0 -0.98971707582E+01  0.24163793472E+02 -0.64582868841E+02  0.69820339814E+02  0.47000000000E+01 0.  1.
         -5    1    3    3    0  501 -0.21618694478E+01 -0.50797865988E+02  0.35016049037E+02  0.61913734814E+02  0.47000000000E+01 0.  1.
          5    1    4    4  502    0 -0.18041359480E+02 -0.32449570966E+02  0.10676539862E+03  0.11313445828E+03  0.47000000000E+01 0. -1.
         -5    1    4    4    0  502  0.30100399686E+02  0.59083643483E+02  0.25540542092E+02  0.71213202981E+02  0.47000000000E+01 0. -1.
<mgrwt>
<rscale>  0 0.29891861E+03</rscale>
<asrwt>0</asrwt>
<pdfrwt beam="1">  1       21 0.32216989E-01 0.29891861E+03</pdfrwt>
<pdfrwt beam="2">  1       21 0.16410970E-01 0.29891861E+03</pdfrwt>
<totfact> 0.30103647E+05</totfact>
</mgrwt>
</event>
<event>
 8    1  0.9569852E-006  0.2601629E+03  0.7546771E-02  0.1107045E+00
         21   -1    0    0  504  503  0.00000000000E+00  0.00000000000E+00  0.10469105108E+03  0.10469105108E+03  0.00000000000E+00 0. -1.
         21   -1    0    0  503  504 -0.00000000000E+00 -0.00000000000E+00 -0.16162965184E+03  0.16162965184E+03  0.00000000000E+00 0. -1.
         25    2    1    2    0    0 -0.27792634431E+02 -0.20411624292E+02 -0.17898075071E+02  0.13090049372E+03  0.12500213291E+03 0.  0.
         25    2    1    2    0    0  0.27792634431E+02  0.20411624292E+02 -0.39040525686E+02  0.13542020920E+03  0.12500162191E+03 0.  0.
          5    1    3    3  501    0  0.17064042670E+02 -0.14388787176E+02 -0.62896877820E+02  0.66905350968E+02  0.47000000000E+01 0. -1.
         -5    1    3    3    0  501 -0.44856677100E+02 -0.60228371158E+01  0.44998802749E+02  0.63995142755E+02  0.47000000000E+01 0. -1.
          5    1    4    4  502    0  0.17190264154E+02 -0.51549573849E+02 -0.44072607961E+01  0.54720907279E+02  0.47000000000E+01 0. -1.
         -5    1    4    4    0  502  0.10602370277E+02  0.71961198141E+02 -0.34633264889E+02  0.80699301920E+02  0.47000000000E+01 0. -1.
<mgrwt>
<rscale>  0 0.26016286E+03</rscale>
<asrwt>0</asrwt>
<pdfrwt beam="1">  1       21 0.16106316E-01 0.26016286E+03</pdfrwt>
<pdfrwt beam="2">  1       21 0.24866100E-01 0.26016286E+03</pdfrwt>
<totfact> 0.52048791E+05</totfact>
</mgrwt>
</event>
<event>
 8    1  0.9569852E-006  0.2676776E+03  0.7546771E-02  0.1102616E+00
         21   -1    0    0  504  503  0.00000000000E+00  0.00000000000E+00  0.20592719824E+02  0.20592719824E+02  0.00000000000E+00 0.  1.
         21   -1    0    0  503  504 -0.00000000000E+00 -0.00000000000E+00 -0.86986190518E+03  0.86986190518E+03  0.00000000000E+00 0.  1.
         25    2    1    2    0    0 -0.20534343485E+02 -0.28745331432E+02 -0.31736820816E+03  0.34292127208E+03  0.12499786380E+03 0.  0.
         25    2    1    2    0    0  0.20534343485E+02  0.28745331432E+02 -0.53190097720E+03  0.54753335292E+03  0.12500467862E+03 0.  0.
          5    1    3    3  501    0 -0.36259226731E+02  0.12197148882E+02 -0.28650615200E+03  0.28908712718E+03  0.47000000000E+01 0. -1.
         -5    1    3    3    0  501  0.15724883245E+02 -0.40942480314E+02 -0.30862056154E+02  0.53834144903E+02  0.47000000000E+01 0. -1.
          5    1    4    4  502    0 -0.32778473972E+01  0.65532349790E+02 -0.15948992383E+03  0.17252350262E+03  0.47000000000E+01 0. -1.
         -5    1    4    4    0  502  0.23812190882E+02 -0.36787018358E+02 -0.37241105337E+03  0.37500985031E+03  0.47000000000E+01 0. -1.
<mgrwt>
<rscale>  0 0.26767759E+03</rscale>
<asrwt>0</asrwt>
<pdfrwt beam="1">  1       21 0.31681106E-02 0.26767759E+03</pdfrwt>
<pdfrwt beam="2">  1       21 0.13382491E+00 0.26767759E+03</pdfrwt>
<totfact> 0.22637663E+05</totfact>
</mgrwt>
</event>
<event>
 8    1  0.9569852E-006  0.2763325E+03  0.7546771E-02  0.1097709E+00
         21   -1    0    0  504  503  0.00000000000E+00  0.00000000000E+00  0.17513004863E+03  0.17513004863E+03  0.00000000000E+00 0. -1.
         21   -1    0    0  503  504 -0.00000000000E+00 -0.00000000000E+00 -0.10900420157E+03  0.10900420157E+03  0.00000000000E+00 0. -1.
         25    2    1    2    0    0 -0.48596894091E+02  0.18600364690E+02  0.61374575866E+02  0.14865358389E+03  0.12499367087E+03 0.  0.
         25    2    1    2    0    0  0.48596894091E+02 -0.18600364690E+02  0.47512711961E+01  0.13548066631E+03  0.12499921873E+03 0.  0.
          5    1    3    3  501    0  0.39486421824E+02 -0.53929101344E+01  0.31075490827E+01  0.40249321105E+02  0.47000000000E+01 0. -1.
         -5    1    3    3    0  501 -0.88083315915E+02  0.23993274824E+02  0.58267026784E+02  0.10840426278E+03  0.47000000000E+01 0. -1.
          5    1    4    4  502    0  0.89163854094E+02 -0.68705761782E+01 -0.10873630445E+02  0.90209331740E+02  0.47000000000E+01 0.  1.
         -5    1    4    4    0  502 -0.40566960002E+02 -0.11729788512E+02  0.15624901641E+02  0.45271334569E+02  0.47000000000E+01 0.  1.
<mgrwt>
<rscale>  0 0.27633249E+03</rscale>
<asrwt>0</asrwt>
<pdfrwt beam="1">  1       21 0.26943084E-01 0.27633249E+03</pdfrwt>
<pdfrwt beam="2">  1       21 0.16769877E-01 0.27633249E+03</pdfrwt>
<totfact> 0.41257081E+05</totfact>
</mgrwt>
</event>
<event>
 8    1  0.9569852E-006  0.3480118E+03  0.7546771E-02  0.1063434E+00
         21   -1    0    0  504  503  0.00000000000E+00  0.00000000000E+00  0.23685018335E+03  0.23685018335E+03  0.00000000000E+00 0.  1.
         21   -1    0    0  503  504 -0.00000000000E+00 -0.00000000000E+00 -0.12783633204E+03  0.12783633204E+03  0.00000000000E+00 0.  1.
         25    2    1    2    0    0 -0.59074143109E+01  0.12080927615E+03  0.49465043882E+02  0.18083522255E+03  0.12499923360E+03 0.  0.
         25    2    1    2    0    0  0.59074143109E+01 -0.12080927615E+03  0.59548807426E+02  0.18385129285E+03  0.12500183466E+03 0.  0.
          5    1    3    3  501    0 -0.37082321364E+02  0.11736414701E+03  0.13161741678E+01  0.12317980304E+03  0.47000000000E+01 0.  1.
         -5    1    3    3    0  501  0.31174907053E+02  0.34451291369E+01  0.48148869714E+02  0.57655419513E+02  0.47000000000E+01 0.  1.
          5    1    4    4  502    0  0.49896190784E+02 -0.11536055911E+03  0.59819022924E+02  0.13927704031E+03  0.47000000000E+01 0.  1.
         -5    1    4    4    0  502 -0.43988776473E+02 -0.54487170384E+01 -0.27021549728E+00  0.44574252539E+02  0.47000000000E+01 0.  1.
<mgrwt>
<rscale>  0 0.34801183E+03</rscale>
<asrwt>0</asrwt>
<pdfrwt beam="1">  1       21 0.36438490E-01 0.34801183E+03</pdfrwt>
<pdfrwt beam="2">  1       21 0.19667128E-01 0.34801183E+03</pdfrwt>
<totfact> 0.16600590E+05</totfact>
</mgrwt>
</event>
<event>
 8    1  0.9569852E-006  0.3580014E+03  0.7546771E-02  0.1059378E+00
         21   -1    0    0  504  503  0.00000000000E+00  0.00000000000E+00  0.52545882885E+02  0.52545882885E+02  0.00000000000E+00 0.  1.
         21   -1    0    0  503  504 -0.00000000000E+00 -0.00000000000E+00 -0.60977652502E+03  0.60977652502E+03  0.00000000000E+00 0.  1.
         25    2    1    2    0    0  0.57160584076E+02 -0.10912199911E+03 -0.21344318551E+03  0.27632981285E+03  0.12500091587E+03 0.  0.
         25    2    1    2    0    0 -0.57160584076E+02  0.10912199911E+03 -0.34378745663E+03  0.38599259505E+03  0.12500210015E+03 0.  0.
          5    1    3    3  501    0  0.66479353923E+02 -0.13269716758E+03 -0.16917201907E+03  0.22509843362E+03  0.47000000000E+01 0.  1.
         -5    1    3    3    0  501 -0.93187698466E+01  0.23575168473E+02 -0.44271166439E+02  0.51231379231E+02  0.47000000000E+01 0.  1.
          5    1    4    4  502    0 -0.23384512474E+02  0.60590275964E+02 -0.31194959693E+03  0.31867327781E+03  0.47000000000E+01 0. -1.
         -5    1    4    4    0  502 -0.33776071602E+02  0.48531723145E+02 -0.31837859699E+02  0.67319317246E+02  0.47000000000E+01 0. -1.
<mgrwt>
<rscale>  0 0.35800137E+03</rscale>
<asrwt>0</asrwt>
<pdfrwt beam="1">  1       21 0.80839817E-02 0.35800137E+03</pdfrwt>
<pdfrwt beam="2">  1       21 0.93811776E-01 0.35800137E+03</pdfrwt>
<totfact> 0.10663986E+05</totfact>
</mgrwt>
</event>
<event>
 8    1  0.9569852E-006  0.4096644E+03  0.7546771E-02  0.1040484E+00
         21   -1    0    0  504  503  0.00000000000E+00  0.00000000000E+00  0.19011795110E+03  0.19011795110E+03  0.00000000000E+00 0.  1.
         21   -1    0    0  503  504 -0.00000000000E+00 -0.00000000000E+00 -0.22068526575E+03  0.22068526575E+03  0.00000000000E+00 0.  1.
         25    2    1    2    0    0 -0.13286662658E+02  0.13514242260E+03  0.73807761484E+02  0.19876426516E+03  0.12497854879E+03 0.  0.
         25    2    1    2    0    0  0.13286662658E+02 -0.13514242260E+03 -0.10437507614E+03  0.21203895169E+03  0.12500540277E+03 0.  0.
          5    1    3    3  501    0 -0.53572892518E+02  0.65194682493E+02  0.81670012084E+02  0.11752651748E+03  0.47000000000E+01 0.  1.
         -5    1    3    3    0  501  0.40286229860E+02  0.69947740112E+02 -0.78622505994E+01  0.81237747677E+02  0.47000000000E+01 0.  1.
          5    1    4    4  502    0 -0.69486713969E+01 -0.24415636048E+02 -0.95616334727E+02  0.99040298790E+02  0.47000000000E+01 0.  1.
         -5    1    4    4    0  502  0.20235334055E+02 -0.11072678656E+03 -0.87587414122E+01  0.11299865290E+03  0.47000000000E+01 0.  1.
<mgrwt>
<rscale>  0 0.40966440E+03</rscale>
<asrwt>0</asrwt>
<pdfrwt beam="1">  1       21 0.29248916E-01 0.40966440E+03</pdfrwt>
<pdfrwt beam="2">  1       21 0.33951579E-01 0.40966440E+03</pdfrwt>
<totfact> 0.87813323E+04</totfact>
</mgrwt>
</event>
<event>
 8    1  0.9569852E-006  0.3285648E+03  0.7546771E-02  0.1071774E+00
         21   -1    0    0  504  503  0.00000000000E+00  0.00000000000E+00  0.85596916785E+03  0.85596916785E+03  0.00000000000E+00 0.  1.
         21   -1    0    0  503  504 -0.00000000000E+00 -0.00000000000E+00 -0.31529992789E+02  0.31529992789E+02  0.00000000000E+00 0.  1.
         25    2    1    2    0    0  0.53066857708E+02  0.76161428987E+02  0.55384806124E+03  0.57531196608E+03  0.12497811300E+03 0.  0.
         25    2    1    2    0    0 -0.53066857708E+02 -0.76161428987E+02  0.27059111382E+03  0.31218719456E+03  0.12499855564E+03 0.  0.
          5    1    3    3  501    0 -0.12677215456E+02 -0.28731790889E+02  0.10764799515E+03  0.11223372247E+03  0.47000000000E+01 0.  1.
         -5    1    3    3    0  501  0.65744073164E+02  0.10489321988E+03  0.44620006608E+03  0.46307824361E+03  0.47000000000E+01 0.  1.
          5    1    4    4  502    0 -0.35891268186E+02 -0.50357783844E+02  0.28811443327E+02  0.68383322472E+02  0.47000000000E+01 0. -1.
         -5    1    4    4    0  502 -0.17175589522E+02 -0.25803645143E+02  0.24177967050E+03  0.24380387208E+03  0.47000000000E+01 0. -1.
<mgrwt>
<rscale>  0 0.32856477E+03</rscale>
<asrwt>0</asrwt>
<pdfrwt beam="1">  1       21 0.13168755E+00 0.32856477E+03</pdfrwt>
<pdfrwt beam="2">  1       21 0.48507688E-02 0.32856477E+03</pdfrwt>
<totfact> 0.11281704E+05</totfact>
</mgrwt>
</event>
<event>
 8    1  0.9569852E-006  0.5932004E+03  0.7546771E-02  0.9919614E-01
         21   -1    0    0  504  503  0.00000000000E+00  0.00000000000E+00  0.17848275023E+03  0.17848275023E+03  0.00000000000E+00 0. -1.
         21   -1    0    0  503  504 -0.00000000000E+00 -0.00000000000E+00 -0.49288624446E+03  0.49288624446E+03  0.00000000000E+00 0. -1.
         25    2    1    2    0    0 -0.12151199269E+03  0.16163357574E+03  0.43528116871E+02  0.24168252504E+03  0.12500067511E+03 0.  0.
         25    2    1    2    0    0  0.12151199269E+03 -0.16163357574E+03 -0.35793161110E+03  0.42968646965E+03  0.12499938720E+03 0.  0.
          5    1    3    3  501    0 -0.64957862772E+02  0.15793683945E+03  0.62226533342E+02  0.18181804268E+03  0.47000000000E+01 0.  1.
         -5    1    3    3    0  501 -0.56554129917E+02  0.36967362887E+01 -0.18698416471E+02  0.59864482361E+02  0.47000000000E+01 0.  1.
          5    1    4    4  502    0  0.11067822403E+02 -0.49718368297E+02 -0.16478258173E+02  0.53740448744E+02  0.47000000000E+01 0. -1.
         -5    1    4    4    0  502  0.11044417029E+03 -0.11191520744E+03 -0.34145335293E+03  0.37594602090E+03  0.47000000000E+01 0. -1.
<mgrwt>
<rscale>  0 0.59320045E+03</rscale>
<asrwt>0</asrwt>
<pdfrwt beam="1">  1       21 0.27458885E-01 0.59320045E+03</pdfrwt>
<pdfrwt beam="2">  1       21 0.75828653E-01 0.59320045E+03</pdfrwt>
<totfact> 0.17117783E+04</totfact>
</mgrwt>
</event>
<event>
 8    1  0.9569852E-006  0.2897286E+03  0.7546771E-02  0.1090491E+00
         21   -1    0    0  504  503  0.00000000000E+00  0.00000000000E+00  0.42840781335E+03  0.42840781335E+03  0.00000000000E+00 0. -1.
         21   -1    0    0  503  504 -0.00000000000E+00 -0.00000000000E+00 -0.48985248246E+02  0.48985248246E+02  0.00000000000E+00 0. -1.
         25    2    1    2    0    0 -0.39312364057E+02  0.10955436516E+02  0.89534373893E+02  0.15907690418E+03  0.12499429499E+03 0.  0.
         25    2    1    2    0    0  0.39312364057E+02 -0.10955436516E+02  0.28988819121E+03  0.31831615741E+03  0.12499811642E+03 0.  0.
          5    1    3    3  501    0  0.26774759174E+02 -0.39582104624E+02  0.36310642084E+02  0.60201191549E+02  0.47000000000E+01 0. -1.
         -5    1    3    3    0  501 -0.66087123231E+02  0.50537541141E+02  0.53223731808E+02  0.98875712635E+02  0.47000000000E+01 0. -1.
          5    1    4    4  502    0  0.61384151763E+02 -0.19164043694E+02  0.28697221535E+03  0.29412653237E+03  0.47000000000E+01 0. -1.
         -5    1    4    4    0  502 -0.22071787706E+02  0.82086071778E+01  0.29159758538E+01  0.24189625039E+02  0.47000000000E+01 0. -1.
<mgrwt>
<rscale>  0 0.28972858E+03</rscale>
<asrwt>0</asrwt>
<pdfrwt beam="1">  1       21 0.65908892E-01 0.28972858E+03</pdfrwt>
<pdfrwt beam="2">  1       21 0.75361923E-02 0.28972858E+03</pdfrwt>
<totfact> 0.27463220E+05</totfact>
</mgrwt>
</event>
<event>
 8    1  0.9569852E-006  0.5931976E+03  0.7546771E-02  0.9919620E-01
         21   -1    0    0  504  503  0.00000000000E+00  0.00000000000E+00  0.78647429808E+02  0.78647429808E+02  0.00000000000E+00 0.  1.
         21   -1    0    0  503  504 -0.00000000000E+00 -0.00000000000E+00 -0.11185470397E+04  0.11185470397E+04  0.00000000000E+00 0.  1.
         25    2    1    2    0    0 -0.24624672421E+03  0.10611908975E+03 -0.47723857848E+03  0.56149783124E+03  0.12499777319E+03 0.  0.
         25    2    1    2    0    0  0.24624672421E+03 -0.10611908975E+03 -0.56266103145E+03  0.63569663831E+03  0.12499627696E+03 0.  0.
          5    1    3    3  501    0 -0.20087966759E+03  0.92374821437E+02 -0.46077330645E+03  0.51109674077E+03  0.47000000000E+01 0.  1.
         -5    1    3    3    0  501 -0.45367056615E+02  0.13744268312E+02 -0.16465272030E+02  0.50401090468E+02  0.47000000000E+01 0.  1.
          5    1    4    4  502    0  0.99858266789E+01 -0.51520350794E+02 -0.85401752362E+02  0.10034745929E+03  0.47000000000E+01 0. -1.
         -5    1    4    4    0  502  0.23626089753E+03 -0.54598738955E+02 -0.47725927908E+03  0.53534917901E+03  0.47000000000E+01 0. -1.
<mgrwt>
<rscale>  0 0.59319761E+03</rscale>
<asrwt>0</asrwt>
<pdfrwt beam="1">  1       21 0.12099606E-01 0.59319761E+03</pdfrwt>
<pdfrwt beam="2">  1       21 0.17208415E+00 0.59319761E+03</pdfrwt>
<totfact> 0.10057719E+04</totfact>
</mgrwt>
</event>
<event>
 8    1  0.9569852E-006  0.2709256E+03  0.7546771E-02  0.1100751E+00
         21   -1    0    0  504  503  0.00000000000E+00  0.00000000000E+00  0.18862786050E+02  0.18862786050E+02  0.00000000000E+00 0.  1.
         21   -1    0    0  503  504 -0.00000000000E+00 -0.00000000000E+00 -0.97282407530E+03  0.97282407530E+03  0.00000000000E+00 0.  1.
         25    2    1    2    0    0  0.19514796375E+01 -0.21271894791E+02 -0.65139639880E+03  0.66362598964E+03  0.12500353587E+03 0.  0.
         25    2    1    2    0    0 -0.19514796375E+01  0.21271894791E+02 -0.30256489046E+03  0.32806087171E+03  0.12498848279E+03 0.  0.
          5    1    3    3  501    0 -0.44814301109E+02 -0.28516758011E+02 -0.13663070084E+03  0.14666821566E+03  0.47000000000E+01 0. -1.
         -5    1    3    3    0  501  0.46765780747E+02  0.72448632207E+01 -0.51476569795E+03  0.51695777398E+03  0.47000000000E+01 0. -1.
          5    1    4    4  502    0  0.28628418202E+02  0.52817994853E+02 -0.74823801022E+02  0.96072983239E+02  0.47000000000E+01 0.  1.
         -5    1    4    4    0  502 -0.30579897840E+02 -0.31546100063E+02 -0.22774108944E+03  0.23198788847E+03  0.47000000000E+01 0.  1.
<mgrwt>
<rscale>  0 0.27092562E+03</rscale>
<asrwt>0</asrwt>
<pdfrwt beam="1">  1       21 0.29019670E-02 0.27092562E+03</pdfrwt>
<pdfrwt beam="2">  1       21 0.14966525E+00 0.27092562E+03</pdfrwt>
<totfact> 0.19526095E+05</totfact>
</mgrwt>
</event>
<event>
 8    1  0.9569852E-006  0.3456202E+03  0.7546771E-02  0.1064427E+00
         21   -1    0    0  504  503  0.00000000000E+00  0.00000000000E+00  0.16519593365E+03  0.16519593365E+03  0.00000000000E+00 0.  1.
         21   -1    0    0  503  504 -0.00000000000E+00 -0.00000000000E+00 -0.18077522202E+03  0.18077522202E+03  0.00000000000E+00 0.  1.
         25    2    1    2    0    0 -0.11340487662E+03 -0.36555033256E+02 -0.14150394815E+02  0.17326765415E+03  0.12499803920E+03 0.  0.
         25    2    1    2    0    0  0.11340487662E+03  0.36555033256E+02 -0.14288935605E+01  0.17270350152E+03  0.12501008441E+03 0.  0.
          5    1    3    3  501    0 -0.11185491826E+03 -0.50030876825E+02 -0.51692417668E+02  0.13307444314E+03  0.47000000000E+01 0.  1.
         -5    1    3    3    0  501 -0.15499583612E+01  0.13475843569E+02  0.37542022853E+02  0.40193211003E+02  0.47000000000E+01 0.  1.
          5    1    4    4  502    0  0.27248753354E+02 -0.40990210363E+02 -0.23284653918E+02  0.54653060417E+02  0.47000000000E+01 0. -1.
         -5    1    4    4    0  502  0.86156123263E+02  0.77545243619E+02  0.21855760357E+02  0.11805044110E+03  0.47000000000E+01 0. -1.
<mgrwt>
<rscale>  0 0.34562021E+03</rscale>
<asrwt>0</asrwt>
<pdfrwt beam="1">  1       21 0.25414759E-01 0.34562021E+03</pdfrwt>
<pdfrwt beam="2">  1       21 0.27811573E-01 0.34562021E+03</pdfrwt>
<totfact> 0.17407659E+05</totfact>
</mgrwt>
</event>
<event>
 8    1  0.9569852E-006  0.2529815E+03  0.7546771E-02  0.1111435E+00
         21   -1    0    0  504  503  0.00000000000E+00  0.00000000000E+00  0.45146498942E+03  0.45146498942E+03  0.00000000000E+00 0. -1.
         21   -1    0    0  503  504 -0.00000000000E+00 -0.00000000000E+00 -0.35439988242E+02  0.35439988242E+02  0.00000000000E+00 0. -1.
         25    2    1    2    0    0 -0.39192643189E-01  0.17178726076E+01  0.24522215330E+03  0.27524540744E+03  0.12499270869E+03 0.  0.
         25    2    1    2    0    0  0.39192643189E-01 -0.17178726076E+01  0.17080284787E+03  0.21165957022E+03  0.12499283259E+03 0.  0.
          5    1    3    3  501    0  0.53629766748E+02 -0.25636145192E+02  0.16023006720E+03  0.17096528378E+03  0.47000000000E+01 0. -1.
         -5    1    3    3    0  501 -0.53668959391E+02  0.27354017800E+02  0.84992086096E+02  0.10428012366E+03  0.47000000000E+01 0. -1.
          5    1    4    4  502    0  0.78992476164E+01 -0.52156346989E+02  0.27941133069E+02  0.59878874082E+02  0.47000000000E+01 0. -1.
         -5    1    4    4    0  502 -0.78600549732E+01  0.50438474382E+02  0.14286171480E+03  0.15178069613E+03  0.47000000000E+01 0. -1.
<mgrwt>
<rscale>  0 0.25298153E+03</rscale>
<asrwt>0</asrwt>
<pdfrwt beam="1">  1       21 0.69456148E-01 0.25298153E+03</pdfrwt>
<pdfrwt beam="2">  1       21 0.54523062E-02 0.25298153E+03</pdfrwt>
<totfact> 0.43168742E+05</totfact>
</mgrwt>
</event>
<event>
 8    1  0.9569852E-006  0.3386581E+03  0.7546771E-02  0.1067369E+00
         21   -1    0    0  504  503  0.00000000000E+00  0.00000000000E+00  0.86764588625E+03  0.86764588625E+03  0.00000000000E+00 0. -1.
         21   -1    0    0  503  504 -0.00000000000E+00 -0.00000000000E+00 -0.33046107430E+02  0.33046107430E+02  0.00000000000E+00 0. -1.
         25    2    1    2    0    0 -0.25959290796E+02  0.11071740756E+03  0.44573652571E+03  0.47669556351E+03  0.12500152322E+03 0.  0.
         25    2    1    2    0    0  0.25959290796E+02 -0.11071740756E+03  0.38886325311E+03  0.42399643017E+03  0.12500445616E+03 0.  0.
          5    1    3    3  501    0 -0.49132236987E+02  0.20042465683E+02  0.62277263479E+02  0.81952575850E+02  0.47000000000E+01 0.  1.
         -5    1    3    3    0  501  0.23172946192E+02  0.90674941872E+02  0.38345926223E+03  0.39474298766E+03  0.47000000000E+01 0.  1.
          5    1    4    4  502    0  0.34587504106E+01  0.25879932389E+02  0.34489846991E+02  0.43512910731E+02  0.47000000000E+01 0.  1.
         -5    1    4    4    0  502  0.22500540385E+02 -0.13659733994E+03  0.35437340612E+03  0.38048351944E+03  0.47000000000E+01 0.  1.
<mgrwt>
<rscale>  0 0.33865805E+03</rscale>
<asrwt>0</asrwt>
<pdfrwt beam="1">  1       21 0.13348397E+00 0.33865805E+03</pdfrwt>
<pdfrwt beam="2">  1       21 0.50840172E-02 0.33865805E+03</pdfrwt>
<totfact> 0.10022059E+05</totfact>
</mgrwt>
</event>
<event>
 8    1  0.9569852E-006  0.2562069E+03  0.7546771E-02  0.1109444E+00
         21   -1    0    0  504  503  0.00000000000E+00  0.00000000000E+00  0.11669779047E+04  0.11669779047E+04  0.00000000000E+00 0. -1.
         21   -1    0    0  503  504 -0.00000000000E+00 -0.00000000000E+00 -0.14062386425E+02  0.14062386425E+02  0.00000000000E+00 0. -1.
         25    2    1    2    0    0  0.25789892923E+02  0.58749045955E+01  0.53337349362E+03  0.54846072838E+03  0.12498901472E+03 0.  0.
         25    2    1    2    0    0 -0.25789892923E+02 -0.58749045955E+01  0.61954202469E+03  0.63257956278E+03  0.12499979922E+03 0.  0.
          5    1    3    3  501    0  0.53581727421E+00  0.63172665692E+02  0.22436740436E+03  0.23313921791E+03  0.47000000000E+01 0. -1.
         -5    1    3    3    0  501  0.25254075649E+02 -0.57297761096E+02  0.30900608926E+03  0.31532151047E+03  0.47000000000E+01 0. -1.
          5    1    4    4  502    0  0.39815373354E+02 -0.24006860631E+02  0.12680373010E+03  0.13514018381E+03  0.47000000000E+01 0.  1.
         -5    1    4    4    0  502 -0.65605266277E+02  0.18131956035E+02  0.49273829460E+03  0.49743937898E+03  0.47000000000E+01 0.  1.
<mgrwt>
<rscale>  0 0.25620690E+03</rscale>
<asrwt>0</asrwt>
<pdfrwt beam="1">  1       21 0.17953499E+00 0.25620690E+03</pdfrwt>
<pdfrwt beam="2">  1       21 0.21634450E-02 0.25620690E+03</pdfrwt>
<totfact> 0.19319357E+05</totfact>
</mgrwt>
</event>
<event>
 8    1  0.9569852E-006  0.2736072E+03  0.7546771E-02  0.1099233E+00
         21   -1    0    0  504  503  0.00000000000E+00  0.00000000000E+00  0.79261469963E+02  0.79261469963E+02  0.00000000000E+00 0.  1.
         21   -1    0    0  503  504 -0.00000000000E+00 -0.00000000000E+00 -0.23612009318E+03  0.23612009318E+03  0.00000000000E+00 0.  1.
         25    2    1    2    0    0 -0.45216564197E+02  0.28034465683E+02 -0.96980434602E+02  0.16692192705E+03  0.12500902404E+03 0.  0.
         25    2    1    2    0    0  0.45216564197E+02 -0.28034465683E+02 -0.59878188619E+02  0.14845963610E+03  0.12499758851E+03 0.  0.
          5    1    3    3  501    0  0.31244092117E+02 -0.40625204659E+01  0.82071189918E+01  0.32895959735E+02  0.47000000000E+01 0.  1.
         -5    1    3    3    0  501 -0.76460656313E+02  0.32096986148E+02 -0.10518755359E+03  0.13402596731E+03  0.47000000000E+01 0.  1.
          5    1    4    4  502    0  0.62942870648E+01  0.29366989812E+02  0.24566284897E+02  0.39084913892E+02  0.47000000000E+01 0. -1.
         -5    1    4    4    0  502  0.38922277132E+02 -0.57401455495E+02 -0.84444473516E+02  0.10937472221E+03  0.47000000000E+01 0. -1.
<mgrwt>
<rscale>  0 0.27360721E+03</rscale>
<asrwt>0</asrwt>
<pdfrwt beam="1">  1       21 0.12194072E-01 0.27360721E+03</pdfrwt>
<pdfrwt beam="2">  1       21 0.36326168E-01 0.27360721E+03</pdfrwt>
<totfact> 0.40966980E+05</totfact>
</mgrwt>
</event>
<event>
 8    1  0.9569852E-006  0.2806725E+03  0.7546771E-02  0.1095322E+00
         21   -1    0    0  504  503  0.00000000000E+00  0.00000000000E+00  0.63507705648E+02  0.63507705648E+02  0.00000000000E+00 0.  1.
         21   -1    0    0  503  504 -0.00000000000E+00 -0.00000000000E+00 -0.31010814879E+03  0.31010814879E+03  0.00000000000E+00 0.  1.
         25    2    1    2    0    0  0.63539886976E+02 -0.21687791792E+01 -0.13016972133E+03  0.19134666046E+03  0.12500946875E+03 0.  0.
         25    2    1    2    0    0 -0.63539886976E+02  0.21687791792E+01 -0.11643072180E+03  0.18226919398E+03  0.12499570094E+03 0.  0.
          5    1    3    3  501    0  0.60780975539E+02 -0.44002617613E+02 -0.12879913085E+03  0.14913706263E+03  0.47000000000E+01 0.  1.
         -5    1    3    3    0  501  0.27589114375E+01  0.41833838434E+02 -0.13705904883E+01  0.42209597827E+02  0.47000000000E+01 0.  1.
          5    1    4    4  502    0 -0.64236163835E+01  0.50132092902E+02 -0.89388174854E+02  0.10279506501E+03  0.47000000000E+01 0. -1.
         -5    1    4    4    0  502 -0.57116270593E+02 -0.47963313722E+02 -0.27042546951E+02  0.79474128968E+02  0.47000000000E+01 0. -1.
<mgrwt>
<rscale>  0 0.28067246E+03</rscale>
<asrwt>0</asrwt>
<pdfrwt beam="1">  1       21 0.97704163E-02 0.28067246E+03</pdfrwt>
<pdfrwt beam="2">  1       21 0.47708946E-01 0.28067246E+03</pdfrwt>
<totfact> 0.34806594E+05</totfact>
</mgrwt>
</event>
<event>
 8    1  0.9569852E-006  0.2753254E+03  0.7546771E-02  0.1098270E+00
         21   -1    0    0  504  503  0.00000000000E+00  0.00000000000E+00  0.14538553213E+04  0.14538553213E+04  0.00000000000E+00 0. -1.
         21   -1    0    0  503  504 -0.00000000000E+00 -0.00000000000E+00 -0.13035007662E+02  0.13035007662E+02  0.00000000000E+00 0. -1.
         25    2    1    2    0    0  0.31601240301E+02 -0.47535857008E+02  0.76375447903E+03  0.77601746754E+03  0.12499563832E+03 0.  0.
         25    2    1    2    0    0 -0.31601240301E+02  0.47535857008E+02  0.67706583458E+03  0.69087286140E+03  0.12501547969E+03 0.  0.
          5    1    3    3  501    0  0.42249355378E+02 -0.86641271788E+02  0.55034867325E+03  0.55874633794E+03  0.47000000000E+01 0.  1.
         -5    1    3    3    0  501 -0.10648115077E+02  0.39105414780E+02  0.21340580578E+03  0.21727112961E+03  0.47000000000E+01 0.  1.
          5    1    4    4  502    0 -0.27676409910E+02  0.68776495064E+02  0.65646958726E+03  0.66065921543E+03  0.47000000000E+01 0.  1.
         -5    1    4    4    0  502 -0.39248303915E+01 -0.21240638056E+02  0.20596247325E+02  0.30213645965E+02  0.47000000000E+01 0.  1.
<mgrwt>
<rscale>  0 0.27532537E+03</rscale>
<asrwt>0</asrwt>
<pdfrwt beam="1">  1       21 0.22366992E+00 0.27532537E+03</pdfrwt>
<pdfrwt beam="2">  1       21 0.20053869E-02 0.27532537E+03</pdfrwt>
<totfact> 0.11199760E+05</totfact>
</mgrwt>
</event>
<event>
 8    1  0.9569852E-006  0.3406259E+03  0.7546771E-02  0.1066530E+00
         21   -1    0    0  504  503  0.00000000000E+00  0.00000000000E+00  0.10667149993E+03  0.10667149993E+03  0.00000000000E+00 0.  1.
         21   -1    0    0  503  504 -0.00000000000E+00 -0.00000000000E+00 -0.27192361359E+03  0.27192361359E+03  0.00000000000E+00 0.  1.
         25    2    1    2    0    0 -0.11123818483E+03 -0.24463502363E+02 -0.10508610191E+03  0.19909295099E+03  0.12499007004E+03 0.  0.
         25    2    1    2    0    0  0.11123818483E+03  0.24463502363E+02 -0.60166011760E+02  0.17950216253E+03  0.12501472181E+03 0.  0.
          5    1    3    3  501    0 -0.60615339598E+02  0.31292655189E+02 -0.10297280410E+03  0.12360800155E+03  0.47000000000E+01 0. -1.
         -5    1    3    3    0  501 -0.50622845228E+02 -0.55756157552E+02 -0.21132978041E+01  0.75484949437E+02  0.47000000000E+01 0. -1.
          5    1    4    4  502    0  0.13892576410E+03  0.18170668138E+02 -0.52732021400E+02  0.14977749228E+03  0.47000000000E+01 0.  1.
         -5    1    4    4    0  502 -0.27687579277E+02  0.62928342250E+01 -0.74339903599E+01  0.29724670250E+02  0.47000000000E+01 0.  1.
<mgrwt>
<rscale>  0 0.34062589E+03</rscale>
<asrwt>0</asrwt>
<pdfrwt beam="1">  1       21 0.16411000E-01 0.34062589E+03</pdfrwt>
<pdfrwt beam="2">  1       21 0.41834401E-01 0.34062589E+03</pdfrwt>
<totfact> 0.17605089E+05</totfact>
</mgrwt>
</event>
<event>
 8    1  0.9569852E-006  0.2657817E+03  0.7546771E-02  0.1103718E+00
         21   -1    0    0  504  503  0.00000000000E+00  0.00000000000E+00  0.21546863495E+03  0.21546863495E+03  0.00000000000E+00 0.  1.
         21   -1    0    0  503  504 -0.00000000000E+00 -0.00000000000E+00 -0.81960774112E+02  0.81960774112E+02  0.00000000000E+00 0.  1.
         25    2    1    2    0    0 -0.18120999338E+02  0.77772278617E+01  0.11216065277E+03  0.16909877950E+03  0.12500211721E+03 0.  0.
         25    2    1    2    0    0  0.18120999338E+02 -0.77772278617E+01  0.21347208067E+02  0.12833062957E+03  0.12499676517E+03 0.  0.
          5    1    3    3  501    0  0.51485459144E+02  0.12229030386E+02  0.68464466494E+02  0.86658957182E+02  0.47000000000E+01 0.  1.
         -5    1    3    3    0  501 -0.69606458482E+02 -0.44518025248E+01  0.43696186280E+02  0.82439822317E+02  0.47000000000E+01 0.  1.
          5    1    4    4  502    0 -0.43292856511E+02  0.26634332545E+02 -0.84518933139E+01  0.51741507473E+02  0.47000000000E+01 0.  1.
         -5    1    4    4    0  502  0.61413855849E+02 -0.34411560407E+02  0.29799101381E+02  0.76589122093E+02  0.47000000000E+01 0.  1.
<mgrwt>
<rscale>  0 0.26578169E+03</rscale>
<asrwt>0</asrwt>
<pdfrwt beam="1">  1       21 0.33149021E-01 0.26578169E+03</pdfrwt>
<pdfrwt beam="2">  1       21 0.12609350E-01 0.26578169E+03</pdfrwt>
<totfact> 0.46367790E+05</totfact>
</mgrwt>
</event>
<event>
 8    1  0.9569852E-006  0.2626754E+03  0.7546771E-02  0.1105546E+00
         21   -1    0    0  504  503  0.00000000000E+00  0.00000000000E+00  0.28756441944E+03  0.28756441944E+03  0.00000000000E+00 0.  1.
         21   -1    0    0  503  504 -0.00000000000E+00 -0.00000000000E+00 -0.59985140728E+02  0.59985140728E+02  0.00000000000E+00 0.  1.
         25    2    1    2    0    0 -0.22217282224E+02  0.27686896516E+02  0.13894735011E+03  0.19025779103E+03  0.12502595362E+03 0.  0.
         25    2    1    2    0    0  0.22217282224E+02 -0.27686896516E+02  0.88631928610E+02  0.15729176914E+03  0.12499964001E+03 0.  0.
          5    1    3    3  501    0 -0.62891925931E+02  0.39057302120E+02  0.44036486288E+02  0.86268008675E+02  0.47000000000E+01 0. -1.
         -5    1    3    3    0  501  0.40674643707E+02 -0.11370405604E+02  0.94910863819E+02  0.10398978236E+03  0.47000000000E+01 0. -1.
          5    1    4    4  502    0  0.31650293792E+02  0.32563149988E+02 -0.44960817882E+01  0.45873789747E+02  0.47000000000E+01 0. -1.
         -5    1    4    4    0  502 -0.94330115681E+01 -0.60250046504E+02  0.93128010398E+02  0.11141797939E+03  0.47000000000E+01 0. -1.
<mgrwt>
<rscale>  0 0.26267541E+03</rscale>
<asrwt>0</asrwt>
<pdfrwt beam="1">  1       21 0.44240679E-01 0.26267541E+03</pdfrwt>
<pdfrwt beam="2">  1       21 0.92284834E-02 0.26267541E+03</pdfrwt>
<totfact> 0.45206437E+05</totfact>
</mgrwt>
</event>
<event>
 8    1  0.9569852E-006  0.3044439E+03  0.7546771E-02  0.1083040E+00
         21   -1    0    0  504  503  0.00000000000E+00  0.00000000000E+00  0.35995761769E+03  0.35995761769E+03  0.00000000000E+00 0.  1.
         21   -1    0    0  503  504 -0.00000000000E+00 -0.00000000000E+00 -0.64372904965E+02  0.64372904965E+02  0.00000000000E+00 0.  1.
         25    2    1    2    0    0 -0.72780829022E+02 -0.28339902179E+02  0.94633055821E+02  0.17512108629E+03  0.12494711073E+03 0.  0.
         25    2    1    2    0    0  0.72780829022E+02  0.28339902179E+02  0.20095165690E+03  0.24920943637E+03  0.12499430240E+03 0.  0.
          5    1    3    3  501    0  0.28157104785E+02 -0.22990252414E+02  0.55747868808E+02  0.66717982078E+02  0.47000000000E+01 0.  1.
         -5    1    3    3    0  501 -0.10093793381E+03 -0.53496497647E+01  0.38885187013E+02  0.10840310421E+03  0.47000000000E+01 0.  1.
          5    1    4    4  502    0  0.90890457111E+02  0.11910795900E+02  0.20440889767E+03  0.22407148346E+03  0.47000000000E+01 0. -1.
         -5    1    4    4    0  502 -0.18109628089E+02  0.16429106279E+02 -0.34572407660E+01  0.25137952907E+02  0.47000000000E+01 0. -1.
<mgrwt>
<rscale>  0 0.30444387E+03</rscale>
<asrwt>0</asrwt>
<pdfrwt beam="1">  1       21 0.55378094E-01 0.30444387E+03</pdfrwt>
<pdfrwt beam="2">  1       21 0.99035241E-02 0.30444387E+03</pdfrwt>
<totfact> 0.24668062E+05</totfact>
</mgrwt>
</event>
<event>
 8    1  0.9569852E-006  0.3011041E+03  0.7546771E-02  0.1084690E+00
         21   -1    0    0  504  503  0.00000000000E+00  0.00000000000E+00  0.36802808881E+03  0.36802808881E+03  0.00000000000E+00 0. -1.
         21   -1    0    0  503  504 -0.00000000000E+00 -0.00000000000E+00 -0.61587468944E+02  0.61587468944E+02  0.00000000000E+00 0. -1.
         25    2    1    2    0    0  0.64436065916E+02 -0.52465792915E+02  0.16988443792E+03  0.22669441243E+03  0.12499987346E+03 0.  0.
         25    2    1    2    0    0 -0.64436065916E+02  0.52465792915E+02  0.13655618194E+03  0.20292114532E+03  0.12499893749E+03 0.  0.
          5    1    3    3  501    0  0.74731659952E+02 -0.37862093316E+02  0.18479507050E+03  0.20295237666E+03  0.47000000000E+01 0. -1.
         -5    1    3    3    0  501 -0.10295594036E+02 -0.14603699598E+02 -0.14910632585E+02  0.23742035772E+02  0.47000000000E+01 0. -1.
          5    1    4    4  502    0 -0.87002230097E+02  0.52558902440E+02  0.14604211460E+03  0.17799498730E+03  0.47000000000E+01 0.  1.
         -5    1    4    4    0  502  0.22566164181E+02 -0.93109525520E-01 -0.94859326546E+01  0.24926158018E+02  0.47000000000E+01 0.  1.
<mgrwt>
<rscale>  0 0.30110409E+03</rscale>
<asrwt>0</asrwt>
<pdfrwt beam="1">  1       21 0.56619705E-01 0.30110409E+03</pdfrwt>
<pdfrwt beam="2">  1       21 0.94749954E-02 0.30110409E+03</pdfrwt>
<totfact> 0.25467692E+05</totfact>
</mgrwt>
</event>
<event>
 8    1  0.9569852E-006  0.3505387E+03  0.7546771E-02  0.1062394E+00
         21   -1    0    0  504  503  0.00000000000E+00  0.00000000000E+00  0.39577289998E+02  0.39577289998E+02  0.00000000000E+00 0.  1.
         21   -1    0    0  503  504 -0.00000000000E+00 -0.00000000000E+00 -0.77618613544E+03  0.77618613544E+03  0.00000000000E+00 0.  1.
         25    2    1    2    0    0 -0.91023753183E+02  0.73891116539E+02 -0.45377177924E+03  0.48505674663E+03  0.12500399622E+03 0.  0.
         25    2    1    2    0    0  0.91023753183E+02 -0.73891116539E+02 -0.28283706620E+03  0.33070667880E+03  0.12499952257E+03 0.  0.
          5    1    3    3  501    0  0.29992453472E+02  0.16902405200E+02 -0.13336966485E+03  0.13782160959E+03  0.47000000000E+01 0. -1.
         -5    1    3    3    0  501 -0.12101620666E+03  0.56988711339E+02 -0.32040211439E+03  0.34723513704E+03  0.47000000000E+01 0. -1.
          5    1    4    4  502    0  0.63152845360E+02 -0.10893114937E+03 -0.19870499962E+03  0.23528715234E+03  0.47000000000E+01 0. -1.
         -5    1    4    4    0  502  0.27870907823E+02  0.35040032836E+02 -0.84132066577E+02  0.95419526464E+02  0.47000000000E+01 0. -1.
<mgrwt>
<rscale>  0 0.35053869E+03</rscale>
<asrwt>0</asrwt>
<pdfrwt beam="1">  1       21 0.60888138E-02 0.35053869E+03</pdfrwt>
<pdfrwt beam="2">  1       21 0.11941325E+00 0.35053869E+03</pdfrwt>
<totfact> 0.97283323E+04</totfact>
</mgrwt>
</event>
<event>
 8    1  0.9569852E-006  0.2537855E+03  0.7546771E-02  0.1110936E+00
         21   -1    0    0  504  503  0.00000000000E+00  0.00000000000E+00  0.12728352523E+04  0.12728352523E+04  0.00000000000E+00 0. -1.
         21   -1    0    0  503  504 -0.00000000000E+00 -0.00000000000E+00 -0.12650321907E+02  0.12650321907E+02  0.00000000000E+00 0. -1.
         25    2    1    2    0    0  0.83109317590E+01  0.10978244923E+02  0.71592912785E+03  0.72688963942E+03  0.12499775336E+03 0.  0.
         25    2    1    2    0    0 -0.83109317590E+01 -0.10978244923E+02  0.54425580253E+03  0.55859593478E+03  0.12500178522E+03 0.  0.
          5    1    3    3  501    0 -0.27951619997E+02  0.50501601387E+02  0.53481324658E+03  0.53793959096E+03  0.47000000000E+01 0. -1.
         -5    1    3    3    0  501  0.36262551756E+02 -0.39523356464E+02  0.18111588128E+03  0.18895004847E+03  0.47000000000E+01 0. -1.
          5    1    4    4  502    0 -0.53842755348E+01  0.57015537039E+02  0.25861911664E+03  0.26492583751E+03  0.47000000000E+01 0.  1.
         -5    1    4    4    0  502 -0.29266562243E+01 -0.67993781962E+02  0.28563668589E+03  0.29367009727E+03  0.47000000000E+01 0.  1.
<mgrwt>
<rscale>  0 0.25378554E+03</rscale>
<asrwt>0</asrwt>
<pdfrwt beam="1">  1       21 0.19582071E+00 0.25378554E+03</pdfrwt>
<pdfrwt beam="2">  1       21 0.19462044E-02 0.25378554E+03</pdfrwt>
<totfact> 0.17871448E+05</totfact>
</mgrwt>
</event>
<event>
 8    1  0.9569852E-006  0.2526450E+03  0.7546771E-02  0.1111645E+00
         21   -1    0    0  504  503  0.00000000000E+00  0.00000000000E+00  0.18416389666E+04  0.18416389666E+04  0.00000000000E+00 0.  1.
         21   -1    0    0  503  504 -0.00000000000E+00 -0.00000000000E+00 -0.86647663022E+01  0.86647663022E+01  0.00000000000E+00 0.  1.
         25    2    1    2    0    0 -0.15266581200E+02 -0.45076447341E+01  0.85112412135E+03  0.86040179481E+03  0.12500236479E+03 0.  0.
         25    2    1    2    0    0  0.15266581200E+02  0.45076447341E+01  0.98185007890E+03  0.98990193804E+03  0.12499152830E+03 0.  0.
          5    1    3    3  501    0  0.22643794746E+02 -0.21392641770E+02  0.56569161148E+02  0.64749876875E+02  0.47000000000E+01 0.  1.
         -5    1    3    3    0  501 -0.37910375947E+02  0.16884997035E+02  0.79455496020E+03  0.79565191793E+03  0.47000000000E+01 0.  1.
          5    1    4    4  502    0  0.35482687323E+02 -0.23450166938E+02  0.89918783595E+03  0.90020541309E+03  0.47000000000E+01 0.  1.
         -5    1    4    4    0  502 -0.20216106122E+02  0.27957811672E+02  0.82662242947E+02  0.89696524956E+02  0.47000000000E+01 0.  1.
<mgrwt>
<rscale>  0 0.25264498E+03</rscale>
<asrwt>0</asrwt>
<pdfrwt beam="1">  1       21 0.28332876E+00 0.25264498E+03</pdfrwt>
<pdfrwt beam="2">  1       21 0.13330424E-02 0.25264498E+03</pdfrwt>
<totfact> 0.96803586E+04</totfact>
</mgrwt>
</event>
<event>
 8    1  0.9569852E-006  0.2771894E+03  0.7546771E-02  0.1097234E+00
         21   -1    0    0  504  503  0.00000000000E+00  0.00000000000E+00  0.27805270949E+02  0.27805270949E+02  0.00000000000E+00 0. -1.
         21   -1    0    0  503  504 -0.00000000000E+00 -0.00000000000E+00 -0.69082173712E+03  0.69082173712E+03  0.00000000000E+00 0. -1.
         25    2    1    2    0    0 -0.21015555679E+02  0.54855967629E+02 -0.30134818050E+03  0.33148212973E+03  0.12497538027E+03 0.  0.
         25    2    1    2    0    0  0.21015555679E+02 -0.54855967629E+02 -0.36166828568E+03  0.38714487834E+03  0.12500550868E+03 0.  0.
          5    1    3    3  501    0  0.32024288453E+02  0.57211096571E+02 -0.78684658656E+02  0.10252819188E+03  0.47000000000E+01 0.  1.
         -5    1    3    3    0  501 -0.53039844132E+02 -0.23551289423E+01 -0.22266352184E+03  0.22895393785E+03  0.47000000000E+01 0.  1.
          5    1    4    4  502    0 -0.51333865859E+01  0.29372837113E+02 -0.20572721656E+03  0.20793001912E+03  0.47000000000E+01 0.  1.
         -5    1    4    4    0  502  0.26148942265E+02 -0.84228804742E+02 -0.15594106912E+03  0.17921485922E+03  0.47000000000E+01 0.  1.
<mgrwt>
<rscale>  0 0.27718936E+03</rscale>
<asrwt>0</asrwt>
<pdfrwt beam="1">  1       21 0.42777338E-02 0.27718936E+03</pdfrwt>
<pdfrwt beam="2">  1       21 0.10628027E+00 0.27718936E+03</pdfrwt>
<totfact> 0.24222430E+05</totfact>
</mgrwt>
</event>
<event>
 8    1  0.9569852E-006  0.5151115E+03  0.7546771E-02  0.1009908E+00
         21   -1    0    0  504  503  0.00000000000E+00  0.00000000000E+00  0.14464140797E+03  0.14464140797E+03  0.00000000000E+00 0. -1.
         21   -1    0    0  503  504 -0.00000000000E+00 -0.00000000000E+00 -0.45861670486E+03  0.45861670486E+03  0.00000000000E+00 0. -1.
         25    2    1    2    0    0  0.96943651880E+02  0.18880087367E+03 -0.24514624436E+03  0.34751296021E+03  0.12499893939E+03 0.  0.
         25    2    1    2    0    0 -0.96943651880E+02 -0.18880087367E+03 -0.68829052538E+02  0.25574515262E+03  0.12499721228E+03 0.  0.
          5    1    3    3  501    0  0.22123464681E+02  0.11300930627E+02 -0.10821853846E+03  0.11113280699E+03  0.47000000000E+01 0.  1.
         -5    1    3    3    0  501  0.74820187199E+02  0.17749994304E+03 -0.13692770590E+03  0.23638015322E+03  0.47000000000E+01 0.  1.
          5    1    4    4  502    0 -0.12073184814E+03 -0.16640714166E+03 -0.80351610513E+02  0.22078493442E+03  0.47000000000E+01 0. -1.
         -5    1    4    4    0  502  0.23788196264E+02 -0.22393732007E+02  0.11522557975E+02  0.34960218205E+02  0.47000000000E+01 0. -1.
<mgrwt>
<rscale>  0 0.51511151E+03</rscale>
<asrwt>0</asrwt>
<pdfrwt beam="1">  1       21 0.22252524E-01 0.51511151E+03</pdfrwt>
<pdfrwt beam="2">  1       21 0.70556416E-01 0.51511151E+03</pdfrwt>
<totfact> 0.30908369E+04</totfact>
</mgrwt>
</event>
<event>
 8    1  0.9569852E-006  0.2993283E+03  0.7546771E-02  0.1085577E+00
         21   -1    0    0  504  503  0.00000000000E+00  0.00000000000E+00  0.62625515875E+02  0.62625515875E+02  0.00000000000E+00 0.  1.
         21   -1    0    0  503  504 -0.00000000000E+00 -0.00000000000E+00 -0.35767153407E+03  0.35767153407E+03  0.00000000000E+00 0.  1.
         25    2    1    2    0    0 -0.53315247354E+02  0.46758492170E+02 -0.20617984036E+03  0.25132412408E+03  0.12499926633E+03 0.  0.
         25    2    1    2    0    0  0.53315247354E+02 -0.46758492170E+02 -0.88866177836E+02  0.16897292587E+03  0.12500311965E+03 0.  0.
          5    1    3    3  501    0  0.26833437392E+02 -0.80280384306E+00 -0.12406366897E+03  0.12702189502E+03  0.47000000000E+01 0.  1.
         -5    1    3    3    0  501 -0.80148684746E+02  0.47561296013E+02 -0.82116171390E+02  0.12430222906E+03  0.47000000000E+01 0.  1.
          5    1    4    4  502    0  0.61959508752E+02  0.25602172053E+02 -0.24198184301E+02  0.71428944148E+02  0.47000000000E+01 0. -1.
         -5    1    4    4    0  502 -0.86442613981E+01 -0.72360664223E+02 -0.64667993535E+02  0.97543981720E+02  0.47000000000E+01 0. -1.
<mgrwt>
<rscale>  0 0.29932834E+03</rscale>
<asrwt>0</asrwt>
<pdfrwt beam="1">  1       21 0.96346949E-02 0.29932834E+03</pdfrwt>
<pdfrwt beam="2">  1       21 0.55026389E-01 0.29932834E+03</pdfrwt>
<totfact> 0.26291465E+05</totfact>
</mgrwt>
</event>
<event>
 8    1  0.9569852E-006  0.2882299E+03  0.7546771E-02  0.1091277E+00
         21   -1    0    0  504  503  0.00000000000E+00  0.00000000000E+00  0.43510176125E+02  0.43510176125E+02  0.00000000000E+00 0.  1.
         21   -1    0    0  503  504 -0.00000000000E+00 -0.00000000000E+00 -0.47733924203E+03  0.47733924203E+03  0.00000000000E+00 0.  1.
         25    2    1    2    0    0 -0.58110148472E+02  0.41015452719E+02 -0.23358302489E+03  0.27430890454E+03  0.12500115548E+03 0.  0.
         25    2    1    2    0    0  0.58110148472E+02 -0.41015452719E+02 -0.20024604102E+03  0.24654051362E+03  0.12499876479E+03 0.  0.
          5    1    3    3  501    0  0.64160208235E+00 -0.70142135974E+01  0.13420469904E+02  0.15868517828E+02  0.47000000000E+01 0. -1.
         -5    1    3    3    0  501 -0.58751750555E+02  0.48029666316E+02 -0.24700349480E+03  0.25844038671E+03  0.47000000000E+01 0. -1.
          5    1    4    4  502    0  0.53072422898E+02 -0.56204498093E+02 -0.21228525021E+03  0.22597067317E+03  0.47000000000E+01 0. -1.
         -5    1    4    4    0  502  0.50377255743E+01  0.15189045374E+02  0.12039209190E+02  0.20569840453E+02  0.47000000000E+01 0. -1.
<mgrwt>
<rscale>  0 0.28822987E+03</rscale>
<asrwt>0</asrwt>
<pdfrwt beam="1">  1       21 0.66938735E-02 0.28822987E+03</pdfrwt>
<pdfrwt beam="2">  1       21 0.73436804E-01 0.28822987E+03</pdfrwt>
<totfact> 0.26553830E+05</totfact>
</mgrwt>
</event>
<event>
 8    1  0.9569852E-006  0.3447583E+03  0.7546771E-02  0.1064787E+00
         21   -1    0    0  504  503  0.00000000000E+00  0.00000000000E+00  0.24367002782E+03  0.24367002782E+03  0.00000000000E+00 0.  1.
         21   -1    0    0  503  504 -0.00000000000E+00 -0.00000000000E+00 -0.12194593319E+03  0.12194593319E+03  0.00000000000E+00 0.  1.
         25    2    1    2    0    0 -0.56666972196E+02 -0.99531810773E+01  0.17096470166E+03  0.21946358230E+03  0.12500049276E+03 0.  0.
         25    2    1    2    0    0  0.56666972196E+02  0.99531810773E+01 -0.49240607024E+02  0.14615237871E+03  0.12500267545E+03 0.  0.
          5    1    3    3  501    0 -0.53458725626E+02 -0.40782181708E+02  0.17530357554E+03  0.18781494959E+03  0.47000000000E+01 0. -1.
         -5    1    3    3    0  501 -0.32082465702E+01  0.30829000630E+02 -0.43388738840E+01  0.31648632711E+02  0.47000000000E+01 0. -1.
          5    1    4    4  502    0  0.46447927343E+02 -0.42234210681E+02  0.12864943106E+02  0.64255235331E+02  0.47000000000E+01 0.  1.
         -5    1    4    4    0  502  0.10219044853E+02  0.52187391759E+02 -0.62105550130E+02  0.81897143376E+02  0.47000000000E+01 0.  1.
<mgrwt>
<rscale>  0 0.34475829E+03</rscale>
<asrwt>0</asrwt>
<pdfrwt beam="1">  1       21 0.37487697E-01 0.34475829E+03</pdfrwt>
<pdfrwt beam="2">  1       21 0.18760913E-01 0.34475829E+03</pdfrwt>
<totfact> 0.17142519E+05</totfact>
</mgrwt>
</event>
<event>
 8    1  0.9569852E-006  0.3161909E+03  0.7546771E-02  0.1077416E+00
         21   -1    0    0  504  503  0.00000000000E+00  0.00000000000E+00  0.24437578911E+03  0.24437578911E+03  0.00000000000E+00 0.  1.
         21   -1    0    0  503  504 -0.00000000000E+00 -0.00000000000E+00 -0.10227763155E+03  0.10227763155E+03  0.00000000000E+00 0.  1.
         25    2    1    2    0    0  0.69709712334E+02 -0.47897761017E+02  0.12265613358E+03  0.19448313748E+03  0.12500209660E+03 0.  0.
         25    2    1    2    0    0 -0.69709712334E+02  0.47897761017E+02  0.19442023977E+02  0.15217028319E+03  0.12499665309E+03 0.  0.
          5    1    3    3  501    0  0.98159282052E+02 -0.56335418701E+02  0.68010486339E+02  0.13212282280E+03  0.47000000000E+01 0.  1.
         -5    1    3    3    0  501 -0.28449569718E+02  0.84376576837E+01  0.54645647243E+02  0.62360314679E+02  0.47000000000E+01 0.  1.
          5    1    4    4  502    0 -0.95684657398E+02  0.61908186150E+02 -0.40856043384E+01  0.11413570579E+03  0.47000000000E+01 0.  1.
         -5    1    4    4    0  502  0.25974945063E+02 -0.14010425133E+02  0.23527628315E+02  0.38034577395E+02  0.47000000000E+01 0.  1.
<mgrwt>
<rscale>  0 0.31619094E+03</rscale>
<asrwt>0</asrwt>
<pdfrwt beam="1">  1       21 0.37596275E-01 0.31619094E+03</pdfrwt>
<pdfrwt beam="2">  1       21 0.15735020E-01 0.31619094E+03</pdfrwt>
<totfact> 0.23792878E+05</totfact>
</mgrwt>
</event>
<event>
 8    1  0.9569852E-006  0.3879524E+03  0.7546771E-02  0.1048033E+00
         21   -1    0    0  504  503  0.00000000000E+00  0.00000000000E+00  0.15622492376E+03  0.15622492376E+03  0.00000000000E+00 0.  1.
         21   -1    0    0  503  504 -0.00000000000E+00 -0.00000000000E+00 -0.24084999497E+03  0.24084999497E+03  0.00000000000E+00 0.  1.
         25    2    1    2    0    0  0.68068866489E+02  0.96729534033E+01 -0.17683630458E+03  0.22720770745E+03  0.12500130838E+03 0.  0.
         25    2    1    2    0    0 -0.68068866489E+02 -0.96729534033E+01  0.92211233370E+02  0.16986721128E+03  0.12500008519E+03 0.  0.
          5    1    3    3  501    0  0.97302327903E+02 -0.20654390488E+02 -0.11342901200E+03  0.15093898643E+03  0.47000000000E+01 0.  1.
         -5    1    3    3    0  501 -0.29233461414E+02  0.30327343892E+02 -0.63407292578E+02  0.76268721019E+02  0.47000000000E+01 0.  1.
          5    1    4    4  502    0 -0.89456844056E+02 -0.19889747437E+02  0.10744919808E+03  0.14129950166E+03  0.47000000000E+01 0.  1.
         -5    1    4    4    0  502  0.21387977566E+02  0.10216794034E+02 -0.15237964709E+02  0.28567709624E+02  0.47000000000E+01 0.  1.
<mgrwt>
<rscale>  0 0.38795243E+03</rscale>
<asrwt>0</asrwt>
<pdfrwt beam="1">  1       21 0.24034604E-01 0.38795243E+03</pdfrwt>
<pdfrwt beam="2">  1       21 0.37053845E-01 0.38795243E+03</pdfrwt>
<totfact> 0.10848294E+05</totfact>
</mgrwt>
</event>
<event>
 8    1  0.9569852E-006  0.3305121E+03  0.7546771E-02  0.1070911E+00
         21   -1    0    0  504  503  0.00000000000E+00  0.00000000000E+00  0.14652364938E+04  0.14652364938E+04  0.00000000000E+00 0.  1.
         21   -1    0    0  503  504 -0.00000000000E+00 -0.00000000000E+00 -0.18638326663E+02  0.18638326663E+02  0.00000000000E+00 0.  1.
         25    2    1    2    0    0  0.48273973586E+02  0.69926693294E+02  0.42334615750E+03  0.44951900820E+03  0.12500100281E+03 0.  0.
         25    2    1    2    0    0 -0.48273973586E+02 -0.69926693294E+02  0.10232520097E+04  0.10343558123E+04  0.12500860840E+03 0.  0.
          5    1    3    3  501    0  0.48149080704E+02 -0.18683362628E+02  0.24365001274E+03  0.24910805030E+03  0.47000000000E+01 0. -1.
         -5    1    3    3    0  501  0.12489288175E+00  0.88610055922E+02  0.17969614475E+03  0.20041095790E+03  0.47000000000E+01 0. -1.
          5    1    4    4  502    0 -0.83262703108E+02 -0.20288625598E+02  0.71586858796E+03  0.72099530600E+03  0.47000000000E+01 0. -1.
         -5    1    4    4    0  502  0.34988729522E+02 -0.49638067696E+02  0.30738342171E+03  0.31336050628E+03  0.47000000000E+01 0. -1.
<mgrwt>
<rscale>  0 0.33051207E+03</rscale>
<asrwt>0</asrwt>
<pdfrwt beam="1">  1       21 0.22542091E+00 0.33051207E+03</pdfrwt>
<pdfrwt beam="2">  1       21 0.28674360E-02 0.33051207E+03</pdfrwt>
<totfact> 0.59013306E+04</totfact>
</mgrwt>
</event>
<event>
 8    1  0.9569852E-006  0.4934161E+03  0.7546771E-02  0.1015512E+00
         21   -1    0    0  504  503  0.00000000000E+00  0.00000000000E+00  0.11648918944E+03  0.11648918944E+03  0.00000000000E+00 0. -1.
         21   -1    0    0  503  504 -0.00000000000E+00 -0.00000000000E+00 -0.52249364888E+03  0.52249364888E+03  0.00000000000E+00 0. -1.
         25    2    1    2    0    0 -0.10187154426E+02 -0.15436817235E+02  0.71397704148E+02  0.14513958952E+03  0.12500317935E+03 0.  0.
         25    2    1    2    0    0  0.10187154426E+02  0.15436817235E+02 -0.47740216359E+03  0.49384324880E+03  0.12500502047E+03 0.  0.
          5    1    3    3  501    0  0.45352724871E+02 -0.77166325894E+01 -0.88955220585E+01  0.47091786804E+02  0.47000000000E+01 0.  1.
         -5    1    3    3    0  501 -0.55539879297E+02 -0.77201846456E+01  0.80293226207E+02  0.98047802719E+02  0.47000000000E+01 0.  1.
          5    1    4    4  502    0  0.36357434799E+02 -0.28743424976E+02 -0.38680184440E+03  0.38959697686E+03  0.47000000000E+01 0.  1.
         -5    1    4    4    0  502 -0.26170280373E+02  0.44180242211E+02 -0.90600319189E+02  0.10424627194E+03  0.47000000000E+01 0.  1.
<mgrwt>
<rscale>  0 0.49341610E+03</rscale>
<asrwt>0</asrwt>
<pdfrwt beam="1">  1       21 0.17921414E-01 0.49341610E+03</pdfrwt>
<pdfrwt beam="2">  1       21 0.80383637E-01 0.49341610E+03</pdfrwt>
<totfact> 0.34813977E+04</totfact>
</mgrwt>
</event>
<event>
 8    1  0.9569852E-006  0.2589994E+03  0.7546771E-02  0.1107746E+00
         21   -1    0    0  504  503  0.00000000000E+00  0.00000000000E+00  0.83184975453E+03  0.83184975453E+03  0.00000000000E+00 0.  1.
         21   -1    0    0  503  504 -0.00000000000E+00 -0.00000000000E+00 -0.20160092054E+02  0.20160092054E+02  0.00000000000E+00 0.  1.
         25    2    1    2    0    0  0.24334332123E+02  0.16505396979E+02  0.35057217683E+03  0.37334746120E+03  0.12499155078E+03 0.  0.
         25    2    1    2    0    0 -0.24334332123E+02 -0.16505396979E+02  0.46111748564E+03  0.47866238538E+03  0.12499502296E+03 0.  0.
          5    1    3    3  501    0  0.30282215805E+02  0.47623647601E+02  0.33100588310E+03  0.33581543897E+03  0.47000000000E+01 0.  1.
         -5    1    3    3    0  501 -0.59478836811E+01 -0.31118250623E+02  0.19566293731E+02  0.37532022227E+02  0.47000000000E+01 0.  1.
          5    1    4    4  502    0 -0.67626830489E+02  0.20547701927E+02  0.27363158678E+03  0.28265160806E+03  0.47000000000E+01 0.  1.
         -5    1    4    4    0  502  0.43292498366E+02 -0.37053098906E+02  0.18748589886E+03  0.19601077732E+03  0.47000000000E+01 0.  1.
<mgrwt>
<rscale>  0 0.25899936E+03</rscale>
<asrwt>0</asrwt>
<pdfrwt beam="1">  1       21 0.12797686E+00 0.25899936E+03</pdfrwt>
<pdfrwt beam="2">  1       21 0.31015533E-02 0.25899936E+03</pdfrwt>
<totfact> 0.26356272E+05</totfact>
</mgrwt>
</event>
<event>
 8    1  0.9569852E-006  0.3643845E+03  0.7546771E-02  0.1056861E+00
         21   -1    0    0  504  503  0.00000000000E+00  0.00000000000E+00  0.79233990828E+03  0.79233990828E+03  0.00000000000E+00 0.  1.
         21   -1    0    0  503  504 -0.00000000000E+00 -0.00000000000E+00 -0.41893651799E+02  0.41893651799E+02  0.00000000000E+00 0.  1.
         25    2    1    2    0    0 -0.12327150961E+03 -0.46398754879E+02  0.34163999669E+03  0.38690024232E+03  0.12500080250E+03 0.  0.
         25    2    1    2    0    0  0.12327150961E+03  0.46398754879E+02  0.40880625978E+03  0.44733331776E+03  0.12504331091E+03 0.  0.
          5    1    3    3  501    0 -0.99301647907E+02 -0.83302571857E+02  0.29678544908E+03  0.32388860514E+03  0.47000000000E+01 0. -1.
         -5    1    3    3    0  501 -0.23969861706E+02  0.36903816978E+02  0.44854547616E+02  0.63011637176E+02  0.47000000000E+01 0. -1.
          5    1    4    4  502    0  0.80508376410E+02  0.74866317442E+02  0.16636280087E+03  0.19946236656E+03  0.47000000000E+01 0. -1.
         -5    1    4    4    0  502  0.42763133203E+02 -0.28467562563E+02  0.24244345891E+03  0.24787095120E+03  0.47000000000E+01 0. -1.
<mgrwt>
<rscale>  0 0.36438448E+03</rscale>
<asrwt>0</asrwt>
<pdfrwt beam="1">  1       21 0.12189844E+00 0.36438448E+03</pdfrwt>
<pdfrwt beam="2">  1       21 0.64451778E-02 0.36438448E+03</pdfrwt>
<totfact> 0.83335215E+04</totfact>
</mgrwt>
</event>
<event>
 8    1  0.9569852E-006  0.2956323E+03  0.7546771E-02  0.1087445E+00
         21   -1    0    0  504  503  0.00000000000E+00  0.00000000000E+00  0.13135176651E+03  0.13135176651E+03  0.00000000000E+00 0.  1.
         21   -1    0    0  503  504 -0.00000000000E+00 -0.00000000000E+00 -0.16634422250E+03  0.16634422250E+03  0.00000000000E+00 0.  1.
         25    2    1    2    0    0  0.10981769680E+02  0.37555345666E+02 -0.86488814960E+02  0.15695799605E+03  0.12499797662E+03 0.  0.
         25    2    1    2    0    0 -0.10981769680E+02 -0.37555345666E+02  0.51496358971E+02  0.14073799297E+03  0.12499721766E+03 0.  0.
          5    1    3    3  501    0  0.19255483732E+02 -0.41643351060E+02 -0.53506873318E+02  0.70640058278E+02  0.47000000000E+01 0.  1.
         -5    1    3    3    0  501 -0.82737140519E+01  0.79198696726E+02 -0.32981941642E+02  0.86317937775E+02  0.47000000000E+01 0.  1.
          5    1    4    4  502    0 -0.27450771371E+02 -0.80191215268E+02  0.36517044960E+02  0.92410824191E+02  0.47000000000E+01 0.  1.
         -5    1    4    4    0  502  0.16469001691E+02  0.42635869603E+02  0.14979314011E+02  0.48327168774E+02  0.47000000000E+01 0.  1.
<mgrwt>
<rscale>  0 0.29563225E+03</rscale>
<asrwt>0</asrwt>
<pdfrwt beam="1">  1       21 0.20207964E-01 0.29563225E+03</pdfrwt>
<pdfrwt beam="2">  1       21 0.25591419E-01 0.29563225E+03</pdfrwt>
<totfact> 0.32045028E+05</totfact>
</mgrwt>
</event>
<event>
 8    1  0.9569852E-006  0.3339140E+03  0.7546771E-02  0.1069418E+00
         21   -1    0    0  504  503  0.00000000000E+00  0.00000000000E+00  0.52497515774E+02  0.52497515774E+02  0.00000000000E+00 0.  1.
         21   -1    0    0  503  504 -0.00000000000E+00 -0.00000000000E+00 -0.53097064034E+03  0.53097064034E+03  0.00000000000E+00 0.  1.
         25    2    1    2    0    0  0.59692583190E+02 -0.90435294545E+02 -0.27848484880E+03  0.32392687058E+03  0.12503223379E+03 0.  0.
         25    2    1    2    0    0 -0.59692583190E+02  0.90435294545E+02 -0.19998827576E+03  0.25954128553E+03  0.12499848584E+03 0.  0.
          5    1    3    3  501    0 -0.34198701823E+02 -0.54992140671E+02 -0.10522749739E+03  0.12364709034E+03  0.47000000000E+01 0. -1.
         -5    1    3    3    0  501  0.93891285013E+02 -0.35443153874E+02 -0.17325735141E+03  0.20027978025E+03  0.47000000000E+01 0. -1.
          5    1    4    4  502    0 -0.23340563433E+02  0.89600548880E+02 -0.50397031795E+02  0.10552246716E+03  0.47000000000E+01 0.  1.
         -5    1    4    4    0  502 -0.36352019757E+02  0.83474566537E+00 -0.14959124397E+03  0.15401881837E+03  0.47000000000E+01 0.  1.
<mgrwt>
<rscale>  0 0.33391400E+03</rscale>
<asrwt>0</asrwt>
<pdfrwt beam="1">  1       21 0.80765407E-02 0.33391400E+03</pdfrwt>
<pdfrwt beam="2">  1       21 0.81687793E-01 0.33391400E+03</pdfrwt>
<totfact> 0.14848131E+05</totfact>
</mgrwt>
</event>
<event>
 8    1  0.9569852E-006  0.3463664E+03  0.7546771E-02  0.1064116E+00
         21   -1    0    0  504  503  0.00000000000E+00  0.00000000000E+00  0.16485525952E+03  0.16485525952E+03  0.00000000000E+00 0. -1.
         21   -1    0    0  503  504 -0.00000000000E+00 -0.00000000000E+00 -0.18193183635E+03  0.18193183635E+03  0.00000000000E+00 0. -1.
         25    2    1    2    0    0 -0.32356171283E+02 -0.33758197403E+02 -0.11903648125E+03  0.17883304555E+03  0.12500014639E+03 0.  0.
         25    2    1    2    0    0  0.32356171283E+02  0.33758197403E+02  0.10195990442E+03  0.16795405032E+03  0.12500481270E+03 0.  0.
          5    1    3    3  501    0 -0.69712251547E+02 -0.51583349581E+02 -0.56213459657E+02  0.10345377236E+03  0.47000000000E+01 0.  1.
         -5    1    3    3    0  501  0.37356080264E+02  0.17825152178E+02 -0.62823021596E+02  0.75379273181E+02  0.47000000000E+01 0.  1.
          5    1    4    4  502    0  0.36556139458E+02  0.55886396879E+02  0.12087042243E+03  0.13817159515E+03  0.47000000000E+01 0.  1.
         -5    1    4    4    0  502 -0.41999681756E+01 -0.22128199476E+02 -0.18910518010E+02  0.29782455173E+02  0.47000000000E+01 0.  1.
<mgrwt>
<rscale>  0 0.34636640E+03</rscale>
<asrwt>0</asrwt>
<pdfrwt beam="1">  1       21 0.25362348E-01 0.34636640E+03</pdfrwt>
<pdfrwt beam="2">  1       21 0.27989513E-01 0.34636640E+03</pdfrwt>
<totfact> 0.17257752E+05</totfact>
</mgrwt>
</event>
<event>
 8    1  0.9569852E-006  0.3184538E+03  0.7546771E-02  0.1076363E+00
         21   -1    0    0  504  503  0.00000000000E+00  0.00000000000E+00  0.21676147696E+04  0.21676147696E+04  0.00000000000E+00 0. -1.
         21   -1    0    0  503  504 -0.00000000000E+00 -0.00000000000E+00 -0.11696364035E+02  0.11696364035E+02  0.00000000000E+00 0. -1.
         25    2    1    2    0    0 -0.80743429141E+02 -0.45600692036E+02  0.84803335406E+03  0.86219740585E+03  0.12499949038E+03 0.  0.
         25    2    1    2    0    0  0.80743429141E+02  0.45600692036E+02  0.13078850515E+04  0.13171137277E+04  0.12500535789E+03 0.  0.
          5    1    3    3  501    0 -0.97880976295E+01 -0.10145507185E+02  0.62935092800E+03  0.62952634476E+03  0.47000000000E+01 0.  1.
         -5    1    3    3    0  501 -0.70955331512E+02 -0.35455184850E+02  0.21868242606E+03  0.23267106110E+03  0.47000000000E+01 0.  1.
          5    1    4    4  502    0 -0.45053717737E+01 -0.33511540068E+02  0.17760187308E+03  0.18085308130E+03  0.47000000000E+01 0.  1.
         -5    1    4    4    0  502  0.85248800915E+02  0.79112232104E+02  0.11302831784E+04  0.11362606464E+04  0.47000000000E+01 0.  1.
<mgrwt>
<rscale>  0 0.31845384E+03</rscale>
<asrwt>0</asrwt>
<pdfrwt beam="1">  1       21 0.33347887E+00 0.31845384E+03</pdfrwt>
<pdfrwt beam="2">  1       21 0.17994424E-02 0.31845384E+03</pdfrwt>
<totfact> 0.28888345E+04</totfact>
</mgrwt>
</event>
<event>
 8    1  0.9569852E-006  0.2730621E+03  0.7546771E-02  0.1099540E+00
         21   -1    0    0  504  503  0.00000000000E+00  0.00000000000E+00  0.41526230968E+02  0.41526230968E+02  0.00000000000E+00 0.  1.
         21   -1    0    0  503  504 -0.00000000000E+00 -0.00000000000E+00 -0.44889054300E+03  0.44889054300E+03  0.00000000000E+00 0.  1.
         25    2    1    2    0    0 -0.51085917794E+02 -0.20063812635E+02 -0.20524943591E+03  0.24651395483E+03  0.12501788436E+03 0.  0.
         25    2    1    2    0    0  0.51085917794E+02  0.20063812635E+02 -0.20211487612E+03  0.24390281914E+03  0.12500333780E+03 0.  0.
          5    1    3    3  501    0 -0.25579506312E+02  0.52895499434E+02 -0.82844973836E+02  0.10167411024E+03  0.47000000000E+01 0. -1.
         -5    1    3    3    0  501 -0.25506411482E+02 -0.72959312068E+02 -0.12240446207E+03  0.14483984459E+03  0.47000000000E+01 0. -1.
          5    1    4    4  502    0 -0.19715549543E+02 -0.19750871534E+02 -0.13642911079E+03  0.13933338470E+03  0.47000000000E+01 0. -1.
         -5    1    4    4    0  502  0.70801467336E+02  0.39814684169E+02 -0.65685765330E+02  0.10456943444E+03  0.47000000000E+01 0. -1.
<mgrwt>
<rscale>  0 0.27306213E+03</rscale>
<asrwt>0</asrwt>
<pdfrwt beam="1">  1       21 0.63886511E-02 0.27306213E+03</pdfrwt>
<pdfrwt beam="2">  1       21 0.69060082E-01 0.27306213E+03</pdfrwt>
<totfact> 0.33137984E+05</totfact>
</mgrwt>
</event>
<event>
 8    1  0.9569852E-006  0.3370120E+03  0.7546771E-02  0.1068076E+00
         21   -1    0    0  504  503  0.00000000000E+00  0.00000000000E+00  0.67649111872E+03  0.67649111872E+03  0.00000000000E+00 0.  1.
         21   -1    0    0  503  504 -0.00000000000E+00 -0.00000000000E+00 -0.41972869077E+02  0.41972869077E+02  0.00000000000E+00 0.  1.
         25    2    1    2    0    0 -0.27873273625E+02  0.35974037393E+02  0.53777513252E+03  0.55398230594E+03  0.12499300535E+03 0.  0.
         25    2    1    2    0    0  0.27873273625E+02 -0.35974037393E+02  0.96743117123E+02  0.16448168186E+03  0.12499576876E+03 0.  0.
          5    1    3    3  501    0 -0.32088579240E+02  0.58208985506E+02  0.13504591965E+03  0.15059034938E+03  0.47000000000E+01 0. -1.
         -5    1    3    3    0  501  0.42153056150E+01 -0.22234948113E+02  0.40272921287E+03  0.40339195656E+03  0.47000000000E+01 0. -1.
          5    1    4    4  502    0  0.46826871460E+01  0.28383073654E+02  0.91135830220E+02  0.95683624402E+02  0.47000000000E+01 0. -1.
         -5    1    4    4    0  502  0.23190586479E+02 -0.64357111047E+02  0.56072869032E+01  0.68798057457E+02  0.47000000000E+01 0. -1.
<mgrwt>
<rscale>  0 0.33701201E+03</rscale>
<asrwt>0</asrwt>
<pdfrwt beam="1">  1       21 0.10407555E+00 0.33701201E+03</pdfrwt>
<pdfrwt beam="2">  1       21 0.64573650E-02 0.33701201E+03</pdfrwt>
<totfact> 0.12378809E+05</totfact>
</mgrwt>
</event>
<event>
 8    1  0.9569852E-006  0.5604750E+03  0.7546771E-02  0.9990980E-01
         21   -1    0    0  504  503  0.00000000000E+00  0.00000000000E+00  0.22812475200E+04  0.22812475200E+04  0.00000000000E+00 0. -1.
         21   -1    0    0  503  504 -0.00000000000E+00 -0.00000000000E+00 -0.34425488044E+02  0.34425488044E+02  0.00000000000E+00 0. -1.
         25    2    1    2    0    0  0.28512586722E+01  0.24770212011E+03  0.96106712648E+03  0.10003196379E+04  0.12499954582E+03 0.  0.
         25    2    1    2    0    0 -0.28512586722E+01 -0.24770212011E+03  0.12857549055E+04  0.13153533701E+04  0.12499736525E+03 0.  0.
          5    1    3    3  501    0 -0.29899128819E+02  0.16713981318E+03  0.79344288842E+03  0.81142059516E+03  0.47000000000E+01 0.  1.
         -5    1    3    3    0  501  0.32750387491E+02  0.80562306933E+02  0.16762423806E+03  0.18889904278E+03  0.47000000000E+01 0.  1.
          5    1    4    4  502    0  0.42158920708E+02 -0.21456351674E+03  0.10896826065E+04  0.11114158314E+04  0.47000000000E+01 0.  1.
         -5    1    4    4    0  502 -0.45010179380E+02 -0.33138603368E+02  0.19607229897E+03  0.20393753874E+03  0.47000000000E+01 0.  1.
<mgrwt>
<rscale>  0 0.56047501E+03</rscale>
<asrwt>0</asrwt>
<pdfrwt beam="1">  1       21 0.35096104E+00 0.56047501E+03</pdfrwt>
<pdfrwt beam="2">  1       21 0.52962307E-02 0.56047501E+03</pdfrwt>
<totfact> 0.32500237E+03</totfact>
</mgrwt>
</event>
<event>
 8    1  0.9569852E-006  0.2980853E+03  0.7546771E-02  0.1086202E+00
         21   -1    0    0  504  503  0.00000000000E+00  0.00000000000E+00  0.30875284253E+02  0.30875284253E+02  0.00000000000E+00 0. -1.
         21   -1    0    0  503  504 -0.00000000000E+00 -0.00000000000E+00 -0.71946578331E+03  0.71946578331E+03  0.00000000000E+00 0. -1.
         25    2    1    2    0    0  0.21057117754E+02 -0.77852171129E+02 -0.36747968678E+03  0.39644741461E+03  0.12499947838E+03 0.  0.
         25    2    1    2    0    0 -0.21057117754E+02  0.77852171129E+02 -0.32111081228E+03  0.35389365296E+03  0.12499680429E+03 0.  0.
          5    1    3    3  501    0  0.13736276829E+02 -0.96277237840E+02 -0.15534325914E+03  0.18333469390E+03  0.47000000000E+01 0.  1.
         -5    1    3    3    0  501  0.73208409246E+01  0.18425066711E+02 -0.21213642764E+03  0.21311272070E+03  0.47000000000E+01 0.  1.
          5    1    4    4  502    0  0.39401239730E+02 -0.10884343114E+02 -0.82339066265E+02  0.92047479328E+02  0.47000000000E+01 0. -1.
         -5    1    4    4    0  502 -0.60458357484E+02  0.88736514243E+02 -0.23877174601E+03  0.26184617363E+03  0.47000000000E+01 0. -1.
<mgrwt>
<rscale>  0 0.29808529E+03</rscale>
<asrwt>0</asrwt>
<pdfrwt beam="1">  1       21 0.47500438E-02 0.29808529E+03</pdfrwt>
<pdfrwt beam="2">  1       21 0.11068704E+00 0.29808529E+03</pdfrwt>
<totfact> 0.18254340E+05</totfact>
</mgrwt>
</event>
<event>
 8    1  0.9569852E-006  0.3799890E+03  0.7546771E-02  0.1050938E+00
         21   -1    0    0  504  503  0.00000000000E+00  0.00000000000E+00  0.78274617493E+02  0.78274617493E+02  0.00000000000E+00 0. -1.
         21   -1    0    0  503  504 -0.00000000000E+00 -0.00000000000E+00 -0.46117004031E+03  0.46117004031E+03  0.00000000000E+00 0. -1.
         25    2    1    2    0    0 -0.13618360512E+03 -0.15722507761E+02 -0.24964798901E+03  0.31103525013E+03  0.12500254738E+03 0.  0.
         25    2    1    2    0    0  0.13618360512E+03  0.15722507761E+02 -0.13324743380E+03  0.22840940767E+03  0.12499122906E+03 0.  0.
          5    1    3    3  501    0 -0.98406971166E+02  0.49262991498E+02 -0.15211430840E+03  0.18780742032E+03  0.47000000000E+01 0. -1.
         -5    1    3    3    0  501 -0.37776633958E+02 -0.64985499259E+02 -0.97533680609E+02  0.12322782981E+03  0.47000000000E+01 0. -1.
          5    1    4    4  502    0  0.12056934346E+03  0.31056099472E+02 -0.37549719604E+02  0.13012885667E+03  0.47000000000E+01 0.  1.
         -5    1    4    4    0  502  0.15614261667E+02 -0.15333591711E+02 -0.95697714195E+02  0.98280550998E+02  0.47000000000E+01 0.  1.
<mgrwt>
<rscale>  0 0.37998899E+03</rscale>
<asrwt>0</asrwt>
<pdfrwt beam="1">  1       21 0.12042249E-01 0.37998899E+03</pdfrwt>
<pdfrwt beam="2">  1       21 0.70949238E-01 0.37998899E+03</pdfrwt>
<totfact> 0.99082627E+04</totfact>
</mgrwt>
</event>
<event>
 8    1  0.9569852E-006  0.3136379E+03  0.7546771E-02  0.1078615E+00
         21   -1    0    0  504  503  0.00000000000E+00  0.00000000000E+00  0.18083702838E+03  0.18083702838E+03  0.00000000000E+00 0.  1.
         21   -1    0    0  503  504 -0.00000000000E+00 -0.00000000000E+00 -0.13599087239E+03  0.13599087239E+03  0.00000000000E+00 0.  1.
         25    2    1    2    0    0  0.13157717388E+02 -0.35690112544E+02  0.11002496121E+03  0.17081315868E+03  0.12499893371E+03 0.  0.
         25    2    1    2    0    0 -0.13157717388E+02  0.35690112544E+02 -0.65178805221E+02  0.14601474209E+03  0.12500047438E+03 0.  0.
          5    1    3    3  501    0  0.14519258892E+02 -0.82284823500E+02  0.67004468649E+02  0.10720676227E+03  0.47000000000E+01 0.  1.
         -5    1    3    3    0  501 -0.13615415047E+01  0.46594710956E+02  0.43020492558E+02  0.63606396410E+02  0.47000000000E+01 0.  1.
          5    1    4    4  502    0  0.26865900219E+02 -0.35769459351E+02 -0.71954650192E+01  0.45553216502E+02  0.47000000000E+01 0.  1.
         -5    1    4    4    0  502 -0.40023617607E+02  0.71459571895E+02 -0.57983340202E+02  0.10046152558E+03  0.47000000000E+01 0.  1.
<mgrwt>
<rscale>  0 0.31363791E+03</rscale>
<asrwt>0</asrwt>
<pdfrwt beam="1">  1       21 0.27821081E-01 0.31363791E+03</pdfrwt>
<pdfrwt beam="2">  1       21 0.20921673E-01 0.31363791E+03</pdfrwt>
<totfact> 0.25422316E+05</totfact>
</mgrwt>
</event>
<event>
 8    1  0.9569852E-006  0.4623446E+03  0.7546771E-02  0.1024103E+00
         21   -1    0    0  504  503  0.00000000000E+00  0.00000000000E+00  0.21156943849E+03  0.21156943849E+03  0.00000000000E+00 0. -1.
         21   -1    0    0  503  504 -0.00000000000E+00 -0.00000000000E+00 -0.25259140517E+03  0.25259140517E+03  0.00000000000E+00 0. -1.
         25    2    1    2    0    0 -0.75421271039E+02  0.10102656112E+03  0.12811959313E+03  0.21893909054E+03  0.12499984418E+03 0.  0.
         25    2    1    2    0    0  0.75421271039E+02 -0.10102656112E+03 -0.16914155982E+03  0.24522175312E+03  0.12502042540E+03 0.  0.
          5    1    3    3  501    0 -0.16940150895E+02  0.96719809934E+02  0.12634623682E+03  0.16008482721E+03  0.47000000000E+01 0. -1.
         -5    1    3    3    0  501 -0.58481120144E+02  0.43067511852E+01  0.17733563167E+01  0.58854263327E+02  0.47000000000E+01 0. -1.
          5    1    4    4  502    0  0.77499294336E+02 -0.56337368089E+02 -0.17528813922E+03  0.19982007261E+03  0.47000000000E+01 0.  1.
         -5    1    4    4    0  502 -0.20780232970E+01 -0.44689193030E+02  0.61465794040E+01  0.45401680507E+02  0.47000000000E+01 0.  1.
<mgrwt>
<rscale>  0 0.46234455E+03</rscale>
<asrwt>0</asrwt>
<pdfrwt beam="1">  1       21 0.32549144E-01 0.46234455E+03</pdfrwt>
<pdfrwt beam="2">  1       21 0.38860216E-01 0.46234455E+03</pdfrwt>
<totfact> 0.53352858E+04</totfact>
</mgrwt>
</event>
<event>
 8    1  0.9569852E-006  0.3347503E+03  0.7546771E-02  0.1069054E+00
         21   -1    0    0  504  503  0.00000000000E+00  0.00000000000E+00  0.41955971974E+03  0.41955971974E+03  0.00000000000E+00 0. -1.
         21   -1    0    0  503  504 -0.00000000000E+00 -0.00000000000E+00 -0.66771054486E+02  0.66771054486E+02  0.00000000000E+00 0. -1.
         25    2    1    2    0    0 -0.68284889305E+02 -0.40373547846E+02  0.28983164155E+03  0.32545425828E+03  0.12500097724E+03 0.  0.
         25    2    1    2    0    0  0.68284889305E+02  0.40373547846E+02  0.62957023702E+02  0.16087651595E+03  0.12499926831E+03 0.  0.
          5    1    3    3  501    0  0.14794858866E+01 -0.35940362692E+02  0.10930577956E+02  0.37887545228E+02  0.47000000000E+01 0. -1.
         -5    1    3    3    0  501 -0.69764375191E+02 -0.44331851537E+01  0.27890106360E+03  0.28756671305E+03  0.47000000000E+01 0. -1.
          5    1    4    4  502    0  0.79889745099E+02  0.48339334423E+02 -0.27301149464E+01  0.93533983942E+02  0.47000000000E+01 0.  1.
         -5    1    4    4    0  502 -0.11604855794E+02 -0.79657865772E+01  0.65687138648E+02  0.67342532010E+02  0.47000000000E+01 0.  1.
<mgrwt>
<rscale>  0 0.33475032E+03</rscale>
<asrwt>0</asrwt>
<pdfrwt beam="1">  1       21 0.64547648E-01 0.33475032E+03</pdfrwt>
<pdfrwt beam="2">  1       21 0.10272470E-01 0.33475032E+03</pdfrwt>
<totfact> 0.16455461E+05</totfact>
</mgrwt>
</event>
<event>
 8    1  0.9569852E-006  0.3786942E+03  0.7546771E-02  0.1051417E+00
         21   -1    0    0  504  503  0.00000000000E+00  0.00000000000E+00  0.24833126686E+03  0.24833126686E+03  0.00000000000E+00 0. -1.
         21   -1    0    0  503  504 -0.00000000000E+00 -0.00000000000E+00 -0.14437295136E+03  0.14437295136E+03  0.00000000000E+00 0. -1.
         25    2    1    2    0    0  0.11928431906E+03  0.69684806118E+02  0.16928057453E+02  0.18707285254E+03  0.12499988821E+03 0.  0.
         25    2    1    2    0    0 -0.11928431906E+03 -0.69684806118E+02  0.87030258042E+02  0.20563136568E+03  0.12500108703E+03 0.  0.
          5    1    3    3  501    0  0.10335671576E+03  0.25764205719E+02 -0.39463190165E+02  0.11369185708E+03  0.47000000000E+01 0.  1.
         -5    1    3    3    0  501  0.15927603297E+02  0.43920600399E+02  0.56391247618E+02  0.73380995456E+02  0.47000000000E+01 0.  1.
          5    1    4    4  502    0 -0.51109038306E+02  0.33636528678E+02  0.18654727223E+02  0.64137654353E+02  0.47000000000E+01 0. -1.
         -5    1    4    4    0  502 -0.68175280751E+02 -0.10332133480E+03  0.68375530819E+02  0.14149371132E+03  0.47000000000E+01 0. -1.
<mgrwt>
<rscale>  0 0.37869417E+03</rscale>
<asrwt>0</asrwt>
<pdfrwt beam="1">  1       21 0.38204810E-01 0.37869417E+03</pdfrwt>
<pdfrwt beam="2">  1       21 0.22211223E-01 0.37869417E+03</pdfrwt>
<totfact> 0.11887232E+05</totfact>
</mgrwt>
</event>
<event>
 8    1  0.9569852E-006  0.5243743E+03  0.7546771E-02  0.1007606E+00
         21   -1    0    0  504  503  0.00000000000E+00  0.00000000000E+00  0.10246553511E+03  0.10246553511E+03  0.00000000000E+00 0. -1.
         21   -1    0    0  503  504 -0.00000000000E+00 -0.00000000000E+00 -0.67088017194E+03  0.67088017194E+03  0.00000000000E+00 0. -1.
         25    2    1    2    0    0  0.13916750006E+03  0.42546877390E+02 -0.54776510425E+03  0.58038689604E+03  0.12499803925E+03 0.  0.
         25    2    1    2    0    0 -0.13916750006E+03 -0.42546877390E+02 -0.20649532581E+02  0.19295881100E+03  0.12501547784E+03 0.  0.
          5    1    3    3  501    0  0.10299624812E+03  0.51097326509E+02 -0.52292458766E+03  0.53543569015E+03  0.47000000000E+01 0.  1.
         -5    1    3    3    0  501  0.36171251940E+02 -0.85504491192E+01 -0.24840516590E+02  0.44951205896E+02  0.47000000000E+01 0.  1.
          5    1    4    4  502    0 -0.30577303391E+01  0.34105271856E+02 -0.11441072050E+02  0.36407518631E+02  0.47000000000E+01 0. -1.
         -5    1    4    4    0  502 -0.13610976972E+03 -0.76652149245E+02 -0.92084605303E+01  0.15655129237E+03  0.47000000000E+01 0. -1.
<mgrwt>
<rscale>  0 0.52437428E+03</rscale>
<asrwt>0</asrwt>
<pdfrwt beam="1">  1       21 0.15763929E-01 0.52437428E+03</pdfrwt>
<pdfrwt beam="2">  1       21 0.10321233E+00 0.52437428E+03</pdfrwt>
<totfact> 0.24239206E+04</totfact>
</mgrwt>
</event>
<event>
 8    1  0.9569852E-006  0.4148985E+03  0.7546771E-02  0.1038740E+00
         21   -1    0    0  504  503  0.00000000000E+00  0.00000000000E+00  0.59098221652E+03  0.59098221652E+03  0.00000000000E+00 0. -1.
         21   -1    0    0  503  504 -0.00000000000E+00 -0.00000000000E+00 -0.72819774849E+02  0.72819774849E+02  0.00000000000E+00 0. -1.
         25    2    1    2    0    0 -0.29308774530E+02 -0.99913448331E+02  0.53136939431E+02  0.17113943452E+03  0.12499388102E+03 0.  0.
         25    2    1    2    0    0  0.29308774530E+02  0.99913448331E+02  0.46502550224E+03  0.49266255685E+03  0.12500390301E+03 0.  0.
          5    1    3    3  501    0 -0.19612346509E+02  0.12121787587E+02  0.53653050620E+02  0.58586019755E+02  0.47000000000E+01 0.  1.
         -5    1    3    3    0  501 -0.96964280212E+01 -0.11203523592E+03 -0.51611118978E+00  0.11255341476E+03  0.47000000000E+01 0.  1.
          5    1    4    4  502    0 -0.35689347724E+02  0.77168689294E+02  0.33261455966E+03  0.34334133373E+03  0.47000000000E+01 0. -1.
         -5    1    4    4    0  502  0.64998122254E+02  0.22744759038E+02  0.13241094257E+03  0.14932122312E+03  0.47000000000E+01 0. -1.
<mgrwt>
<rscale>  0 0.41489850E+03</rscale>
<asrwt>0</asrwt>
<pdfrwt beam="1">  1       21 0.90920338E-01 0.41489850E+03</pdfrwt>
<pdfrwt beam="2">  1       21 0.11203043E-01 0.41489850E+03</pdfrwt>
<totfact> 0.63238629E+04</totfact>
</mgrwt>
</event>
<event>
 8    1  0.9569852E-006  0.4884414E+03  0.7546771E-02  0.1016841E+00
         21   -1    0    0  504  503  0.00000000000E+00  0.00000000000E+00  0.65489915276E+02  0.65489915276E+02  0.00000000000E+00 0. -1.
         21   -1    0    0  503  504 -0.00000000000E+00 -0.00000000000E+00 -0.91073183516E+03  0.91073183516E+03  0.00000000000E+00 0. -1.
         25    2    1    2    0    0  0.15657205478E+03 -0.12926865434E+03 -0.52827309075E+03  0.57958858654E+03  0.12500111162E+03 0.  0.
         25    2    1    2    0    0 -0.15657205478E+03  0.12926865434E+03 -0.31696882913E+03  0.39663316389E+03  0.12499373873E+03 0.  0.
          5    1    3    3  501    0 -0.20588134771E+02 -0.87043055481E+01 -0.70736525842E+02  0.74332915432E+02  0.47000000000E+01 0.  1.
         -5    1    3    3    0  501  0.17716018956E+03 -0.12056434879E+03 -0.45753656491E+03  0.50525567111E+03  0.47000000000E+01 0.  1.
          5    1    4    4  502    0 -0.39743199192E+02 -0.11727273511E+01 -0.70782860719E+01  0.40658200958E+02  0.47000000000E+01 0.  1.
         -5    1    4    4    0  502 -0.11682885559E+03  0.13044138169E+03 -0.30989054306E+03  0.35597496293E+03  0.47000000000E+01 0.  1.
<mgrwt>
<rscale>  0 0.48844140E+03</rscale>
<asrwt>0</asrwt>
<pdfrwt beam="1">  1       21 0.10075371E-01 0.48844140E+03</pdfrwt>
<pdfrwt beam="2">  1       21 0.14011259E+00 0.48844140E+03</pdfrwt>
<totfact> 0.25467411E+04</totfact>
</mgrwt>
</event>
<event>
 8    1  0.9569852E-006  0.2584379E+03  0.7546771E-02  0.1108085E+00
         21   -1    0    0  504  503  0.00000000000E+00  0.00000000000E+00  0.33340760383E+03  0.33340760383E+03  0.00000000000E+00 0. -1.
         21   -1    0    0  503  504 -0.00000000000E+00 -0.00000000000E+00 -0.50081464339E+02  0.50081464339E+02  0.00000000000E+00 0. -1.
         25    2    1    2    0    0  0.39987777354E+01  0.97508913093E+01  0.95653980972E+02  0.15775196226E+03  0.12499970966E+03 0.  0.
         25    2    1    2    0    0 -0.39987777354E+01 -0.97508913093E+01  0.18767215852E+03  0.22573710592E+03  0.12500132719E+03 0.  0.
          5    1    3    3  501    0 -0.93395283351E+00 -0.12506925001E+02  0.12192137944E+03  0.12265483360E+03  0.47000000000E+01 0.  1.
         -5    1    3    3    0  501  0.49327305689E+01  0.22257816311E+02 -0.26267398466E+02  0.35097128657E+02  0.47000000000E+01 0.  1.
          5    1    4    4  502    0  0.94994142198E+01 -0.65053756478E+02  0.78307100422E+02  0.10235390603E+03  0.47000000000E+01 0.  1.
         -5    1    4    4    0  502 -0.13498191955E+02  0.55302865169E+02  0.10936505810E+03  0.12338319989E+03  0.47000000000E+01 0.  1.
<mgrwt>
<rscale>  0 0.25843793E+03</rscale>
<asrwt>0</asrwt>
<pdfrwt beam="1">  1       21 0.51293476E-01 0.25843793E+03</pdfrwt>
<pdfrwt beam="2">  1       21 0.77048409E-02 0.25843793E+03</pdfrwt>
<totfact> 0.45639813E+05</totfact>
</mgrwt>
</event>
<event>
 8    1  0.9569852E-006  0.4044829E+03  0.7546771E-02  0.1042238E+00
         21   -1    0    0  504  503  0.00000000000E+00  0.00000000000E+00  0.55234485498E+02  0.55234485498E+02  0.00000000000E+00 0. -1.
         21   -1    0    0  503  504 -0.00000000000E+00 -0.00000000000E+00 -0.74050859549E+03  0.74050859549E+03  0.00000000000E+00 0. -1.
         25    2    1    2    0    0 -0.60602173790E+02 -0.47029846576E+02 -0.68726671686E+02  0.16199090924E+03  0.12503307298E+03 0.  0.
         25    2    1    2    0    0  0.60602173790E+02  0.47029846576E+02 -0.61654743830E+03  0.63375217174E+03  0.12500656613E+03 0.  0.
          5    1    3    3  501    0 -0.81524144525E+02 -0.72473075248E+02 -0.68162454884E+02  0.12871186050E+03  0.47000000000E+01 0.  1.
         -5    1    3    3    0  501  0.20921970736E+02  0.25443228672E+02 -0.56421680214E+00  0.33279048744E+02  0.47000000000E+01 0.  1.
          5    1    4    4  502    0  0.92284302097E+02  0.58583874520E+02 -0.40666771218E+03  0.42112846128E+03  0.47000000000E+01 0.  1.
         -5    1    4    4    0  502 -0.31682128307E+02 -0.11554027944E+02 -0.20987972612E+03  0.21262371046E+03  0.47000000000E+01 0.  1.
<mgrwt>
<rscale>  0 0.40448294E+03</rscale>
<asrwt>0</asrwt>
<pdfrwt beam="1">  1       21 0.84976129E-02 0.40448294E+03</pdfrwt>
<pdfrwt beam="2">  1       21 0.11392440E+00 0.40448294E+03</pdfrwt>
<totfact> 0.60115144E+04</totfact>
</mgrwt>
</event>
<event>
 8    1  0.9569852E-006  0.3095144E+03  0.7546771E-02  0.1080579E+00
         21   -1    0    0  504  503  0.00000000000E+00  0.00000000000E+00  0.45362215836E+02  0.45362215836E+02  0.00000000000E+00 0. -1.
         21   -1    0    0  503  504 -0.00000000000E+00 -0.00000000000E+00 -0.52796773465E+03  0.52796773465E+03  0.00000000000E+00 0. -1.
         25    2    1    2    0    0  0.52766334141E+02 -0.24903536497E+02 -0.11135982282E+03  0.17728383577E+03  0.12499630450E+03 0.  0.
         25    2    1    2    0    0 -0.52766334141E+02  0.24903536497E+02 -0.37124569599E+03  0.39604611471E+03  0.12499874415E+03 0.  0.
          5    1    3    3  501    0 -0.22493931751E+02  0.38776071851E+01  0.14732901443E+02  0.27571020801E+02  0.47000000000E+01 0. -1.
         -5    1    3    3    0  501  0.75260265892E+02 -0.28781143682E+02 -0.12609272426E+03  0.14971281497E+03  0.47000000000E+01 0. -1.
          5    1    4    4  502    0 -0.75882601697E+02 -0.22609802105E+02 -0.27427856781E+03  0.28551741655E+03  0.47000000000E+01 0. -1.
         -5    1    4    4    0  502  0.23116267557E+02  0.47513338601E+02 -0.96967128182E+02  0.11052869817E+03  0.47000000000E+01 0. -1.
<mgrwt>
<rscale>  0 0.30951437E+03</rscale>
<asrwt>0</asrwt>
<pdfrwt beam="1">  1       21 0.69788022E-02 0.30951437E+03</pdfrwt>
<pdfrwt beam="2">  1       21 0.81225808E-01 0.30951437E+03</pdfrwt>
<totfact> 0.19546379E+05</totfact>
</mgrwt>
</event>
<event>
 8    1  0.9569852E-006  0.4226448E+03  0.7546771E-02  0.1036209E+00
         21   -1    0    0  504  503  0.00000000000E+00  0.00000000000E+00  0.11686976007E+04  0.11686976007E+04  0.00000000000E+00 0. -1.
         21   -1    0    0  503  504 -0.00000000000E+00 -0.00000000000E+00 -0.38211045367E+02  0.38211045367E+02  0.00000000000E+00 0. -1.
         25    2    1    2    0    0  0.14638119851E+03 -0.80388367045E+02  0.66176210309E+03  0.69386136817E+03  0.12499908929E+03 0.  0.
         25    2    1    2    0    0 -0.14638119851E+03  0.80388367045E+02  0.46872445221E+03  0.51304727787E+03  0.12500060955E+03 0.  0.
          5    1    3    3  501    0  0.82673745729E+02  0.15389217822E+02  0.18300219400E+03  0.20145388868E+03  0.47000000000E+01 0. -1.
         -5    1    3    3    0  501  0.63707452781E+02 -0.95777584867E+02  0.47875990909E+03  0.49240747949E+03  0.47000000000E+01 0. -1.
          5    1    4    4  502    0 -0.14262247113E+03  0.59668354589E+02  0.25504281534E+03  0.29827907983E+03  0.47000000000E+01 0.  1.
         -5    1    4    4    0  502 -0.37587273785E+01  0.20720012456E+02  0.21368163688E+03  0.21476819803E+03  0.47000000000E+01 0.  1.
<mgrwt>
<rscale>  0 0.42264480E+03</rscale>
<asrwt>0</asrwt>
<pdfrwt beam="1">  1       21 0.17979960E+00 0.42264480E+03</pdfrwt>
<pdfrwt beam="2">  1       21 0.58786233E-02 0.42264480E+03</pdfrwt>
<totfact> 0.33634994E+04</totfact>
</mgrwt>
</event>
<event>
 8    1  0.9569852E-006  0.3796381E+03  0.7546771E-02  0.1051068E+00
         21   -1    0    0  504  503  0.00000000000E+00  0.00000000000E+00  0.56873874648E+03  0.56873874648E+03  0.00000000000E+00 0. -1.
         21   -1    0    0  503  504 -0.00000000000E+00 -0.00000000000E+00 -0.63352953477E+02  0.63352953477E+02  0.00000000000E+00 0. -1.
         25    2    1    2    0    0  0.39891792946E+02 -0.48911267845E+02  0.39319439098E+02  0.14544380623E+03  0.12499686082E+03 0.  0.
         25    2    1    2    0    0 -0.39891792946E+02  0.48911267845E+02  0.46606635391E+03  0.48664789373E+03  0.12499863582E+03 0.  0.
          5    1    3    3  501    0  0.60363051103E+02 -0.80800773206E+02  0.21164015559E+02  0.10316234024E+03  0.47000000000E+01 0. -1.
         -5    1    3    3    0  501 -0.20471258157E+02  0.31889505361E+02  0.18155423538E+02  0.42281465994E+02  0.47000000000E+01 0. -1.
          5    1    4    4  502    0  0.29962137219E+02  0.37451515800E+02  0.74648943556E+02  0.88853252481E+02  0.47000000000E+01 0.  1.
         -5    1    4    4    0  502 -0.69853930164E+02  0.11459752045E+02  0.39141741035E+03  0.39779464125E+03  0.47000000000E+01 0.  1.
<mgrwt>
<rscale>  0 0.37963814E+03</rscale>
<asrwt>0</asrwt>
<pdfrwt beam="1">  1       21 0.87498266E-01 0.37963814E+03</pdfrwt>
<pdfrwt beam="2">  1       21 0.97466086E-02 0.37963814E+03</pdfrwt>
<totfact> 0.89682585E+04</totfact>
</mgrwt>
</event>
<event>
 8    1  0.9569852E-006  0.3298603E+03  0.7546771E-02  0.1071199E+00
         21   -1    0    0  504  503  0.00000000000E+00  0.00000000000E+00  0.73061499217E+02  0.73061499217E+02  0.00000000000E+00 0. -1.
         21   -1    0    0  503  504 -0.00000000000E+00 -0.00000000000E+00 -0.37231593148E+03  0.37231593148E+03  0.00000000000E+00 0. -1.
         25    2    1    2    0    0 -0.70980073800E+02 -0.78858072505E+02 -0.17380633846E+03  0.23893495694E+03  0.12499801551E+03 0.  0.
         25    2    1    2    0    0  0.70980073800E+02  0.78858072505E+02 -0.12544809381E+03  0.20644247376E+03  0.12499801701E+03 0.  0.
          5    1    3    3  501    0 -0.85566668074E+02 -0.19297121585E+02 -0.50958437556E+02  0.10155238030E+03  0.47000000000E+01 0. -1.
         -5    1    3    3    0  501  0.14586594274E+02 -0.59560950921E+02 -0.12284790090E+03  0.13738257663E+03  0.47000000000E+01 0. -1.
          5    1    4    4  502    0  0.83300877856E+01 -0.33577313406E+02 -0.22240708512E+02  0.41395234668E+02  0.47000000000E+01 0. -1.
         -5    1    4    4    0  502  0.62649986015E+02  0.11243538591E+03 -0.10320738529E+03  0.16504723909E+03  0.47000000000E+01 0. -1.
<mgrwt>
<rscale>  0 0.32986033E+03</rscale>
<asrwt>0</asrwt>
<pdfrwt beam="1">  1       21 0.11240231E-01 0.32986033E+03</pdfrwt>
<pdfrwt beam="2">  1       21 0.57279375E-01 0.32986033E+03</pdfrwt>
<totfact> 0.18184457E+05</totfact>
</mgrwt>
</event>
<event>
 8    1  0.9569852E-006  0.3531691E+03  0.7546771E-02  0.1061322E+00
         21   -1    0    0  504  503  0.00000000000E+00  0.00000000000E+00  0.19696931851E+03  0.19696931851E+03  0.00000000000E+00 0.  1.
         21   -1    0    0  503  504 -0.00000000000E+00 -0.00000000000E+00 -0.15830945117E+03  0.15830945117E+03  0.00000000000E+00 0.  1.
         25    2    1    2    0    0 -0.63524938713E+02 -0.39638424364E+02  0.11967720429E+03  0.18856167400E+03  0.12500499651E+03 0.  0.
         25    2    1    2    0    0  0.63524938713E+02  0.39638424364E+02 -0.81017336949E+02  0.16671709568E+03  0.12499663428E+03 0.  0.
          5    1    3    3  501    0 -0.70930169764E+02 -0.21392301621E+02  0.75457546861E+01  0.74617343595E+02  0.47000000000E+01 0.  1.
         -5    1    3    3    0  501  0.74052310509E+01 -0.18246122743E+02  0.11213144960E+03  0.11394433041E+03  0.47000000000E+01 0.  1.
          5    1    4    4  502    0 -0.25870673440E+02 -0.23689082758E+02 -0.13126471200E+02  0.37747299669E+02  0.47000000000E+01 0.  1.
         -5    1    4    4    0  502  0.89395612153E+02  0.63327507122E+02 -0.67890865750E+02  0.12896979601E+03  0.47000000000E+01 0.  1.
<mgrwt>
<rscale>  0 0.35316911E+03</rscale>
<asrwt>0</asrwt>
<pdfrwt beam="1">  1       21 0.30302972E-01 0.35316911E+03</pdfrwt>
<pdfrwt beam="2">  1       21 0.24355300E-01 0.35316911E+03</pdfrwt>
<totfact> 0.15939901E+05</totfact>
</mgrwt>
</event>
<event>
 8    1  0.9569852E-006  0.2887716E+03  0.7546771E-02  0.1090992E+00
         21   -1    0    0  504  503  0.00000000000E+00  0.00000000000E+00  0.20504671287E+03  0.20504671287E+03  0.00000000000E+00 0.  1.
         21   -1    0    0  503  504 -0.00000000000E+00 -0.00000000000E+00 -0.10167074513E+03  0.10167074513E+03  0.00000000000E+00 0.  1.
         25    2    1    2    0    0  0.42955087002E+02  0.21819297252E+02  0.10889139283E+03  0.17263499722E+03  0.12499714237E+03 0.  0.
         25    2    1    2    0    0 -0.42955087002E+02 -0.21819297252E+02 -0.55154250799E+01  0.13408246078E+03  0.12500586044E+03 0.  0.
          5    1    3    3  501    0  0.20604213455E+02 -0.52276913847E+02  0.43839793888E+02  0.71424273616E+02  0.47000000000E+01 0.  1.
         -5    1    3    3    0  501  0.22350873547E+02  0.74096211098E+02  0.65051598940E+02  0.10121072360E+03  0.47000000000E+01 0.  1.
          5    1    4    4  502    0 -0.83287024257E+02  0.65229700382E+01 -0.10427244550E+02  0.84321379119E+02  0.47000000000E+01 0.  1.
         -5    1    4    4    0  502  0.40331937255E+02 -0.28342267290E+02  0.49118194698E+01  0.49761081664E+02  0.47000000000E+01 0.  1.
<mgrwt>
<rscale>  0 0.28877155E+03</rscale>
<asrwt>0</asrwt>
<pdfrwt beam="1">  1       21 0.31545648E-01 0.28877155E+03</pdfrwt>
<pdfrwt beam="2">  1       21 0.15641653E-01 0.28877155E+03</pdfrwt>
<totfact> 0.34366764E+05</totfact>
</mgrwt>
</event>
<event>
 8    1  0.9569852E-006  0.2534064E+03  0.7546771E-02  0.1111171E+00
         21   -1    0    0  504  503  0.00000000000E+00  0.00000000000E+00  0.34425157981E+02  0.34425157981E+02  0.00000000000E+00 0. -1.
         21   -1    0    0  503  504 -0.00000000000E+00 -0.00000000000E+00 -0.46633612694E+03  0.46633612694E+03  0.00000000000E+00 0. -1.
         25    2    1    2    0    0  0.27322755502E+01 -0.13858163619E+02 -0.18603295686E+03  0.22457272344E+03  0.12500053218E+03 0.  0.
         25    2    1    2    0    0 -0.27322755502E+01  0.13858163619E+02 -0.24587801211E+03  0.27618856149E+03  0.12499844251E+03 0.  0.
          5    1    3    3  501    0 -0.88891002156E+00  0.42507410910E+02 -0.16552639319E+02  0.45866654682E+02  0.47000000000E+01 0. -1.
         -5    1    3    3    0  501  0.36211855718E+01 -0.56365574529E+02 -0.16948031754E+03  0.17870606875E+03  0.47000000000E+01 0. -1.
          5    1    4    4  502    0 -0.24822727326E+02  0.45678401970E+02 -0.37712083300E+02  0.64397014102E+02  0.47000000000E+01 0. -1.
         -5    1    4    4    0  502  0.22090451776E+02 -0.31820238351E+02 -0.20816592881E+03  0.21179154739E+03  0.47000000000E+01 0. -1.
<mgrwt>
<rscale>  0 0.25340635E+03</rscale>
<asrwt>0</asrwt>
<pdfrwt beam="1">  1       21 0.52961790E-02 0.25340635E+03</pdfrwt>
<pdfrwt beam="2">  1       21 0.71744008E-01 0.25340635E+03</pdfrwt>
<totfact> 0.42211189E+05</totfact>
</mgrwt>
</event>
<event>
 8    1  0.9569852E-006  0.4237803E+03  0.7546771E-02  0.1035843E+00
         21   -1    0    0  504  503  0.00000000000E+00  0.00000000000E+00  0.17473287611E+03  0.17473287611E+03  0.00000000000E+00 0.  1.
         21   -1    0    0  503  504 -0.00000000000E+00 -0.00000000000E+00 -0.25694904637E+03  0.25694904637E+03  0.00000000000E+00 0.  1.
         25    2    1    2    0    0 -0.15089819691E+03 -0.87525032386E+01  0.40550817745E+02  0.20029077609E+03  0.12500061609E+03 0.  0.
         25    2    1    2    0    0  0.15089819691E+03  0.87525032386E+01 -0.12276698800E+03  0.23139114639E+03  0.12499302838E+03 0.  0.
          5    1    3    3  501    0 -0.64592073413E+01 -0.39645573557E+02 -0.13950010498E+02  0.42780669175E+02  0.47000000000E+01 0.  1.
         -5    1    3    3    0  501 -0.14443898956E+03  0.30893070318E+02  0.54500828242E+02  0.15751010691E+03  0.47000000000E+01 0.  1.
          5    1    4    4  502    0  0.12891629919E+02  0.50097641685E+02 -0.30189393063E+02  0.60078758957E+02  0.47000000000E+01 0. -1.
         -5    1    4    4    0  502  0.13800656699E+03 -0.41345138447E+02 -0.92577594940E+02  0.17131238744E+03  0.47000000000E+01 0. -1.
<mgrwt>
<rscale>  0 0.42378035E+03</rscale>
<asrwt>0</asrwt>
<pdfrwt beam="1">  1       21 0.26881981E-01 0.42378035E+03</pdfrwt>
<pdfrwt beam="2">  1       21 0.39530623E-01 0.42378035E+03</pdfrwt>
<totfact> 0.75883606E+04</totfact>
</mgrwt>
</event>
<event>
 8    1  0.9569852E-006  0.3526956E+03  0.7546771E-02  0.1061514E+00
         21   -1    0    0  504  503  0.00000000000E+00  0.00000000000E+00  0.54423470047E+03  0.54423470047E+03  0.00000000000E+00 0. -1.
         21   -1    0    0  503  504 -0.00000000000E+00 -0.00000000000E+00 -0.57141795436E+02  0.57141795436E+02  0.00000000000E+00 0. -1.
         25    2    1    2    0    0  0.77850601115E+02 -0.32729457054E+02  0.87855522712E+02  0.17459026715E+03  0.12502493775E+03 0.  0.
         25    2    1    2    0    0 -0.77850601115E+02  0.32729457054E+02  0.39923738232E+03  0.42678622876E+03  0.12499625659E+03 0.  0.
          5    1    3    3  501    0  0.38916539632E+02  0.34219452315E+02 -0.64906591823E+01  0.52437454460E+02  0.47000000000E+01 0. -1.
         -5    1    3    3    0  501  0.38934061483E+02 -0.66948909369E+02  0.94346181894E+02  0.12215281269E+03  0.47000000000E+01 0. -1.
          5    1    4    4  502    0 -0.46107748542E+02  0.58554917779E+02  0.10042072078E+03  0.12514397322E+03  0.47000000000E+01 0. -1.
         -5    1    4    4    0  502 -0.31742852573E+02 -0.25825460725E+02  0.29881666154E+03  0.30164225554E+03  0.47000000000E+01 0. -1.
<mgrwt>
<rscale>  0 0.35269561E+03</rscale>
<asrwt>0</asrwt>
<pdfrwt beam="1">  1       21 0.83728412E-01 0.35269561E+03</pdfrwt>
<pdfrwt beam="2">  1       21 0.87910458E-02 0.35269561E+03</pdfrwt>
<totfact> 0.12020088E+05</totfact>
</mgrwt>
</event>
<event>
 8    1  0.9569852E-006  0.2663063E+03  0.7546771E-02  0.1103412E+00
         21   -1    0    0  504  503  0.00000000000E+00  0.00000000000E+00  0.12621034788E+02  0.12621034788E+02  0.00000000000E+00 0. -1.
         21   -1    0    0  503  504 -0.00000000000E+00 -0.00000000000E+00 -0.14047792651E+04  0.14047792651E+04  0.00000000000E+00 0. -1.
         25    2    1    2    0    0 -0.30604066508E+02  0.33847363844E+02 -0.72155381681E+03  0.73372292834E+03  0.12500868806E+03 0.  0.
         25    2    1    2    0    0  0.30604066508E+02 -0.33847363844E+02 -0.67060441347E+03  0.68367737152E+03  0.12498886364E+03 0.  0.
          5    1    3    3  501    0 -0.78424665980E+02  0.29641636317E+02 -0.41666129578E+03  0.42503856324E+03  0.47000000000E+01 0.  1.
         -5    1    3    3    0  501  0.47820599473E+02  0.42057275266E+01 -0.30489252103E+03  0.30868436510E+03  0.47000000000E+01 0.  1.
          5    1    4    4  502    0 -0.63087972155E+01 -0.49231758477E+02 -0.60250624837E+03  0.60456549380E+03  0.47000000000E+01 0. -1.
         -5    1    4    4    0  502  0.36912863723E+02  0.15384394633E+02 -0.68098165099E+02  0.79111877720E+02  0.47000000000E+01 0. -1.
<mgrwt>
<rscale>  0 0.26630635E+03</rscale>
<asrwt>0</asrwt>
<pdfrwt beam="1">  1       21 0.19416966E-02 0.26630635E+03</pdfrwt>
<pdfrwt beam="2">  1       21 0.21612000E+00 0.26630635E+03</pdfrwt>
<totfact> 0.13216619E+05</totfact>
</mgrwt>
</event>
<event>
 8    1  0.9569852E-006  0.3906576E+03  0.7546771E-02  0.1047064E+00
         21   -1    0    0  504  503  0.00000000000E+00  0.00000000000E+00  0.74145712263E+03  0.74145712263E+03  0.00000000000E+00 0. -1.
         21   -1    0    0  503  504 -0.00000000000E+00 -0.00000000000E+00 -0.51457233467E+02  0.51457233467E+02  0.00000000000E+00 0. -1.
         25    2    1    2    0    0  0.80178370210E+02  0.53742225974E+02  0.11169707607E+03  0.19343419963E+03  0.12499501942E+03 0.  0.
         25    2    1    2    0    0 -0.80178370210E+02 -0.53742225974E+02  0.57830281309E+03  0.59948015647E+03  0.12500206587E+03 0.  0.
          5    1    3    3  501    0  0.69188020866E+02  0.15920656101E+00  0.41751678232E+00  0.69348914182E+02  0.47000000000E+01 0.  1.
         -5    1    3    3    0  501  0.10990349345E+02  0.53583019413E+02  0.11127955929E+03  0.12408528544E+03  0.47000000000E+01 0.  1.
          5    1    4    4  502    0 -0.38629075628E+02  0.21505758643E+02  0.63432175363E+02  0.77462468396E+02  0.47000000000E+01 0.  1.
         -5    1    4    4    0  502 -0.41549294582E+02 -0.75247984616E+02  0.51487063773E+03  0.52201768808E+03  0.47000000000E+01 0.  1.
<mgrwt>
<rscale>  0 0.39065756E+03</rscale>
<asrwt>0</asrwt>
<pdfrwt beam="1">  1       21 0.11407032E+00 0.39065756E+03</pdfrwt>
<pdfrwt beam="2">  1       21 0.79164980E-02 0.39065756E+03</pdfrwt>
<totfact> 0.68171480E+04</totfact>
</mgrwt>
</event>
<event>
 8    1  0.9569852E-006  0.3197840E+03  0.7546771E-02  0.1075749E+00
         21   -1    0    0  504  503  0.00000000000E+00  0.00000000000E+00  0.12292295609E+03  0.12292295609E+03  0.00000000000E+00 0.  1.
         21   -1    0    0  503  504 -0.00000000000E+00 -0.00000000000E+00 -0.20797947720E+03  0.20797947720E+03  0.00000000000E+00 0.  1.
         25    2    1    2    0    0  0.70628543019E+02  0.46684523044E+02 -0.96965152930E+02  0.17945428897E+03  0.12503505576E+03 0.  0.
         25    2    1    2    0    0 -0.70628543019E+02 -0.46684523044E+02  0.11908631820E+02  0.15144814432E+03  0.12500755627E+03 0.  0.
          5    1    3    3  501    0  0.89752451726E+02 -0.17554680598E+01 -0.89114327397E+02  0.12657818772E+03  0.47000000000E+01 0. -1.
         -5    1    3    3    0  501 -0.19123908707E+02  0.48439991104E+02 -0.78508255335E+01  0.52876101255E+02  0.47000000000E+01 0. -1.
          5    1    4    4  502    0 -0.54467245873E+02  0.21582587142E+02 -0.33592719851E+02  0.67698225735E+02  0.47000000000E+01 0.  1.
         -5    1    4    4    0  502 -0.16161297147E+02 -0.68267110186E+02  0.45501351671E+02  0.83749918582E+02  0.47000000000E+01 0.  1.
<mgrwt>
<rscale>  0 0.31978400E+03</rscale>
<asrwt>0</asrwt>
<pdfrwt beam="1">  1       21 0.18911224E-01 0.31978400E+03</pdfrwt>
<pdfrwt beam="2">  1       21 0.31996843E-01 0.31978400E+03</pdfrwt>
<totfact> 0.23327112E+05</totfact>
</mgrwt>
</event>
<event>
 8    1  0.9569852E-006  0.3535315E+03  0.7546771E-02  0.1061175E+00
         21   -1    0    0  504  503  0.00000000000E+00  0.00000000000E+00  0.25261453356E+03  0.25261453356E+03  0.00000000000E+00 0. -1.
         21   -1    0    0  503  504 -0.00000000000E+00 -0.00000000000E+00 -0.12369097367E+03  0.12369097367E+03  0.00000000000E+00 0. -1.
         25    2    1    2    0    0 -0.19592190670E+02 -0.11982183355E+03  0.32996042516E+02  0.17739173675E+03  0.12505184411E+03 0.  0.
         25    2    1    2    0    0  0.19592190670E+02  0.11982183355E+03  0.95927517377E+02  0.19891377048E+03  0.12499389490E+03 0.  0.
          5    1    3    3  501    0  0.13674111783E+02 -0.13195371899E+03  0.44276144694E+02  0.13993295636E+03  0.47000000000E+01 0. -1.
         -5    1    3    3    0  501 -0.33266302453E+02  0.12131885435E+02 -0.11280102177E+02  0.37458780389E+02  0.47000000000E+01 0. -1.
          5    1    4    4  502    0  0.27648244722E+02  0.85442379044E+02 -0.68012674609E+01  0.90184105096E+02  0.47000000000E+01 0.  1.
         -5    1    4    4    0  502 -0.80560540525E+01  0.34379454509E+02  0.10272878484E+03  0.10872966538E+03  0.47000000000E+01 0.  1.
<mgrwt>
<rscale>  0 0.35353154E+03</rscale>
<asrwt>0</asrwt>
<pdfrwt beam="1">  1       21 0.38863774E-01 0.35353154E+03</pdfrwt>
<pdfrwt beam="2">  1       21 0.19029381E-01 0.35353154E+03</pdfrwt>
<totfact> 0.15481318E+05</totfact>
</mgrwt>
</event>
<event>
 8    1  0.9569852E-006  0.3199537E+03  0.7546771E-02  0.1075671E+00
         21   -1    0    0  504  503  0.00000000000E+00  0.00000000000E+00  0.14740162236E+04  0.14740162236E+04  0.00000000000E+00 0.  1.
         21   -1    0    0  503  504 -0.00000000000E+00 -0.00000000000E+00 -0.17362492247E+02  0.17362492247E+02  0.00000000000E+00 0.  1.
         25    2    1    2    0    0  0.90191055656E+01 -0.87616525815E+02  0.50921950010E+03  0.53168415079E+03  0.12500214822E+03 0.  0.
         25    2    1    2    0    0 -0.90191055656E+01  0.87616525815E+02  0.94743423127E+03  0.95969456507E+03  0.12499614308E+03 0.  0.
          5    1    3    3  501    0 -0.37347288141E+02 -0.98160230332E+02  0.35205216777E+03  0.36741403020E+03  0.47000000000E+01 0.  1.
         -5    1    3    3    0  501  0.46366393707E+02  0.10543704516E+02  0.15716733233E+03  0.16427012060E+03  0.47000000000E+01 0.  1.
          5    1    4    4  502    0  0.90673173025E+01  0.65834637193E+02  0.91043505781E+03  0.91286937740E+03  0.47000000000E+01 0. -1.
         -5    1    4    4    0  502 -0.18086422868E+02  0.21781888622E+02  0.36999173457E+02  0.46825187673E+02  0.47000000000E+01 0. -1.
<mgrwt>
<rscale>  0 0.31995372E+03</rscale>
<asrwt>0</asrwt>
<pdfrwt beam="1">  1       21 0.22677163E+00 0.31995372E+03</pdfrwt>
<pdfrwt beam="2">  1       21 0.26711538E-02 0.31995372E+03</pdfrwt>
<totfact> 0.65436029E+04</totfact>
</mgrwt>
</event>
<event>
 8    1  0.9569852E-006  0.2596958E+03  0.7546771E-02  0.1107326E+00
         21   -1    0    0  504  503  0.00000000000E+00  0.00000000000E+00  0.87307741198E+03  0.87307741198E+03  0.00000000000E+00 0.  1.
         21   -1    0    0  503  504 -0.00000000000E+00 -0.00000000000E+00 -0.19311554367E+02  0.19311554367E+02  0.00000000000E+00 0.  1.
         25    2    1    2    0    0  0.24959326789E+02  0.96640412149E+01  0.50512938927E+03  0.52105406108E+03  0.12500109193E+03 0.  0.
         25    2    1    2    0    0 -0.24959326789E+02 -0.96640412149E+01  0.34863646835E+03  0.37133490527E+03  0.12500345244E+03 0.  0.
          5    1    3    3  501    0 -0.17985024706E+01 -0.54209210194E+02  0.28798133226E+03  0.29308225946E+03  0.47000000000E+01 0. -1.
         -5    1    3    3    0  501  0.26757829260E+02  0.63873251409E+02  0.21714805700E+03  0.22797180162E+03  0.47000000000E+01 0. -1.
          5    1    4    4  502    0 -0.63746815683E+02 -0.33359431605E+02  0.27806960024E+03  0.28726520980E+03  0.47000000000E+01 0. -1.
         -5    1    4    4    0  502  0.38787488894E+02  0.23695390390E+02  0.70566868108E+02  0.84069695462E+02  0.47000000000E+01 0. -1.
<mgrwt>
<rscale>  0 0.25969584E+03</rscale>
<asrwt>0</asrwt>
<pdfrwt beam="1">  1       21 0.13431957E+00 0.25969584E+03</pdfrwt>
<pdfrwt beam="2">  1       21 0.29710090E-02 0.25969584E+03</pdfrwt>
<totfact> 0.25018842E+05</totfact>
</mgrwt>
</event>
<event>
 8    1  0.9569852E-006  0.4151462E+03  0.7546771E-02  0.1038658E+00
         21   -1    0    0  504  503  0.00000000000E+00  0.00000000000E+00  0.10811961018E+03  0.10811961018E+03  0.00000000000E+00 0. -1.
         21   -1    0    0  503  504 -0.00000000000E+00 -0.00000000000E+00 -0.39850861842E+03  0.39850861842E+03  0.00000000000E+00 0. -1.
         25    2    1    2    0    0  0.88555416940E+02  0.13816170427E+03 -0.11703134155E+03  0.23717527616E+03  0.12500023328E+03 0.  0.
         25    2    1    2    0    0 -0.88555416940E+02 -0.13816170427E+03 -0.17335766669E+03  0.26945295244E+03  0.12498517746E+03 0.  0.
          5    1    3    3  501    0  0.67888175737E+02  0.87653284602E+02 -0.13925650201E+03  0.17806281492E+03  0.47000000000E+01 0.  1.
         -5    1    3    3    0  501  0.20667241202E+02  0.50508419664E+02  0.22225160458E+02  0.59112461235E+02  0.47000000000E+01 0.  1.
          5    1    4    4  502    0  0.12822003579E+02 -0.89692565037E+02 -0.54583113735E+02  0.10587996177E+03  0.47000000000E+01 0. -1.
         -5    1    4    4    0  502 -0.10137742052E+03 -0.48469139228E+02 -0.11877455295E+03  0.16357299067E+03  0.47000000000E+01 0. -1.
<mgrwt>
<rscale>  0 0.41514622E+03</rscale>
<asrwt>0</asrwt>
<pdfrwt beam="1">  1       21 0.16633786E-01 0.41514622E+03</pdfrwt>
<pdfrwt beam="2">  1       21 0.61309018E-01 0.41514622E+03</pdfrwt>
<totfact> 0.75016774E+04</totfact>
</mgrwt>
</event>
<event>
 8    1  0.9569852E-006  0.5629663E+03  0.7546771E-02  0.9985365E-01
         21   -1    0    0  504  503  0.00000000000E+00  0.00000000000E+00  0.25169334978E+03  0.25169334978E+03  0.00000000000E+00 0.  1.
         21   -1    0    0  503  504 -0.00000000000E+00 -0.00000000000E+00 -0.31479876949E+03  0.31479876949E+03  0.00000000000E+00 0.  1.
         25    2    1    2    0    0  0.90637203280E+02 -0.23305922117E+03  0.14594354449E+01  0.27956812938E+03  0.12499802327E+03 0.  0.
         25    2    1    2    0    0 -0.90637203280E+02  0.23305922117E+03 -0.64564855156E+02  0.28692398989E+03  0.12500020905E+03 0.  0.
          5    1    3    3  501    0 -0.40545714613E+01  0.12647192456E+02  0.78490462470E+01  0.16127261198E+02  0.47000000000E+01 0. -1.
         -5    1    3    3    0  501  0.94691774741E+02 -0.24570641363E+03 -0.63896108022E+01  0.26344086818E+03  0.47000000000E+01 0. -1.
          5    1    4    4  502    0 -0.10622957456E+03  0.21468227636E+03 -0.25693811454E+02  0.24094701542E+03  0.47000000000E+01 0.  1.
         -5    1    4    4    0  502  0.15592371282E+02  0.18376944812E+02 -0.38871043702E+02  0.45976974469E+02  0.47000000000E+01 0.  1.
<mgrwt>
<rscale>  0 0.56296628E+03</rscale>
<asrwt>0</asrwt>
<pdfrwt beam="1">  1       21 0.38722054E-01 0.56296628E+03</pdfrwt>
<pdfrwt beam="2">  1       21 0.48430580E-01 0.56296628E+03</pdfrwt>
<totfact> 0.23180116E+04</totfact>
</mgrwt>
</event>
<event>
 8    1  0.9569852E-006  0.3250073E+03  0.7546771E-02  0.1073368E+00
         21   -1    0    0  504  503  0.00000000000E+00  0.00000000000E+00  0.13095806066E+03  0.13095806066E+03  0.00000000000E+00 0.  1.
         21   -1    0    0  503  504 -0.00000000000E+00 -0.00000000000E+00 -0.20164808334E+03  0.20164808334E+03  0.00000000000E+00 0.  1.
         25    2    1    2    0    0 -0.30722777129E+02  0.18446112063E+02  0.64391773659E+02  0.14510367080E+03  0.12499850671E+03 0.  0.
         25    2    1    2    0    0  0.30722777129E+02 -0.18446112063E+02 -0.13508179634E+03  0.18750247320E+03  0.12500375062E+03 0.  0.
          5    1    3    3  501    0  0.41951585698E+02  0.35546626565E+02  0.29117015734E+02  0.62397025634E+02  0.47000000000E+01 0. -1.
         -5    1    3    3    0  501 -0.72674362827E+02 -0.17100514503E+02  0.35274757925E+02  0.82706645169E+02  0.47000000000E+01 0. -1.
          5    1    4    4  502    0 -0.19509860979E+02 -0.45622689879E+02 -0.11738214196E+03  0.12752537692E+03  0.47000000000E+01 0. -1.
         -5    1    4    4    0  502  0.50232638109E+02  0.27176577816E+02 -0.17699654383E+02  0.59977096282E+02  0.47000000000E+01 0. -1.
<mgrwt>
<rscale>  0 0.32500733E+03</rscale>
<asrwt>0</asrwt>
<pdfrwt beam="1">  1       21 0.20147394E-01 0.32500733E+03</pdfrwt>
<pdfrwt beam="2">  1       21 0.31022782E-01 0.32500733E+03</pdfrwt>
<totfact> 0.21988010E+05</totfact>
</mgrwt>
</event>
<event>
 8    1  0.9569852E-006  0.3393468E+03  0.7546771E-02  0.1067074E+00
         21   -1    0    0  504  503  0.00000000000E+00  0.00000000000E+00  0.29378941225E+03  0.29378941225E+03  0.00000000000E+00 0. -1.
         21   -1    0    0  503  504 -0.00000000000E+00 -0.00000000000E+00 -0.97992200278E+02  0.97992200278E+02  0.00000000000E+00 0. -1.
         25    2    1    2    0    0 -0.14072345007E+02 -0.72503512558E+02  0.19926495032E+03  0.24654774026E+03  0.12499791028E+03 0.  0.
         25    2    1    2    0    0  0.14072345007E+02  0.72503512558E+02 -0.34677383402E+01  0.14523387228E+03  0.12500424881E+03 0.  0.
          5    1    3    3  501    0  0.12048954219E+02 -0.93514345958E+02  0.83831783282E+02  0.12625358643E+03  0.47000000000E+01 0.  1.
         -5    1    3    3    0  501 -0.26121299227E+02  0.21010833400E+02  0.11543316703E+03  0.12029415383E+03  0.47000000000E+01 0.  1.
          5    1    4    4  502    0  0.43794382851E+02  0.61469587073E+02  0.44351253154E+02  0.87667449835E+02  0.47000000000E+01 0. -1.
         -5    1    4    4    0  502 -0.29722037844E+02  0.11033925485E+02 -0.47818991494E+02  0.57566422441E+02  0.47000000000E+01 0. -1.
<mgrwt>
<rscale>  0 0.33934685E+03</rscale>
<asrwt>0</asrwt>
<pdfrwt beam="1">  1       21 0.45198371E-01 0.33934685E+03</pdfrwt>
<pdfrwt beam="2">  1       21 0.15075723E-01 0.33934685E+03</pdfrwt>
<totfact> 0.17555106E+05</totfact>
</mgrwt>
</event>
<event>
 8    1  0.9569852E-006  0.3724537E+03  0.7546771E-02  0.1053759E+00
         21   -1    0    0  504  503  0.00000000000E+00  0.00000000000E+00  0.62357509541E+03  0.62357509541E+03  0.00000000000E+00 0. -1.
         21   -1    0    0  503  504 -0.00000000000E+00 -0.00000000000E+00 -0.55615499031E+02  0.55615499031E+02  0.00000000000E+00 0. -1.
         25    2    1    2    0    0  0.87859985474E+02  0.20802725722E+02  0.47440483421E+03  0.49883547386E+03  0.12499901123E+03 0.  0.
         25    2    1    2    0    0 -0.87859985474E+02 -0.20802725722E+02  0.93554762167E+02  0.18035512059E+03  0.12499338203E+03 0.  0.
          5    1    3    3  501    0 -0.21167465633E+02  0.36878680460E+02  0.10721415500E+03  0.11543423974E+03  0.47000000000E+01 0. -1.
         -5    1    3    3    0  501  0.10902745111E+03 -0.16075954739E+02  0.36719067922E+03  0.38340123411E+03  0.47000000000E+01 0. -1.
          5    1    4    4  502    0 -0.22554140603E+02 -0.61844598462E+02  0.10352690751E+02  0.66803531516E+02  0.47000000000E+01 0.  1.
         -5    1    4    4    0  502 -0.65305844871E+02  0.41041872740E+02  0.83202071416E+02  0.11355158907E+03  0.47000000000E+01 0.  1.
<mgrwt>
<rscale>  0 0.37245370E+03</rscale>
<asrwt>0</asrwt>
<pdfrwt beam="1">  1       21 0.95934625E-01 0.37245370E+03</pdfrwt>
<pdfrwt beam="2">  1       21 0.85562310E-02 0.37245370E+03</pdfrwt>
<totfact> 0.91121916E+04</totfact>
</mgrwt>
</event>
<event>
 8    1  0.9569852E-006  0.4754037E+03  0.7546771E-02  0.1020406E+00
         21   -1    0    0  504  503  0.00000000000E+00  0.00000000000E+00  0.46467001586E+02  0.46467001586E+02  0.00000000000E+00 0. -1.
         21   -1    0    0  503  504 -0.00000000000E+00 -0.00000000000E+00 -0.12159634012E+04  0.12159634012E+04  0.00000000000E+00 0. -1.
         25    2    1    2    0    0  0.95027641260E+02  0.14702933974E+03 -0.31614419212E+03  0.38238364086E+03  0.12498887647E+03 0.  0.
         25    2    1    2    0    0 -0.95027641260E+02 -0.14702933974E+03 -0.85335220747E+03  0.88004676189E+03  0.12499773512E+03 0.  0.
          5    1    3    3  501    0  0.34471137508E+02  0.13551218625E+03 -0.15004177396E+03  0.20514978888E+03  0.47000000000E+01 0. -1.
         -5    1    3    3    0  501  0.60556503753E+02  0.11517153484E+02 -0.16610241815E+03  0.17723385198E+03  0.47000000000E+01 0. -1.
          5    1    4    4  502    0 -0.60125958417E+02 -0.13452485776E+03 -0.42069251110E+03  0.44577611772E+03  0.47000000000E+01 0. -1.
         -5    1    4    4    0  502 -0.34901682844E+02 -0.12504481979E+02 -0.43265969636E+03  0.43427064417E+03  0.47000000000E+01 0. -1.
<mgrwt>
<rscale>  0 0.47540372E+03</rscale>
<asrwt>0</asrwt>
<pdfrwt beam="1">  1       21 0.71487698E-02 0.47540372E+03</pdfrwt>
<pdfrwt beam="2">  1       21 0.18707129E+00 0.47540372E+03</pdfrwt>
<totfact> 0.20916038E+04</totfact>
</mgrwt>
</event>
<event>
 8    1  0.9569852E-006  0.3209686E+03  0.7546771E-02  0.1075204E+00
         21   -1    0    0  504  503  0.00000000000E+00  0.00000000000E+00  0.56856482088E+02  0.56856482088E+02  0.00000000000E+00 0.  1.
         21   -1    0    0  503  504 -0.00000000000E+00 -0.00000000000E+00 -0.45298636796E+03  0.45298636796E+03  0.00000000000E+00 0.  1.
         25    2    1    2    0    0  0.48016253850E+02 -0.74297301734E+02 -0.27432715999E+03  0.31417499968E+03  0.12499956015E+03 0.  0.
         25    2    1    2    0    0 -0.48016253850E+02  0.74297301734E+02 -0.12180272588E+03  0.19566785036E+03  0.12499741580E+03 0.  0.
          5    1    3    3  501    0 -0.36426950245E+02 -0.26838825393E+02 -0.14850314887E+03  0.15531426359E+03  0.47000000000E+01 0.  1.
         -5    1    3    3    0  501  0.84443204095E+02 -0.47458476341E+02 -0.12582401113E+03  0.15886073609E+03  0.47000000000E+01 0.  1.
          5    1    4    4  502    0 -0.76091758783E+02  0.90224630266E+02 -0.10866944086E+03  0.16050413402E+03  0.47000000000E+01 0. -1.
         -5    1    4    4    0  502  0.28075504933E+02 -0.15927328532E+02 -0.13133285012E+02  0.35163716337E+02  0.47000000000E+01 0. -1.
<mgrwt>
<rscale>  0 0.32096860E+03</rscale>
<asrwt>0</asrwt>
<pdfrwt beam="1">  1       21 0.87471512E-02 0.32096860E+03</pdfrwt>
<pdfrwt beam="2">  1       21 0.69690210E-01 0.32096860E+03</pdfrwt>
<totfact> 0.18540914E+05</totfact>
</mgrwt>
</event>
<event>
 8    1  0.9569852E-006  0.3783890E+03  0.7546771E-02  0.1051531E+00
         21   -1    0    0  504  503  0.00000000000E+00  0.00000000000E+00  0.42831500055E+03  0.42831500055E+03  0.00000000000E+00 0.  1.
         21   -1    0    0  503  504 -0.00000000000E+00 -0.00000000000E+00 -0.83570648432E+02  0.83570648432E+02  0.00000000000E+00 0.  1.
         25    2    1    2    0    0 -0.43936192646E+01 -0.80118700951E+02  0.13854583157E+02  0.14918440681E+03  0.12500291048E+03 0.  0.
         25    2    1    2    0    0  0.43936192646E+01  0.80118700951E+02  0.33088976896E+03  0.36270124217E+03  0.12500336690E+03 0.  0.
          5    1    3    3  501    0 -0.58211294549E+02 -0.34373947433E+02 -0.20085699544E+02  0.70679900972E+02  0.47000000000E+01 0.  1.
         -5    1    3    3    0  501  0.53817675284E+02 -0.45744753518E+02  0.33940282702E+02  0.78504505840E+02  0.47000000000E+01 0.  1.
          5    1    4    4  502    0 -0.43233860280E+02  0.35421409592E+01  0.44126965761E+02  0.62056365866E+02  0.47000000000E+01 0. -1.
         -5    1    4    4    0  502  0.47627479545E+02  0.76576559992E+02  0.28676280320E+03  0.30064487631E+03  0.47000000000E+01 0. -1.
<mgrwt>
<rscale>  0 0.37838902E+03</rscale>
<asrwt>0</asrwt>
<pdfrwt beam="1">  1       21 0.65894614E-01 0.37838902E+03</pdfrwt>
<pdfrwt beam="2">  1       21 0.12857023E-01 0.37838902E+03</pdfrwt>
<totfact> 0.10377006E+05</totfact>
</mgrwt>
</event>
<event>
 8    1  0.9569852E-006  0.7540715E+03  0.7546771E-02  0.9628984E-01
         21   -1    0    0  504  503  0.00000000000E+00  0.00000000000E+00  0.15465982317E+03  0.15465982317E+03  0.00000000000E+00 0.  1.
         21   -1    0    0  503  504 -0.00000000000E+00 -0.00000000000E+00 -0.91915250058E+03  0.91915250058E+03  0.00000000000E+00 0.  1.
         25    2    1    2    0    0 -0.22910883111E+03 -0.18023448156E+03 -0.91957778818E+02  0.33023713685E+03  0.12500003455E+03 0.  0.
         25    2    1    2    0    0  0.22910883111E+03  0.18023448156E+03 -0.67253489860E+03  0.74357518690E+03  0.12500217564E+03 0.  0.
          5    1    3    3  501    0 -0.14321465443E+03 -0.16470082467E+03 -0.24217939947E+02  0.21964834966E+03  0.47000000000E+01 0.  1.
         -5    1    3    3    0  501 -0.85894176671E+02 -0.15533656888E+02 -0.67739838871E+02  0.11058878719E+03  0.47000000000E+01 0.  1.
          5    1    4    4  502    0  0.71285456071E+01  0.51039709302E+02 -0.59269103105E+02  0.78681539581E+02  0.47000000000E+01 0. -1.
         -5    1    4    4    0  502  0.22198028550E+03  0.12919477226E+03 -0.61326579549E+03  0.66489364732E+03  0.47000000000E+01 0. -1.
<mgrwt>
<rscale>  0 0.75407152E+03</rscale>
<asrwt>0</asrwt>
<pdfrwt beam="1">  1       21 0.23793820E-01 0.75407152E+03</pdfrwt>
<pdfrwt beam="2">  1       21 0.14140807E+00 0.75407152E+03</pdfrwt>
<totfact> 0.46762005E+03</totfact>
</mgrwt>
</event>
<event>
 8    1  0.9569852E-006  0.4256451E+03  0.7546771E-02  0.1035245E+00
         21   -1    0    0  504  503  0.00000000000E+00  0.00000000000E+00  0.78223526334E+02  0.78223526334E+02  0.00000000000E+00 0.  1.
         21   -1    0    0  503  504 -0.00000000000E+00 -0.00000000000E+00 -0.57902573892E+03  0.57902573892E+03  0.00000000000E+00 0.  1.
         25    2    1    2    0    0 -0.14544980308E+02  0.16945163171E+03 -0.29249987562E+03  0.36069999111E+03  0.12499157735E+03 0.  0.
         25    2    1    2    0    0  0.14544980308E+02 -0.16945163171E+03 -0.20830233697E+03  0.29654927414E+03  0.12500478578E+03 0.  0.
          5    1    3    3  501    0 -0.44298307632E+02  0.97553325017E+02 -0.78383142017E+02  0.13283447682E+03  0.47000000000E+01 0.  1.
         -5    1    3    3    0  501  0.29753327324E+02  0.71898306692E+02 -0.21411673360E+03  0.22786551429E+03  0.47000000000E+01 0.  1.
          5    1    4    4  502    0  0.63887625006E+02 -0.10149041907E+03 -0.15844232109E+03  0.19876617646E+03  0.47000000000E+01 0. -1.
         -5    1    4    4    0  502 -0.49342644698E+02 -0.67961212643E+02 -0.49860015874E+02  0.97783097684E+02  0.47000000000E+01 0. -1.
<mgrwt>
<rscale>  0 0.42564509E+03</rscale>
<asrwt>0</asrwt>
<pdfrwt beam="1">  1       21 0.12034389E-01 0.42564509E+03</pdfrwt>
<pdfrwt beam="2">  1       21 0.89080882E-01 0.42564509E+03</pdfrwt>
<totfact> 0.58137577E+04</totfact>
</mgrwt>
</event>
<event>
 8    1  0.9569852E-006  0.2682498E+03  0.7546771E-02  0.1102285E+00
         21   -1    0    0  504  503  0.00000000000E+00  0.00000000000E+00  0.17703930961E+03  0.17703930961E+03  0.00000000000E+00 0. -1.
         21   -1    0    0  503  504 -0.00000000000E+00 -0.00000000000E+00 -0.10161296364E+03  0.10161296364E+03  0.00000000000E+00 0. -1.
         25    2    1    2    0    0 -0.43728108502E+02  0.17240934055E+02  0.50794347324E+02  0.14285008890E+03  0.12496673517E+03 0.  0.
         25    2    1    2    0    0  0.43728108502E+02 -0.17240934055E+02  0.24631998642E+02  0.13580218435E+03  0.12500440247E+03 0.  0.
          5    1    3    3  501    0  0.42864298547E+02  0.11649524631E+02  0.59505464914E+01  0.45061718982E+02  0.47000000000E+01 0. -1.
         -5    1    3    3    0  501 -0.86592407049E+02  0.55914094237E+01  0.44843800833E+02  0.97788369916E+02  0.47000000000E+01 0. -1.
          5    1    4    4  502    0 -0.50054137354E+01 -0.29256055195E+02  0.64744348325E+02  0.71378509177E+02  0.47000000000E+01 0. -1.
         -5    1    4    4    0  502  0.48733522237E+02  0.12015121140E+02 -0.40112349683E+02  0.64423675173E+02  0.47000000000E+01 0. -1.
<mgrwt>
<rscale>  0 0.26824980E+03</rscale>
<asrwt>0</asrwt>
<pdfrwt beam="1">  1       21 0.27236817E-01 0.26824980E+03</pdfrwt>
<pdfrwt beam="2">  1       21 0.15632764E-01 0.26824980E+03</pdfrwt>
<totfact> 0.46057202E+05</totfact>
</mgrwt>
</event>
<event>
 8    1  0.9569852E-006  0.5602036E+03  0.7546771E-02  0.9991594E-01
         21   -1    0    0  504  503  0.00000000000E+00  0.00000000000E+00  0.70444587764E+03  0.70444587764E+03  0.00000000000E+00 0. -1.
         21   -1    0    0  503  504 -0.00000000000E+00 -0.00000000000E+00 -0.11137410287E+03  0.11137410287E+03  0.00000000000E+00 0. -1.
         25    2    1    2    0    0 -0.16037491502E+03 -0.19072653561E+03  0.25705586145E+03  0.37920993023E+03  0.12500292205E+03 0.  0.
         25    2    1    2    0    0  0.16037491502E+03  0.19072653561E+03  0.33601591332E+03  0.43661005028E+03  0.12499966900E+03 0.  0.
          5    1    3    3  501    0 -0.10997668531E+03 -0.19208287948E+03  0.17252435977E+03  0.28067320609E+03  0.47000000000E+01 0.  1.
         -5    1    3    3    0  501 -0.50398229718E+02  0.13563438714E+01  0.84531501684E+02  0.98536724141E+02  0.47000000000E+01 0.  1.
          5    1    4    4  502    0  0.87535683067E+02  0.18583917263E+03  0.25411117106E+03  0.32679239763E+03  0.47000000000E+01 0.  1.
         -5    1    4    4    0  502  0.72839231957E+02  0.48873629830E+01  0.81904742258E+02  0.10981765265E+03  0.47000000000E+01 0.  1.
<mgrwt>
<rscale>  0 0.56020363E+03</rscale>
<asrwt>0</asrwt>
<pdfrwt beam="1">  1       21 0.10837629E+00 0.56020363E+03</pdfrwt>
<pdfrwt beam="2">  1       21 0.17134478E-01 0.56020363E+03</pdfrwt>
<totfact> 0.18223616E+04</totfact>
</mgrwt>
</event>
<event>
 8    1  0.9569852E-006  0.3039887E+03  0.7546771E-02  0.1083264E+00
         21   -1    0    0  504  503  0.00000000000E+00  0.00000000000E+00  0.26320356379E+03  0.26320356379E+03  0.00000000000E+00 0.  1.
         21   -1    0    0  503  504 -0.00000000000E+00 -0.00000000000E+00 -0.87773428540E+02  0.87773428540E+02  0.00000000000E+00 0.  1.
         25    2    1    2    0    0 -0.22028812894E+02 -0.25207758795E+02 -0.43323503664E+01  0.12948202993E+03  0.12500450838E+03 0.  0.
         25    2    1    2    0    0  0.22028812894E+02  0.25207758795E+02  0.17976248561E+03  0.22149496239E+03  0.12499906972E+03 0.  0.
          5    1    3    3  501    0 -0.16064608287E+02  0.47041498274E+01 -0.61828840783E+02  0.64226911942E+02  0.47000000000E+01 0.  1.
         -5    1    3    3    0  501 -0.59642046070E+01 -0.29911908622E+02  0.57496490416E+02  0.65255117993E+02  0.47000000000E+01 0.  1.
          5    1    4    4  502    0 -0.55675067538E+01  0.60179718395E+02  0.16258532963E+03  0.17351851500E+03  0.47000000000E+01 0.  1.
         -5    1    4    4    0  502  0.27596319648E+02 -0.34971959601E+02  0.17177155982E+02  0.47976447388E+02  0.47000000000E+01 0.  1.
<mgrwt>
<rscale>  0 0.30398868E+03</rscale>
<asrwt>0</asrwt>
<pdfrwt beam="1">  1       21 0.40492856E-01 0.30398868E+03</pdfrwt>
<pdfrwt beam="2">  1       21 0.13503605E-01 0.30398868E+03</pdfrwt>
<totfact> 0.27155456E+05</totfact>
</mgrwt>
</event>
<event>
 8    1  0.9569852E-006  0.3397748E+03  0.7546771E-02  0.1066892E+00
         21   -1    0    0  504  503  0.00000000000E+00  0.00000000000E+00  0.57832075423E+02  0.57832075423E+02  0.00000000000E+00 0.  1.
         21   -1    0    0  503  504 -0.00000000000E+00 -0.00000000000E+00 -0.49906104677E+03  0.49906104677E+03  0.00000000000E+00 0.  1.
         25    2    1    2    0    0  0.44794199609E+02  0.56705411781E+02 -0.36735505532E+03  0.39470965845E+03  0.12499581496E+03 0.  0.
         25    2    1    2    0    0 -0.44794199609E+02 -0.56705411781E+02 -0.73873916026E+02  0.16218346375E+03  0.12499638555E+03 0.  0.
          5    1    3    3  501    0  0.14457762343E+02 -0.29261367214E+02 -0.27897422168E+02  0.43192715437E+02  0.47000000000E+01 0.  1.
         -5    1    3    3    0  501  0.30336437266E+02  0.85966778996E+02 -0.33945763315E+03  0.35151694301E+03  0.47000000000E+01 0.  1.
          5    1    4    4  502    0  0.27346694657E+02 -0.62716200489E+02 -0.53069901185E+02  0.86716018844E+02  0.47000000000E+01 0. -1.
         -5    1    4    4    0  502 -0.72140894267E+02  0.60107887074E+01 -0.20804014842E+02  0.75467444902E+02  0.47000000000E+01 0. -1.
<mgrwt>
<rscale>  0 0.33977484E+03</rscale>
<asrwt>0</asrwt>
<pdfrwt beam="1">  1       21 0.88972428E-02 0.33977484E+03</pdfrwt>
<pdfrwt beam="2">  1       21 0.76778619E-01 0.33977484E+03</pdfrwt>
<totfact> 0.14400459E+05</totfact>
</mgrwt>
</event>
<event>
 8    1  0.9569852E-006  0.2788663E+03  0.7546771E-02  0.1096310E+00
         21   -1    0    0  504  503  0.00000000000E+00  0.00000000000E+00  0.29201908153E+02  0.29201908153E+02  0.00000000000E+00 0. -1.
         21   -1    0    0  503  504 -0.00000000000E+00 -0.00000000000E+00 -0.66576505188E+03  0.66576505188E+03  0.00000000000E+00 0. -1.
         25    2    1    2    0    0 -0.45843405737E+02 -0.33558236677E+02 -0.37872818991E+03  0.40285052540E+03  0.12500292350E+03 0.  0.
         25    2    1    2    0    0  0.45843405737E+02  0.33558236677E+02 -0.25783495381E+03  0.29211643463E+03  0.12500149949E+03 0.  0.
          5    1    3    3  501    0  0.36015519774E+02 -0.34993355865E+02 -0.19909234021E+03  0.20538135882E+03  0.47000000000E+01 0. -1.
         -5    1    3    3    0  501 -0.81858925510E+02  0.14351191890E+01 -0.17963584970E+03  0.19746916658E+03  0.47000000000E+01 0. -1.
          5    1    4    4  502    0  0.57652832891E+02  0.30609230141E+02 -0.46267534950E+02  0.80147045489E+02  0.47000000000E+01 0. -1.
         -5    1    4    4    0  502 -0.11809427155E+02  0.29490065358E+01 -0.21156741886E+03  0.21196938914E+03  0.47000000000E+01 0. -1.
<mgrwt>
<rscale>  0 0.27886635E+03</rscale>
<asrwt>0</asrwt>
<pdfrwt beam="1">  1       21 0.44926016E-02 0.27886635E+03</pdfrwt>
<pdfrwt beam="2">  1       21 0.10242538E+00 0.27886635E+03</pdfrwt>
<totfact> 0.24367098E+05</totfact>
</mgrwt>
</event>
<event>
 8    1  0.9569852E-006  0.3988349E+03  0.7546771E-02  0.1044184E+00
         21   -1    0    0  504  503  0.00000000000E+00  0.00000000000E+00  0.40841687726E+02  0.40841687726E+02  0.00000000000E+00 0. -1.
         21   -1    0    0  503  504 -0.00000000000E+00 -0.00000000000E+00 -0.97369448948E+03  0.97369448948E+03  0.00000000000E+00 0. -1.
         25    2    1    2    0    0 -0.10115470910E+03  0.11786225797E+03 -0.47756786029E+03  0.51750956782E+03  0.12498521746E+03 0.  0.
         25    2    1    2    0    0  0.10115470910E+03 -0.11786225797E+03 -0.45528494147E+03  0.49702660938E+03  0.12500914159E+03 0.  0.
          5    1    3    3  501    0 -0.12989235976E+03  0.85537995946E+02 -0.36200710391E+03  0.39403046475E+03  0.47000000000E+01 0.  1.
         -5    1    3    3    0  501  0.28737650656E+02  0.32324262025E+02 -0.11556075638E+03  0.12347910307E+03  0.47000000000E+01 0.  1.
          5    1    4    4  502    0 -0.44289684849E+01 -0.89750291481E+02 -0.20113616781E+03  0.22034649665E+03  0.47000000000E+01 0.  1.
         -5    1    4    4    0  502  0.10558367758E+03 -0.28111966489E+02 -0.25414877365E+03  0.27668011273E+03  0.47000000000E+01 0.  1.
<mgrwt>
<rscale>  0 0.39883493E+03</rscale>
<asrwt>0</asrwt>
<pdfrwt beam="1">  1       21 0.62833372E-02 0.39883493E+03</pdfrwt>
<pdfrwt beam="2">  1       21 0.14979914E+00 0.39883493E+03</pdfrwt>
<totfact> 0.50325800E+04</totfact>
</mgrwt>
</event>
<event>
 8    1  0.9569852E-006  0.2597318E+03  0.7546771E-02  0.1107304E+00
         21   -1    0    0  504  503  0.00000000000E+00  0.00000000000E+00  0.85380485923E+02  0.85380485923E+02  0.00000000000E+00 0. -1.
         21   -1    0    0  503  504 -0.00000000000E+00 -0.00000000000E+00 -0.19752942656E+03  0.19752942656E+03  0.00000000000E+00 0. -1.
         25    2    1    2    0    0  0.13005423710E+02  0.45041323163E+01 -0.91349916651E+02  0.15544352509E+03  0.12501381510E+03 0.  0.
         25    2    1    2    0    0 -0.13005423710E+02 -0.45041323163E+01 -0.20799023982E+02  0.12746638739E+03  0.12500260902E+03 0.  0.
          5    1    3    3  501    0 -0.19375008702E+02  0.57048039946E+02 -0.63206427266E+02  0.87447197048E+02  0.47000000000E+01 0. -1.
         -5    1    3    3    0  501  0.32380432412E+02 -0.52543907630E+02 -0.28143489385E+02  0.67996328040E+02  0.47000000000E+01 0. -1.
          5    1    4    4  502    0 -0.14275535256E+02  0.28777327220E+02  0.43867959328E+02  0.54574841497E+02  0.47000000000E+01 0.  1.
         -5    1    4    4    0  502  0.12701115460E+01 -0.33281459537E+02 -0.64666983310E+02  0.72891545893E+02  0.47000000000E+01 0.  1.
<mgrwt>
<rscale>  0 0.25973185E+03</rscale>
<asrwt>0</asrwt>
<pdfrwt beam="1">  1       21 0.13135460E-01 0.25973185E+03</pdfrwt>
<pdfrwt beam="2">  1       21 0.30389142E-01 0.25973185E+03</pdfrwt>
<totfact> 0.51183349E+05</totfact>
</mgrwt>
</event>
<event>
 8    1  0.9569852E-006  0.5208867E+03  0.7546771E-02  0.1008467E+00
         21   -1    0    0  504  503  0.00000000000E+00  0.00000000000E+00  0.29834875850E+03  0.29834875850E+03  0.00000000000E+00 0.  1.
         21   -1    0    0  503  504 -0.00000000000E+00 -0.00000000000E+00 -0.22735381017E+03  0.22735381017E+03  0.00000000000E+00 0.  1.
         25    2    1    2    0    0 -0.20360005662E+03  0.99454697572E+02  0.58790087328E+01  0.25885303008E+03  0.12500443397E+03 0.  0.
         25    2    1    2    0    0  0.20360005662E+03 -0.99454697572E+02  0.65115939592E+02  0.26684953860E+03  0.12499748292E+03 0.  0.
          5    1    3    3  501    0 -0.34108331614E+02  0.29343304233E+02  0.52738928626E+02  0.69483036645E+02  0.47000000000E+01 0. -1.
         -5    1    3    3    0  501 -0.16949172500E+03  0.70111393339E+02 -0.46859919893E+02  0.18936999343E+03  0.47000000000E+01 0. -1.
          5    1    4    4  502    0  0.25589446618E+01  0.20952073308E+02 -0.50083169190E+01  0.22197090171E+02  0.47000000000E+01 0.  1.
         -5    1    4    4    0  502  0.20104111195E+03 -0.12040677088E+03  0.70124256511E+02  0.24465244843E+03  0.47000000000E+01 0.  1.
<mgrwt>
<rscale>  0 0.52088666E+03</rscale>
<asrwt>0</asrwt>
<pdfrwt beam="1">  1       21 0.45899809E-01 0.52088666E+03</pdfrwt>
<pdfrwt beam="2">  1       21 0.34977509E-01 0.52088666E+03</pdfrwt>
<totfact> 0.32244490E+04</totfact>
</mgrwt>
</event>
<event>
 8    1  0.9569852E-006  0.2946373E+03  0.7546771E-02  0.1087953E+00
         21   -1    0    0  504  503  0.00000000000E+00  0.00000000000E+00  0.10911110577E+03  0.10911110577E+03  0.00000000000E+00 0.  1.
         21   -1    0    0  503  504 -0.00000000000E+00 -0.00000000000E+00 -0.19890531821E+03  0.19890531821E+03  0.00000000000E+00 0.  1.
         25    2    1    2    0    0  0.52544642508E+02  0.23733982405E+01  0.15278211090E+02  0.13646104354E+03  0.12498648005E+03 0.  0.
         25    2    1    2    0    0 -0.52544642508E+02 -0.23733982405E+01 -0.10507242353E+03  0.17155538044E+03  0.12499784757E+03 0.  0.
          5    1    3    3  501    0  0.48136767604E+02  0.59564207961E+02 -0.70256492103E+00  0.76730872945E+02  0.47000000000E+01 0. -1.
         -5    1    3    3    0  501  0.44078749047E+01 -0.57190809721E+02  0.15980776011E+02  0.59730170597E+02  0.47000000000E+01 0. -1.
          5    1    4    4  502    0 -0.81787538144E+02 -0.36845614091E+02 -0.75404504737E+02  0.11728056108E+03  0.47000000000E+01 0.  1.
         -5    1    4    4    0  502  0.29242895636E+02  0.34472215851E+02 -0.29667918792E+02  0.54274819358E+02  0.47000000000E+01 0.  1.
<mgrwt>
<rscale>  0 0.29463726E+03</rscale>
<asrwt>0</asrwt>
<pdfrwt beam="1">  1       21 0.16786324E-01 0.29463726E+03</pdfrwt>
<pdfrwt beam="2">  1       21 0.30600818E-01 0.29463726E+03</pdfrwt>
<totfact> 0.31989600E+05</totfact>
</mgrwt>
</event>
<event>
 8    1  0.9569852E-006  0.2721944E+03  0.7546771E-02  0.1100030E+00
         21   -1    0    0  504  503  0.00000000000E+00  0.00000000000E+00  0.95168569034E+02  0.95168569034E+02  0.00000000000E+00 0.  1.
         21   -1    0    0  503  504 -0.00000000000E+00 -0.00000000000E+00 -0.19462779704E+03  0.19462779704E+03  0.00000000000E+00 0.  1.
         25    2    1    2    0    0 -0.43236632158E+01 -0.53492350317E+02 -0.53960958768E+02  0.14635662096E+03  0.12501339857E+03 0.  0.
         25    2    1    2    0    0  0.43236632158E+01  0.53492350317E+02 -0.45498269235E+02  0.14343974511E+03  0.12499896947E+03 0.  0.
          5    1    3    3  501    0 -0.50240552156E+01 -0.26624606943E+02  0.39985202371E+02  0.48528519804E+02  0.47000000000E+01 0. -1.
         -5    1    3    3    0  501  0.70039199972E+00 -0.26867743373E+02 -0.93946161139E+02  0.97828101156E+02  0.47000000000E+01 0. -1.
          5    1    4    4  502    0 -0.66525314885E+01  0.92037113764E+02 -0.45714698958E+02  0.10308739101E+03  0.47000000000E+01 0. -1.
         -5    1    4    4    0  502  0.10976194704E+02 -0.38544763447E+02  0.21642972249E+00  0.40352354098E+02  0.47000000000E+01 0. -1.
<mgrwt>
<rscale>  0 0.27219441E+03</rscale>
<asrwt>0</asrwt>
<pdfrwt beam="1">  1       21 0.14641318E-01 0.27219441E+03</pdfrwt>
<pdfrwt beam="2">  1       21 0.29942738E-01 0.27219441E+03</pdfrwt>
<totfact> 0.43139925E+05</totfact>
</mgrwt>
</event>
<event>
 8    1  0.9569852E-006  0.2729564E+03  0.7546771E-02  0.1099599E+00
         21   -1    0    0  504  503  0.00000000000E+00  0.00000000000E+00  0.94322401370E+02  0.94322401370E+02  0.00000000000E+00 0. -1.
         21   -1    0    0  503  504 -0.00000000000E+00 -0.00000000000E+00 -0.19747475139E+03  0.19747475139E+03  0.00000000000E+00 0. -1.
         25    2    1    2    0    0  0.49545348894E+02  0.21280475186E+02 -0.62007466947E+02  0.14959999730E+03  0.12501053161E+03 0.  0.
         25    2    1    2    0    0 -0.49545348894E+02 -0.21280475186E+02 -0.41144883069E+02  0.14219715546E+03  0.12497811567E+03 0.  0.
          5    1    3    3  501    0  0.74305105039E+01  0.67038987440E+02 -0.99076891641E+01  0.68335134652E+02  0.47000000000E+01 0.  1.
         -5    1    3    3    0  501  0.42114838390E+02 -0.45758512254E+02 -0.52099777783E+02  0.81264862649E+02  0.47000000000E+01 0.  1.
          5    1    4    4  502    0  0.16349225342E+02  0.37502541884E+02 -0.34139520213E+02  0.53491444713E+02  0.47000000000E+01 0.  1.
         -5    1    4    4    0  502 -0.65894574236E+02 -0.58783017070E+02 -0.70053628563E+01  0.88705710743E+02  0.47000000000E+01 0.  1.
<mgrwt>
<rscale>  0 0.27295635E+03</rscale>
<asrwt>0</asrwt>
<pdfrwt beam="1">  1       21 0.14511139E-01 0.27295635E+03</pdfrwt>
<pdfrwt beam="2">  1       21 0.30380731E-01 0.27295635E+03</pdfrwt>
<totfact> 0.42611028E+05</totfact>
</mgrwt>
</event>
<event>
 8    1  0.9569852E-006  0.1056917E+04  0.7546771E-02  0.9248231E-01
         21   -1    0    0  504  503  0.00000000000E+00  0.00000000000E+00  0.13346392664E+04  0.13346392664E+04  0.00000000000E+00 0.  1.
         21   -1    0    0  503  504 -0.00000000000E+00 -0.00000000000E+00 -0.20924653415E+03  0.20924653415E+03  0.00000000000E+00 0.  1.
         25    2    1    2    0    0  0.38436025091E+03  0.29248628371E+03  0.81722501061E+03  0.95747781397E+03  0.12500407056E+03 0.  0.
         25    2    1    2    0    0 -0.38436025091E+03 -0.29248628371E+03  0.30816772162E+03  0.58640798655E+03  0.12500381355E+03 0.  0.
          5    1    3    3  501    0  0.37815263059E+02  0.85289725998E+02  0.18620300638E+03  0.20832182091E+03  0.47000000000E+01 0.  1.
         -5    1    3    3    0  501  0.34654498785E+03  0.20719655772E+03  0.63102200423E+03  0.74915599307E+03  0.47000000000E+01 0.  1.
          5    1    4    4  502    0 -0.38185484549E+03 -0.28316120598E+03  0.31790789425E+03  0.57190987999E+03  0.47000000000E+01 0.  1.
         -5    1    4    4    0  502 -0.25054054132E+01 -0.93250777311E+01 -0.97401726310E+01  0.14498106561E+02  0.47000000000E+01 0.  1.
<mgrwt>
<rscale>  0 0.10569175E+04</rscale>
<asrwt>0</asrwt>
<pdfrwt beam="1">  1       21 0.20532911E+00 0.10569175E+04</pdfrwt>
<pdfrwt beam="2">  1       21 0.32191775E-01 0.10569175E+04</pdfrwt>
<totfact> 0.80692380E+02</totfact>
</mgrwt>
</event>
<event>
 8    1  0.9569852E-006  0.3151576E+03  0.7546771E-02  0.1077900E+00
         21   -1    0    0  504  503  0.00000000000E+00  0.00000000000E+00  0.27467679694E+02  0.27467679694E+02  0.00000000000E+00 0.  1.
         21   -1    0    0  503  504 -0.00000000000E+00 -0.00000000000E+00 -0.90401058630E+03  0.90401058630E+03  0.00000000000E+00 0.  1.
         25    2    1    2    0    0  0.86556132810E+02  0.81987357958E+01 -0.55825410859E+03  0.57864516391E+03  0.12499357010E+03 0.  0.
         25    2    1    2    0    0 -0.86556132810E+02 -0.81987357958E+01 -0.31828879801E+03  0.35283310208E+03  0.12499702231E+03 0.  0.
          5    1    3    3  501    0  0.20027485730E+02 -0.23154510646E+02 -0.23609507905E+02  0.38945223217E+02  0.47000000000E+01 0. -1.
         -5    1    3    3    0  501  0.66528647080E+02  0.31353246442E+02 -0.53464460069E+03  0.53969994070E+03  0.47000000000E+01 0. -1.
          5    1    4    4  502    0 -0.66274353934E+01  0.30120212987E+02 -0.21232104561E+03  0.21460071421E+03  0.47000000000E+01 0. -1.
         -5    1    4    4    0  502 -0.79928697417E+02 -0.38318948783E+02 -0.10596775240E+03  0.13823238787E+03  0.47000000000E+01 0. -1.
<mgrwt>
<rscale>  0 0.31515757E+03</rscale>
<asrwt>0</asrwt>
<pdfrwt beam="1">  1       21 0.42257974E-02 0.31515757E+03</pdfrwt>
<pdfrwt beam="2">  1       21 0.13907853E+00 0.31515757E+03</pdfrwt>
<totfact> 0.12434837E+05</totfact>
</mgrwt>
</event>
<event>
 8    1  0.9569852E-006  0.2642639E+03  0.7546771E-02  0.1104608E+00
         21   -1    0    0  504  503  0.00000000000E+00  0.00000000000E+00  0.99047901356E+03  0.99047901356E+03  0.00000000000E+00 0.  1.
         21   -1    0    0  503  504 -0.00000000000E+00 -0.00000000000E+00 -0.17626680145E+02  0.17626680145E+02  0.00000000000E+00 0.  1.
         25    2    1    2    0    0 -0.41479458347E+01  0.38145503426E+02  0.55897193949E+03  0.57406232715E+03  0.12500256567E+03 0.  0.
         25    2    1    2    0    0  0.41479458347E+01 -0.38145503426E+02  0.41388039392E+03  0.43404336656E+03  0.12499751475E+03 0.  0.
          5    1    3    3  501    0 -0.57844593660E+02  0.26331240821E+02  0.41523522568E+03  0.42009726719E+03  0.47000000000E+01 0. -1.
         -5    1    3    3    0  501  0.53696647825E+02  0.11814262605E+02  0.14373671382E+03  0.15396505996E+03  0.47000000000E+01 0. -1.
          5    1    4    4  502    0 -0.82589748232E+00  0.94437031106E+01 -0.54938422460E+01  0.11922161621E+02  0.47000000000E+01 0. -1.
         -5    1    4    4    0  502  0.49738433170E+01 -0.47589206536E+02  0.41937423617E+03  0.42212120494E+03  0.47000000000E+01 0. -1.
<mgrwt>
<rscale>  0 0.26426393E+03</rscale>
<asrwt>0</asrwt>
<pdfrwt beam="1">  1       21 0.15238134E+00 0.26426393E+03</pdfrwt>
<pdfrwt beam="2">  1       21 0.27117977E-02 0.26426393E+03</pdfrwt>
<totfact> 0.20873454E+05</totfact>
</mgrwt>
</event>
<event>
 8    1  0.9569852E-006  0.2566495E+03  0.7546771E-02  0.1109173E+00
         21   -1    0    0  504  503  0.00000000000E+00  0.00000000000E+00  0.41674321488E+03  0.41674321488E+03  0.00000000000E+00 0.  1.
         21   -1    0    0  503  504 -0.00000000000E+00 -0.00000000000E+00 -0.39514111071E+02  0.39514111071E+02  0.00000000000E+00 0.  1.
         25    2    1    2    0    0  0.16610667466E+02 -0.95060204981E+01  0.14986261675E+03  0.19608898436E+03  0.12500322872E+03 0.  0.
         25    2    1    2    0    0 -0.16610667466E+02  0.95060204981E+01  0.22736648706E+03  0.26016834159E+03  0.12500307127E+03 0.  0.
          5    1    3    3  501    0  0.57161420670E+02  0.33322104456E+02  0.67096573624E+02  0.94349514310E+02  0.47000000000E+01 0.  1.
         -5    1    3    3    0  501 -0.40550753204E+02 -0.42828124954E+02  0.82766043122E+02  0.10173947005E+03  0.47000000000E+01 0.  1.
          5    1    4    4  502    0 -0.25630207983E+02 -0.49544919483E+02  0.16245020707E+03  0.17182481306E+03  0.47000000000E+01 0.  1.
         -5    1    4    4    0  502  0.90195405170E+01  0.59050939981E+02  0.64916279995E+02  0.88343528525E+02  0.47000000000E+01 0.  1.
<mgrwt>
<rscale>  0 0.25664947E+03</rscale>
<asrwt>0</asrwt>
<pdfrwt beam="1">  1       21 0.64114338E-01 0.25664947E+03</pdfrwt>
<pdfrwt beam="2">  1       21 0.60790943E-02 0.25664947E+03</pdfrwt>
<totfact> 0.42675679E+05</totfact>
</mgrwt>
</event>
<event>
 8    1  0.9569852E-006  0.2745893E+03  0.7546771E-02  0.1098681E+00
         21   -1    0    0  504  503  0.00000000000E+00  0.00000000000E+00  0.77050749192E+02  0.77050749192E+02  0.00000000000E+00 0.  1.
         21   -1    0    0  503  504 -0.00000000000E+00 -0.00000000000E+00 -0.24464165259E+03  0.24464165259E+03  0.00000000000E+00 0.  1.
         25    2    1    2    0    0 -0.50840847607E+02  0.11738794333E+02 -0.57502328082E+02  0.14714409307E+03  0.12498910078E+03 0.  0.
         25    2    1    2    0    0  0.50840847607E+02 -0.11738794333E+02 -0.11008857531E+03  0.17454830870E+03  0.12500010632E+03 0.  0.
          5    1    3    3  501    0  0.20707086976E+02  0.39789875238E+02 -0.53601264071E+02  0.70051432052E+02  0.47000000000E+01 0.  1.
         -5    1    3    3    0  501 -0.71547934583E+02 -0.28051080905E+02 -0.39010640106E+01  0.77092661022E+02  0.47000000000E+01 0.  1.
          5    1    4    4  502    0 -0.23471592811E+02 -0.13162533220E+02  0.13333067659E+02  0.30397839447E+02  0.47000000000E+01 0. -1.
         -5    1    4    4    0  502  0.74312440418E+02  0.14237388866E+01 -0.12342164297E+03  0.14415046926E+03  0.47000000000E+01 0. -1.
<mgrwt>
<rscale>  0 0.27458931E+03</rscale>
<asrwt>0</asrwt>
<pdfrwt beam="1">  1       21 0.11853961E-01 0.27458931E+03</pdfrwt>
<pdfrwt beam="2">  1       21 0.37637177E-01 0.27458931E+03</pdfrwt>
<totfact> 0.40131070E+05</totfact>
</mgrwt>
</event>
<event>
 8    1  0.9569852E-006  0.3877020E+03  0.7546771E-02  0.1048123E+00
         21   -1    0    0  504  503  0.00000000000E+00  0.00000000000E+00  0.72771610899E+03  0.72771610899E+03  0.00000000000E+00 0.  1.
         21   -1    0    0  503  504 -0.00000000000E+00 -0.00000000000E+00 -0.51638559686E+02  0.51638559686E+02  0.00000000000E+00 0.  1.
         25    2    1    2    0    0  0.95198823983E+02 -0.11217516077E+03  0.37327385817E+03  0.42024348067E+03  0.12500050827E+03 0.  0.
         25    2    1    2    0    0 -0.95198823983E+02  0.11217516077E+03  0.30280369113E+03  0.35911118801E+03  0.12499874883E+03 0.  0.
          5    1    3    3  501    0  0.49660808753E+02 -0.26180651622E+02  0.30847186771E+02  0.64228197678E+02  0.47000000000E+01 0. -1.
         -5    1    3    3    0  501  0.45538015231E+02 -0.85994509147E+02  0.34242667140E+03  0.35601528299E+03  0.47000000000E+01 0. -1.
          5    1    4    4  502    0 -0.94683813082E+02  0.13615825823E+03  0.24042299948E+03  0.29211197240E+03  0.47000000000E+01 0.  1.
         -5    1    4    4    0  502 -0.51501090129E+00 -0.23983097464E+02  0.62380691654E+02  0.66999215603E+02  0.47000000000E+01 0.  1.
<mgrwt>
<rscale>  0 0.38770201E+03</rscale>
<asrwt>0</asrwt>
<pdfrwt beam="1">  1       21 0.11195632E+00 0.38770201E+03</pdfrwt>
<pdfrwt beam="2">  1       21 0.79443943E-02 0.38770201E+03</pdfrwt>
<totfact> 0.71023504E+04</totfact>
</mgrwt>
</event>
<event>
 8    1  0.9569852E-006  0.4048425E+03  0.7546771E-02  0.1042116E+00
         21   -1    0    0  504  503  0.00000000000E+00  0.00000000000E+00  0.17847443275E+03  0.17847443275E+03  0.00000000000E+00 0.  1.
         21   -1    0    0  503  504 -0.00000000000E+00 -0.00000000000E+00 -0.22958110438E+03  0.22958110438E+03  0.00000000000E+00 0.  1.
         25    2    1    2    0    0 -0.11738959668E+03  0.10240419527E+03 -0.58667673231E+02  0.20818348482E+03  0.12502612068E+03 0.  0.
         25    2    1    2    0    0  0.11738959668E+03 -0.10240419527E+03  0.75610016081E+01  0.19987205231E+03  0.12499892773E+03 0.  0.
          5    1    3    3  501    0  0.18277258427E+02  0.24266670952E+02  0.16011506447E+02  0.34661042013E+02  0.47000000000E+01 0. -1.
         -5    1    3    3    0  501 -0.13566685510E+03  0.78137524315E+02 -0.74679179678E+02  0.17352244281E+03  0.47000000000E+01 0. -1.
          5    1    4    4  502    0  0.14140914721E+03 -0.83974419226E+02  0.22012794158E+02  0.16599669607E+03  0.47000000000E+01 0. -1.
         -5    1    4    4    0  502 -0.24019550532E+02 -0.18429776041E+02 -0.14451792550E+02  0.33875356243E+02  0.47000000000E+01 0. -1.
<mgrwt>
<rscale>  0 0.40484247E+03</rscale>
<asrwt>0</asrwt>
<pdfrwt beam="1">  1       21 0.27457605E-01 0.40484247E+03</pdfrwt>
<pdfrwt beam="2">  1       21 0.35320170E-01 0.40484247E+03</pdfrwt>
<totfact> 0.91929335E+04</totfact>
</mgrwt>
</event>
<event>
 8    1  0.9569852E-006  0.3058276E+03  0.7546771E-02  0.1082363E+00
         21   -1    0    0  504  503  0.00000000000E+00  0.00000000000E+00  0.26052096967E+03  0.26052096967E+03  0.00000000000E+00 0.  1.
         21   -1    0    0  503  504 -0.00000000000E+00 -0.00000000000E+00 -0.89753343316E+02  0.89753343316E+02  0.00000000000E+00 0.  1.
         25    2    1    2    0    0  0.71023293630E+02  0.15794820127E+02  0.14219878123E+03  0.20283362456E+03  0.12500880484E+03 0.  0.
         25    2    1    2    0    0 -0.71023293630E+02 -0.15794820127E+02  0.28568845124E+02  0.14744068842E+03  0.12501517152E+03 0.  0.
          5    1    3    3  501    0  0.37265478707E+02  0.62446462493E+02  0.12108209820E+03  0.14131964155E+03  0.47000000000E+01 0.  1.
         -5    1    3    3    0  501  0.33757814923E+02 -0.46651642367E+02  0.21116683021E+02  0.61513983009E+02  0.47000000000E+01 0.  1.
          5    1    4    4  502    0  0.82195349976E+01  0.24410943352E+02  0.49527521968E+02  0.56022498545E+02  0.47000000000E+01 0. -1.
         -5    1    4    4    0  502 -0.79242828628E+02 -0.40205763479E+02 -0.20958676844E+02  0.91418189880E+02  0.47000000000E+01 0. -1.
<mgrwt>
<rscale>  0 0.30582759E+03</rscale>
<asrwt>0</asrwt>
<pdfrwt beam="1">  1       21 0.40080149E-01 0.30582759E+03</pdfrwt>
<pdfrwt beam="2">  1       21 0.13808207E-01 0.30582759E+03</pdfrwt>
<totfact> 0.26613577E+05</totfact>
</mgrwt>
</event>
<event>
 8    1  0.9569852E-006  0.2677675E+03  0.7546771E-02  0.1102564E+00
         21   -1    0    0  504  503  0.00000000000E+00  0.00000000000E+00  0.10150345024E+04  0.10150345024E+04  0.00000000000E+00 0.  1.
         21   -1    0    0  503  504 -0.00000000000E+00 -0.00000000000E+00 -0.17659355467E+02  0.17659355467E+02  0.00000000000E+00 0.  1.
         25    2    1    2    0    0  0.15065511646E+02  0.12346912229E+02  0.66769244204E+03  0.67957203838E+03  0.12500216921E+03 0.  0.
         25    2    1    2    0    0 -0.15065511646E+02 -0.12346912229E+02  0.32968270487E+03  0.35312181946E+03  0.12499967043E+03 0.  0.
          5    1    3    3  501    0 -0.41510939170E+02 -0.27093648186E+02  0.17131971681E+03  0.17840896617E+03  0.47000000000E+01 0.  1.
         -5    1    3    3    0  501  0.56576450816E+02  0.39440560415E+02  0.49637272523E+03  0.50116307221E+03  0.47000000000E+01 0.  1.
          5    1    4    4  502    0  0.15363556974E+02  0.10558387114E+02  0.30886645298E+03  0.30946420503E+03  0.47000000000E+01 0. -1.
         -5    1    4    4    0  502 -0.30429068620E+02 -0.22905299343E+02  0.20816251896E+02  0.43657614434E+02  0.47000000000E+01 0. -1.
<mgrwt>
<rscale>  0 0.26776747E+03</rscale>
<asrwt>0</asrwt>
<pdfrwt beam="1">  1       21 0.15615911E+00 0.26776747E+03</pdfrwt>
<pdfrwt beam="2">  1       21 0.27168247E-02 0.26776747E+03</pdfrwt>
<totfact> 0.19460084E+05</totfact>
</mgrwt>
</event>
<event>
 8    1  0.9569852E-006  0.3597820E+03  0.7546771E-02  0.1058670E+00
         21   -1    0    0  504  503  0.00000000000E+00  0.00000000000E+00  0.46874554709E+03  0.46874554709E+03  0.00000000000E+00 0. -1.
         21   -1    0    0  503  504 -0.00000000000E+00 -0.00000000000E+00 -0.69036963737E+02  0.69036963737E+02  0.00000000000E+00 0. -1.
         25    2    1    2    0    0  0.11058771735E+03  0.53600293772E+02  0.13946473362E+03  0.22400806265E+03  0.12500626178E+03 0.  0.
         25    2    1    2    0    0 -0.11058771735E+03 -0.53600293772E+02  0.26024384973E+03  0.31377444818E+03  0.12499963316E+03 0.  0.
          5    1    3    3  501    0  0.24993589077E+02  0.79514780133E+02  0.49430937071E+02  0.97019520171E+02  0.47000000000E+01 0. -1.
         -5    1    3    3    0  501  0.85594128270E+02 -0.25914486361E+02  0.90033796554E+02  0.12698854247E+03  0.47000000000E+01 0. -1.
          5    1    4    4  502    0 -0.81629844083E+02 -0.89500325694E+02  0.22484574322E+03  0.25544361019E+03  0.47000000000E+01 0.  1.
         -5    1    4    4    0  502 -0.28957873264E+02  0.35900031922E+02  0.35398106504E+02  0.58330837985E+02  0.47000000000E+01 0.  1.
<mgrwt>
<rscale>  0 0.35978199E+03</rscale>
<asrwt>0</asrwt>
<pdfrwt beam="1">  1       21 0.72114698E-01 0.35978199E+03</pdfrwt>
<pdfrwt beam="2">  1       21 0.10621072E-01 0.35978199E+03</pdfrwt>
<totfact> 0.12039638E+05</totfact>
</mgrwt>
</event>
<event>
 8    1  0.9569852E-006  0.2723242E+03  0.7546771E-02  0.1099957E+00
         21   -1    0    0  504  503  0.00000000000E+00  0.00000000000E+00  0.40046486414E+03  0.40046486414E+03  0.00000000000E+00 0.  1.
         21   -1    0    0  503  504 -0.00000000000E+00 -0.00000000000E+00 -0.46296478975E+02  0.46296478975E+02  0.00000000000E+00 0.  1.
         25    2    1    2    0    0 -0.13403350137E+02 -0.28690735912E+02  0.10535603928E+03  0.16651799966E+03  0.12500216429E+03 0.  0.
         25    2    1    2    0    0  0.13403350137E+02  0.28690735912E+02  0.24881234589E+03  0.28024334346E+03  0.12500375980E+03 0.  0.
          5    1    3    3  501    0  0.18939591274E+02 -0.71962970897E+02  0.56861673527E+02  0.93769489783E+02  0.47000000000E+01 0.  1.
         -5    1    3    3    0  501 -0.32342941410E+02  0.43272234984E+02  0.48494365748E+02  0.72748509874E+02  0.47000000000E+01 0.  1.
          5    1    4    4  502    0 -0.12182188984E+02  0.30772691395E+01 -0.11325378782E+02  0.17556466569E+02  0.47000000000E+01 0.  1.
         -5    1    4    4    0  502  0.25585539121E+02  0.25613466773E+02  0.26013772467E+03  0.26268687689E+03  0.47000000000E+01 0.  1.
<mgrwt>
<rscale>  0 0.27232417E+03</rscale>
<asrwt>0</asrwt>
<pdfrwt beam="1">  1       21 0.61609977E-01 0.27232417E+03</pdfrwt>
<pdfrwt beam="2">  1       21 0.71225355E-02 0.27232417E+03</pdfrwt>
<totfact> 0.35262143E+05</totfact>
</mgrwt>
</event>
<event>
 8    1  0.9569852E-006  0.3100374E+03  0.7546771E-02  0.1080328E+00
         21   -1    0    0  504  503  0.00000000000E+00  0.00000000000E+00  0.62850841065E+02  0.62850841065E+02  0.00000000000E+00 0.  1.
         21   -1    0    0  503  504 -0.00000000000E+00 -0.00000000000E+00 -0.38234638636E+03  0.38234638636E+03  0.00000000000E+00 0.  1.
         25    2    1    2    0    0 -0.49739437853E+02  0.50333693791E+02 -0.76047273988E+02  0.16253068977E+03  0.12500217928E+03 0.  0.
         25    2    1    2    0    0  0.49739437853E+02 -0.50333693791E+02 -0.24344827131E+03  0.28266653766E+03  0.12500327316E+03 0.  0.
          5    1    3    3  501    0 -0.89074358118E+02  0.51437594016E+02 -0.63450412575E+02  0.12094673294E+03  0.47000000000E+01 0. -1.
         -5    1    3    3    0  501  0.39334920265E+02 -0.11039002256E+01 -0.12596861413E+02  0.41583956827E+02  0.47000000000E+01 0. -1.
          5    1    4    4  502    0  0.80562585510E+02 -0.28563431943E+02 -0.22431913601E+03  0.24009865599E+03  0.47000000000E+01 0. -1.
         -5    1    4    4    0  502 -0.30823147657E+02 -0.21770261848E+02 -0.19129135293E+02  0.42567881665E+02  0.47000000000E+01 0. -1.
<mgrwt>
<rscale>  0 0.31003737E+03</rscale>
<asrwt>0</asrwt>
<pdfrwt beam="1">  1       21 0.96693600E-02 0.31003737E+03</pdfrwt>
<pdfrwt beam="2">  1       21 0.58822522E-01 0.31003737E+03</pdfrwt>
<totfact> 0.22579213E+05</totfact>
</mgrwt>
</event>
<event>
 8    1  0.9569852E-006  0.3243602E+03  0.7546771E-02  0.1073660E+00
         21   -1    0    0  504  503  0.00000000000E+00  0.00000000000E+00  0.46223420906E+02  0.46223420906E+02  0.00000000000E+00 0. -1.
         21   -1    0    0  503  504 -0.00000000000E+00 -0.00000000000E+00 -0.56902733323E+03  0.56902733323E+03  0.00000000000E+00 0. -1.
         25    2    1    2    0    0 -0.21341293810E+02  0.99272052708E+02 -0.22500567545E+03  0.27669655750E+03  0.12499215847E+03 0.  0.
         25    2    1    2    0    0  0.21341293810E+02 -0.99272052708E+02 -0.29779823687E+03  0.33855419663E+03  0.12499905161E+03 0.  0.
          5    1    3    3  501    0  0.17489049760E+02  0.86494894629E+02 -0.21763725131E+03  0.23489422474E+03  0.47000000000E+01 0. -1.
         -5    1    3    3    0  501 -0.38830343570E+02  0.12777158080E+02 -0.73684241436E+01  0.41802332766E+02  0.47000000000E+01 0. -1.
          5    1    4    4  502    0  0.70852217151E+01  0.15895737974E+02  0.92199002481E+00  0.18050343988E+02  0.47000000000E+01 0. -1.
         -5    1    4    4    0  502  0.14256072095E+02 -0.11516779068E+03 -0.29872022690E+03  0.32050385265E+03  0.47000000000E+01 0. -1.
<mgrwt>
<rscale>  0 0.32436023E+03</rscale>
<asrwt>0</asrwt>
<pdfrwt beam="1">  1       21 0.71112954E-02 0.32436023E+03</pdfrwt>
<pdfrwt beam="2">  1       21 0.87542668E-01 0.32436023E+03</pdfrwt>
<totfact> 0.15848255E+05</totfact>
</mgrwt>
</event>
<event>
 8    1  0.9569852E-006  0.2671555E+03  0.7546771E-02  0.1102919E+00
         21   -1    0    0  504  503  0.00000000000E+00  0.00000000000E+00  0.57871428910E+02  0.57871428910E+02  0.00000000000E+00 0. -1.
         21   -1    0    0  503  504 -0.00000000000E+00 -0.00000000000E+00 -0.30832168573E+03  0.30832168573E+03  0.00000000000E+00 0. -1.
         25    2    1    2    0    0  0.20350039406E+02  0.33630761590E+02 -0.89634728835E+02  0.15875267029E+03  0.12499149364E+03 0.  0.
         25    2    1    2    0    0 -0.20350039406E+02 -0.33630761590E+02 -0.16081552798E+03  0.20744044435E+03  0.12499900672E+03 0.  0.
          5    1    3    3  501    0  0.14347385811E+02  0.45423940465E+02 -0.11786962639E+03  0.12721839754E+03  0.47000000000E+01 0. -1.
         -5    1    3    3    0  501  0.60026535951E+01 -0.11793178875E+02  0.28234897554E+02  0.31534272753E+02  0.47000000000E+01 0. -1.
          5    1    4    4  502    0  0.15907706500E+01  0.15295867190E+02 -0.15205817836E+03  0.15290609442E+03  0.47000000000E+01 0.  1.
         -5    1    4    4    0  502 -0.21940810056E+02 -0.48926628780E+02 -0.87573496213E+01  0.54534349928E+02  0.47000000000E+01 0.  1.
<mgrwt>
<rscale>  0 0.26715551E+03</rscale>
<asrwt>0</asrwt>
<pdfrwt beam="1">  1       21 0.89032968E-02 0.26715551E+03</pdfrwt>
<pdfrwt beam="2">  1       21 0.47434105E-01 0.26715551E+03</pdfrwt>
<totfact> 0.41645755E+05</totfact>
</mgrwt>
</event>
<event>
 8    1  0.9569852E-006  0.2666957E+03  0.7546771E-02  0.1103186E+00
         21   -1    0    0  504  503  0.00000000000E+00  0.00000000000E+00  0.16106327764E+04  0.16106327764E+04  0.00000000000E+00 0.  1.
         21   -1    0    0  503  504 -0.00000000000E+00 -0.00000000000E+00 -0.11040165735E+02  0.11040165735E+02  0.00000000000E+00 0.  1.
         25    2    1    2    0    0  0.37658209287E+02  0.12686214873E+02  0.94587314245E+03  0.95492420223E+03  0.12500059845E+03 0.  0.
         25    2    1    2    0    0 -0.37658209287E+02 -0.12686214873E+02  0.65371946825E+03  0.66674873994E+03  0.12500263307E+03 0.  0.
          5    1    3    3  501    0 -0.45173552881E+02 -0.49583636080E+01  0.28698272625E+03  0.29059664557E+03  0.47000000000E+01 0. -1.
         -5    1    3    3    0  501  0.82831762168E+02  0.17644578481E+02  0.65889041620E+03  0.66432755666E+03  0.47000000000E+01 0. -1.
          5    1    4    4  502    0 -0.76278502169E+02 -0.13292749996E+02  0.55888204483E+03  0.56423960968E+03  0.47000000000E+01 0. -1.
         -5    1    4    4    0  502  0.38620292882E+02  0.60653512286E+00  0.94837423417E+02  0.10250913026E+03  0.47000000000E+01 0. -1.
<mgrwt>
<rscale>  0 0.26669573E+03</rscale>
<asrwt>0</asrwt>
<pdfrwt beam="1">  1       21 0.24778947E+00 0.26669573E+03</pdfrwt>
<pdfrwt beam="2">  1       21 0.16984883E-02 0.26669573E+03</pdfrwt>
<totfact> 0.10518161E+05</totfact>
</mgrwt>
</event>
<event>
 8    1  0.9569852E-006  0.4077208E+03  0.7546771E-02  0.1041139E+00
         21   -1    0    0  504  503  0.00000000000E+00  0.00000000000E+00  0.46672965619E+02  0.46672965619E+02  0.00000000000E+00 0. -1.
         21   -1    0    0  503  504 -0.00000000000E+00 -0.00000000000E+00 -0.89043105810E+03  0.89043105810E+03  0.00000000000E+00 0. -1.
         25    2    1    2    0    0 -0.13094586570E+03  0.59124822676E+02 -0.58909220024E+03  0.61911108721E+03  0.12500541396E+03 0.  0.
         25    2    1    2    0    0  0.13094586570E+03 -0.59124822676E+02 -0.25466589225E+03  0.31799293652E+03  0.12498890592E+03 0.  0.
          5    1    3    3  501    0 -0.16046481629E+02  0.71861482405E+02 -0.19969574848E+03  0.21288974656E+03  0.47000000000E+01 0. -1.
         -5    1    3    3    0  501 -0.11489938407E+03 -0.12736659728E+02 -0.38939645176E+03  0.40622134065E+03  0.47000000000E+01 0. -1.
          5    1    4    4  502    0  0.81369858968E+02 -0.92277304525E+02 -0.12634752047E+03  0.17641411737E+03  0.47000000000E+01 0.  1.
         -5    1    4    4    0  502  0.49576006728E+02  0.33152481849E+02 -0.12831837177E+03  0.14157881915E+03  0.47000000000E+01 0.  1.
<mgrwt>
<rscale>  0 0.40772078E+03</rscale>
<asrwt>0</asrwt>
<pdfrwt beam="1">  1       21 0.71804565E-02 0.40772078E+03</pdfrwt>
<pdfrwt beam="2">  1       21 0.13698939E+00 0.40772078E+03</pdfrwt>
<totfact> 0.50455197E+04</totfact>
</mgrwt>
</event>
<event>
 8    1  0.9569852E-006  0.3161285E+03  0.7546771E-02  0.1077445E+00
         21   -1    0    0  504  503  0.00000000000E+00  0.00000000000E+00  0.25403921386E+03  0.25403921386E+03  0.00000000000E+00 0.  1.
         21   -1    0    0  503  504 -0.00000000000E+00 -0.00000000000E+00 -0.98348213752E+02  0.98348213752E+02  0.00000000000E+00 0.  1.
         25    2    1    2    0    0 -0.34009448278E+02 -0.84362696246E+02  0.41078982497E+02  0.15994558109E+03  0.12498559524E+03 0.  0.
         25    2    1    2    0    0  0.34009448278E+02  0.84362696246E+02  0.11461201761E+03  0.19244184652E+03  0.12499697045E+03 0.  0.
          5    1    3    3  501    0 -0.20490360333E+02 -0.84925420696E+02  0.79951501256E+02  0.11851799231E+03  0.47000000000E+01 0. -1.
         -5    1    3    3    0  501 -0.13519087946E+02  0.56272444959E+00 -0.38872518760E+02  0.41427588783E+02  0.47000000000E+01 0. -1.
          5    1    4    4  502    0  0.69280325762E+02  0.29229898674E+02  0.21164792244E+02  0.78257197400E+02  0.47000000000E+01 0. -1.
         -5    1    4    4    0  502 -0.35270877483E+02  0.55132797572E+02  0.93447225368E+02  0.11418464912E+03  0.47000000000E+01 0. -1.
<mgrwt>
<rscale>  0 0.31612847E+03</rscale>
<asrwt>0</asrwt>
<pdfrwt beam="1">  1       21 0.39082956E-01 0.31612847E+03</pdfrwt>
<pdfrwt beam="2">  1       21 0.15130495E-01 0.31612847E+03</pdfrwt>
<totfact> 0.23639623E+05</totfact>
</mgrwt>
</event>
<event>
 8    1  0.9569852E-006  0.2840817E+03  0.7546771E-02  0.1093480E+00
         21   -1    0    0  504  503  0.00000000000E+00  0.00000000000E+00  0.16760862475E+03  0.16760862475E+03  0.00000000000E+00 0.  1.
         21   -1    0    0  503  504 -0.00000000000E+00 -0.00000000000E+00 -0.12037332849E+03  0.12037332849E+03  0.00000000000E+00 0.  1.
         25    2    1    2    0    0  0.53994996806E+02 -0.27405189209E+01 -0.17284949011E+02  0.13728356761E+03  0.12500015339E+03 0.  0.
         25    2    1    2    0    0 -0.53994996806E+02  0.27405189209E+01  0.64520245274E+02  0.15069838564E+03  0.12499668499E+03 0.  0.
          5    1    3    3  501    0  0.40300176867E+02  0.93905299923E+01 -0.69908233983E+02  0.81372830156E+02  0.47000000000E+01 0. -1.
         -5    1    3    3    0  501  0.13694819939E+02 -0.12131048913E+02  0.52623284972E+02  0.55910737450E+02  0.47000000000E+01 0. -1.
          5    1    4    4  502    0  0.34292803393E+02  0.82604419443E+00  0.50396798972E+02  0.61144141667E+02  0.47000000000E+01 0. -1.
         -5    1    4    4    0  502 -0.88287800199E+02  0.19144747265E+01  0.14123446301E+02  0.89554243969E+02  0.47000000000E+01 0. -1.
<mgrwt>
<rscale>  0 0.28408174E+03</rscale>
<asrwt>0</asrwt>
<pdfrwt beam="1">  1       21 0.25785942E-01 0.28408174E+03</pdfrwt>
<pdfrwt beam="2">  1       21 0.18518974E-01 0.28408174E+03</pdfrwt>
<totfact> 0.37290727E+05</totfact>
</mgrwt>
</event>
<event>
 8    1  0.9569852E-006  0.3560656E+03  0.7546771E-02  0.1060153E+00
         21   -1    0    0  504  503  0.00000000000E+00  0.00000000000E+00  0.62868328555E+03  0.62868328555E+03  0.00000000000E+00 0. -1.
         21   -1    0    0  503  504 -0.00000000000E+00 -0.00000000000E+00 -0.50415967324E+02  0.50415967324E+02  0.00000000000E+00 0. -1.
         25    2    1    2    0    0  0.35145646002E+02 -0.96122248426E+02  0.14646842895E+03  0.21806330882E+03  0.12499561153E+03 0.  0.
         25    2    1    2    0    0 -0.35145646002E+02  0.96122248426E+02  0.43179888928E+03  0.46103594406E+03  0.12501663029E+03 0.  0.
          5    1    3    3  501    0  0.14895592953E+02 -0.45370462567E+02  0.15527174543E+03  0.16251696063E+03  0.47000000000E+01 0. -1.
         -5    1    3    3    0  501  0.20250053049E+02 -0.50751785859E+02 -0.88033164849E+01  0.55546348192E+02  0.47000000000E+01 0. -1.
          5    1    4    4  502    0 -0.31025740884E+02  0.10641022745E+02  0.31188617752E+03  0.31364136477E+03  0.47000000000E+01 0. -1.
         -5    1    4    4    0  502 -0.41199051176E+01  0.85481225681E+02  0.11991271176E+03  0.14739457929E+03  0.47000000000E+01 0. -1.
<mgrwt>
<rscale>  0 0.35606559E+03</rscale>
<asrwt>0</asrwt>
<pdfrwt beam="1">  1       21 0.96720500E-01 0.35606559E+03</pdfrwt>
<pdfrwt beam="2">  1       21 0.77563031E-02 0.35606559E+03</pdfrwt>
<totfact> 0.10670766E+05</totfact>
</mgrwt>
</event>
<event>
 8    1  0.9569852E-006  0.3244636E+03  0.7546771E-02  0.1073613E+00
         21   -1    0    0  504  503  0.00000000000E+00  0.00000000000E+00  0.41323549066E+02  0.41323549066E+02  0.00000000000E+00 0.  1.
         21   -1    0    0  503  504 -0.00000000000E+00 -0.00000000000E+00 -0.63690453324E+03  0.63690453324E+03  0.00000000000E+00 0.  1.
         25    2    1    2    0    0  0.76718919833E+02 -0.30621254482E+02 -0.16772581962E+03  0.22489977490E+03  0.12499801717E+03 0.  0.
         25    2    1    2    0    0 -0.76718919833E+02  0.30621254482E+02 -0.42785516455E+03  0.45332830741E+03  0.12499223407E+03 0.  0.
          5    1    3    3  501    0 -0.92778967244E+01 -0.35180663150E+02 -0.43809605743E+00  0.36688422636E+02  0.47000000000E+01 0. -1.
         -5    1    3    3    0  501  0.85996816557E+02  0.45594086682E+01 -0.16728772357E+03  0.18821135227E+03  0.47000000000E+01 0. -1.
          5    1    4    4  502    0  0.29621614819E+02  0.29706346546E+01 -0.39402506571E+02  0.49607582674E+02  0.47000000000E+01 0.  1.
         -5    1    4    4    0  502 -0.10634053465E+03  0.27650619828E+02 -0.38845265798E+03  0.40372072473E+03  0.47000000000E+01 0.  1.
<mgrwt>
<rscale>  0 0.32446359E+03</rscale>
<asrwt>0</asrwt>
<pdfrwt beam="1">  1       21 0.63574691E-02 0.32446359E+03</pdfrwt>
<pdfrwt beam="2">  1       21 0.97985312E-01 0.32446359E+03</pdfrwt>
<totfact> 0.14761398E+05</totfact>
</mgrwt>
</event>
<event>
 8    1  0.9569852E-006  0.2723912E+03  0.7546771E-02  0.1099919E+00
         21   -1    0    0  504  503  0.00000000000E+00  0.00000000000E+00  0.42444040342E+02  0.42444040342E+02  0.00000000000E+00 0.  1.
         21   -1    0    0  503  504 -0.00000000000E+00 -0.00000000000E+00 -0.43702824445E+03  0.43702824445E+03  0.00000000000E+00 0.  1.
         25    2    1    2    0    0 -0.43142810841E+02 -0.39422760278E+01 -0.25427127234E+03  0.28662876787E+03  0.12500130784E+03 0.  0.
         25    2    1    2    0    0  0.43142810841E+02  0.39422760278E+01 -0.14031293176E+03  0.19284351692E+03  0.12499623807E+03 0.  0.
          5    1    3    3  501    0 -0.42732452760E+02 -0.18913130512E+02 -0.26401089496E+03  0.26815594657E+03  0.47000000000E+01 0.  1.
         -5    1    3    3    0  501 -0.41035808141E+00  0.14970854484E+02  0.97396226190E+01  0.18472821292E+02  0.47000000000E+01 0.  1.
          5    1    4    4  502    0  0.64513839223E+02  0.49683298009E+02 -0.84799008843E+02  0.11765809557E+03  0.47000000000E+01 0.  1.
         -5    1    4    4    0  502 -0.21371028382E+02 -0.45741021982E+02 -0.55513922918E+02  0.75185421352E+02  0.47000000000E+01 0.  1.
<mgrwt>
<rscale>  0 0.27239122E+03</rscale>
<asrwt>0</asrwt>
<pdfrwt beam="1">  1       21 0.65298525E-02 0.27239122E+03</pdfrwt>
<pdfrwt beam="2">  1       21 0.67235113E-01 0.27239122E+03</pdfrwt>
<totfact> 0.33860390E+05</totfact>
</mgrwt>
</event>
<event>
 8    1  0.9569852E-006  0.3032493E+03  0.7546771E-02  0.1083628E+00
         21   -1    0    0  504  503  0.00000000000E+00  0.00000000000E+00  0.42017989152E+02  0.42017989152E+02  0.00000000000E+00 0. -1.
         21   -1    0    0  503  504 -0.00000000000E+00 -0.00000000000E+00 -0.54714740740E+03  0.54714740740E+03  0.00000000000E+00 0. -1.
         25    2    1    2    0    0 -0.30074065920E+02 -0.76931707876E+02 -0.20733100307E+03  0.25580118814E+03  0.12500066361E+03 0.  0.
         25    2    1    2    0    0  0.30074065920E+02  0.76931707876E+02 -0.29779841518E+03  0.33336420841E+03  0.12499944899E+03 0.  0.
          5    1    3    3  501    0  0.35051930184E+02 -0.39339455710E+02 -0.24985258649E+02  0.58502852365E+02  0.47000000000E+01 0.  1.
         -5    1    3    3    0  501 -0.65125996104E+02 -0.37592252167E+02 -0.18234574442E+03  0.19729833577E+03  0.47000000000E+01 0.  1.
          5    1    4    4  502    0  0.69996644717E+02  0.57213743478E+02 -0.12178457596E+03  0.15174490323E+03  0.47000000000E+01 0. -1.
         -5    1    4    4    0  502 -0.39922578797E+02  0.19717964398E+02 -0.17601383922E+03  0.18161930518E+03  0.47000000000E+01 0. -1.
<mgrwt>
<rscale>  0 0.30324930E+03</rscale>
<asrwt>0</asrwt>
<pdfrwt beam="1">  1       21 0.64643059E-02 0.30324930E+03</pdfrwt>
<pdfrwt beam="2">  1       21 0.84176526E-01 0.30324930E+03</pdfrwt>
<totfact> 0.20601158E+05</totfact>
</mgrwt>
</event>
<event>
 8    1  0.9569852E-006  0.2596159E+03  0.7546771E-02  0.1107374E+00
         21   -1    0    0  504  503  0.00000000000E+00  0.00000000000E+00  0.73580168641E+02  0.73580168641E+02  0.00000000000E+00 0.  1.
         21   -1    0    0  503  504 -0.00000000000E+00 -0.00000000000E+00 -0.22900336438E+03  0.22900336438E+03  0.00000000000E+00 0.  1.
         25    2    1    2    0    0  0.86224569765E+00 -0.11701497264E+02 -0.11613472572E+03  0.17102989390E+03  0.12500512623E+03 0.  0.
         25    2    1    2    0    0 -0.86224569765E+00  0.11701497264E+02 -0.39288470016E+02  0.13155363912E+03  0.12500043033E+03 0.  0.
          5    1    3    3  501    0 -0.25400020903E+02 -0.87006805848E+01  0.19018171594E+02  0.33236181419E+02  0.47000000000E+01 0.  1.
         -5    1    3    3    0  501  0.26262266601E+02 -0.30008166797E+01 -0.13515289731E+03  0.13779371248E+03  0.47000000000E+01 0.  1.
          5    1    4    4  502    0  0.41880436707E+02  0.44347052460E+02 -0.46825966023E+02  0.77041502676E+02  0.47000000000E+01 0.  1.
         -5    1    4    4    0  502 -0.42742682405E+02 -0.32645555195E+02  0.75374960064E+01  0.54512136440E+02  0.47000000000E+01 0.  1.
<mgrwt>
<rscale>  0 0.25961592E+03</rscale>
<asrwt>0</asrwt>
<pdfrwt beam="1">  1       21 0.11320026E-01 0.25961592E+03</pdfrwt>
<pdfrwt beam="2">  1       21 0.35231286E-01 0.25961592E+03</pdfrwt>
<totfact> 0.49924194E+05</totfact>
</mgrwt>
</event>
<event>
 8    1  0.9569852E-006  0.3220846E+03  0.7546771E-02  0.1074694E+00
         21   -1    0    0  504  503  0.00000000000E+00  0.00000000000E+00  0.30772530263E+02  0.30772530263E+02  0.00000000000E+00 0.  1.
         21   -1    0    0  503  504 -0.00000000000E+00 -0.00000000000E+00 -0.84278506284E+03  0.84278506284E+03  0.00000000000E+00 0.  1.
         25    2    1    2    0    0 -0.36576610600E+02 -0.14407824504E+02 -0.15210105661E+03  0.20076252436E+03  0.12500170365E+03 0.  0.
         25    2    1    2    0    0  0.36576610600E+02  0.14407824504E+02 -0.65991147596E+03  0.67279506874E+03  0.12499845825E+03 0.  0.
          5    1    3    3  501    0  0.13141489265E+02 -0.61080152744E+02 -0.74856990322E+02  0.97617328377E+02  0.47000000000E+01 0.  1.
         -5    1    3    3    0  501 -0.49718099865E+02  0.46672328239E+02 -0.77244066290E+02  0.10314519598E+03  0.47000000000E+01 0.  1.
          5    1    4    4  502    0 -0.37229152195E+02  0.27189982721E+02 -0.13939665394E+03  0.14689731809E+03  0.47000000000E+01 0. -1.
         -5    1    4    4    0  502  0.73805762794E+02 -0.12782158216E+02 -0.52051482203E+03  0.52589775065E+03  0.47000000000E+01 0. -1.
<mgrwt>
<rscale>  0 0.32208464E+03</rscale>
<asrwt>0</asrwt>
<pdfrwt beam="1">  1       21 0.47342349E-02 0.32208464E+03</pdfrwt>
<pdfrwt beam="2">  1       21 0.12965926E+00 0.32208464E+03</pdfrwt>
<totfact> 0.12262326E+05</totfact>
</mgrwt>
</event>
<event>
 8    1  0.9569852E-006  0.3771843E+03  0.7546771E-02  0.1051979E+00
         21   -1    0    0  504  503  0.00000000000E+00  0.00000000000E+00  0.39049559704E+02  0.39049559704E+02  0.00000000000E+00 0. -1.
         21   -1    0    0  503  504 -0.00000000000E+00 -0.00000000000E+00 -0.91081706853E+03  0.91081706853E+03  0.00000000000E+00 0. -1.
         25    2    1    2    0    0 -0.12774598359E+03  0.15950365397E+02 -0.58191130773E+03  0.60894994390E+03  0.12500325451E+03 0.  0.
         25    2    1    2    0    0  0.12774598359E+03 -0.15950365397E+02 -0.28985620109E+03  0.34091668433E+03  0.12503646612E+03 0.  0.
          5    1    3    3  501    0 -0.99618668343E+02  0.52680766763E+02 -0.51663983951E+03  0.52880805217E+03  0.47000000000E+01 0. -1.
         -5    1    3    3    0  501 -0.28127315247E+02 -0.36730401366E+02 -0.65271468216E+02  0.80141891733E+02  0.47000000000E+01 0. -1.
          5    1    4    4  502    0  0.12484647368E+03  0.24556562828E+02 -0.15828294871E+03  0.20313849616E+03  0.47000000000E+01 0. -1.
         -5    1    4    4    0  502  0.28995099056E+01 -0.40506928226E+02 -0.13157325238E+03  0.13777818816E+03  0.47000000000E+01 0. -1.
<mgrwt>
<rscale>  0 0.37718433E+03</rscale>
<asrwt>0</asrwt>
<pdfrwt beam="1">  1       21 0.60076254E-02 0.37718433E+03</pdfrwt>
<pdfrwt beam="2">  1       21 0.14012568E+00 0.37718433E+03</pdfrwt>
<totfact> 0.65451082E+04</totfact>
</mgrwt>
</event>
<event>
 8    1  0.9569852E-006  0.4053705E+03  0.7546771E-02  0.1041936E+00
         21   -1    0    0  504  503  0.00000000000E+00  0.00000000000E+00  0.18266398045E+03  0.18266398045E+03  0.00000000000E+00 0. -1.
         21   -1    0    0  503  504 -0.00000000000E+00 -0.00000000000E+00 -0.22490097938E+03  0.22490097938E+03  0.00000000000E+00 0. -1.
         25    2    1    2    0    0 -0.15350912521E+03  0.30942603305E+02  0.96080368437E+01  0.20059840788E+03  0.12499964260E+03 0.  0.
         25    2    1    2    0    0  0.15350912521E+03 -0.30942603305E+02 -0.51845035775E+02  0.20696655196E+03  0.12499899869E+03 0.  0.
          5    1    3    3  501    0 -0.96361327730E+02  0.79642871939E+02  0.41821968268E+01  0.12517217464E+03  0.47000000000E+01 0.  1.
         -5    1    3    3    0  501 -0.57147797479E+02 -0.48700268635E+02  0.54258400169E+01  0.75426233246E+02  0.47000000000E+01 0.  1.
          5    1    4    4  502    0  0.14236627565E+03  0.23163805849E+02 -0.44624959188E+02  0.15105692744E+03  0.47000000000E+01 0. -1.
         -5    1    4    4    0  502  0.11142849556E+02 -0.54106409154E+02 -0.72200765870E+01  0.55909624517E+02  0.47000000000E+01 0. -1.
<mgrwt>
<rscale>  0 0.40537049E+03</rscale>
<asrwt>0</asrwt>
<pdfrwt beam="1">  1       21 0.28102151E-01 0.40537049E+03</pdfrwt>
<pdfrwt beam="2">  1       21 0.34600151E-01 0.40537049E+03</pdfrwt>
<totfact> 0.91550439E+04</totfact>
</mgrwt>
</event>
<event>
 8    1  0.9569852E-006  0.2647264E+03  0.7546771E-02  0.1104336E+00
         21   -1    0    0  504  503  0.00000000000E+00  0.00000000000E+00  0.19372618139E+03  0.19372618139E+03  0.00000000000E+00 0.  1.
         21   -1    0    0  503  504 -0.00000000000E+00 -0.00000000000E+00 -0.90437043549E+02  0.90437043549E+02  0.00000000000E+00 0.  1.
         25    2    1    2    0    0  0.23722867344E+02 -0.98408537872E+01  0.13943370060E+02  0.12837027825E+03  0.12499957573E+03 0.  0.
         25    2    1    2    0    0 -0.23722867344E+02  0.98408537872E+01  0.89345767778E+02  0.15579294668E+03  0.12501663561E+03 0.  0.
          5    1    3    3  501    0  0.71903814929E+02  0.94386555531E+01  0.21338074959E+02  0.75740677729E+02  0.47000000000E+01 0. -1.
         -5    1    3    3    0  501 -0.48180947585E+02 -0.19279509340E+02 -0.73947048995E+01  0.52629600522E+02  0.47000000000E+01 0. -1.
          5    1    4    4  502    0 -0.46302828514E+02  0.30537860423E+02 -0.55732565749E+01  0.55943400294E+02  0.47000000000E+01 0.  1.
         -5    1    4    4    0  502  0.22579961171E+02 -0.20697006636E+02  0.94919024353E+02  0.99849546390E+02  0.47000000000E+01 0.  1.
<mgrwt>
<rscale>  0 0.26472645E+03</rscale>
<asrwt>0</asrwt>
<pdfrwt beam="1">  1       21 0.29804028E-01 0.26472645E+03</pdfrwt>
<pdfrwt beam="2">  1       21 0.13913391E-01 0.26472645E+03</pdfrwt>
<totfact> 0.47850520E+05</totfact>
</mgrwt>
</event>
<event>
 8    1  0.9569852E-006  0.2608050E+03  0.7546771E-02  0.1106661E+00
         21   -1    0    0  504  503  0.00000000000E+00  0.00000000000E+00  0.77982693923E+02  0.77982693923E+02  0.00000000000E+00 0. -1.
         21   -1    0    0  503  504 -0.00000000000E+00 -0.00000000000E+00 -0.21805882196E+03  0.21805882196E+03  0.00000000000E+00 0. -1.
         25    2    1    2    0    0 -0.40276273333E+01 -0.36949436387E+02 -0.70240421728E+02  0.14812263414E+03  0.12500046107E+03 0.  0.
         25    2    1    2    0    0  0.40276273333E+01  0.36949436387E+02 -0.69835706312E+02  0.14791888175E+03  0.12498594749E+03 0.  0.
          5    1    3    3  501    0 -0.37124399007E+02  0.19200956679E+02 -0.71283136990E+02  0.82766378187E+02  0.47000000000E+01 0. -1.
         -5    1    3    3    0  501  0.33096771674E+02 -0.56150393066E+02  0.10427152621E+01  0.65356255950E+02  0.47000000000E+01 0. -1.
          5    1    4    4  502    0 -0.58981973200E+02  0.75911995545E+01 -0.22832426995E+02  0.63874166889E+02  0.47000000000E+01 0.  1.
         -5    1    4    4    0  502  0.63009600534E+02  0.29358236833E+02 -0.47003279317E+02  0.84044714860E+02  0.47000000000E+01 0.  1.
<mgrwt>
<rscale>  0 0.26080502E+03</rscale>
<asrwt>0</asrwt>
<pdfrwt beam="1">  1       21 0.11997338E-01 0.26080502E+03</pdfrwt>
<pdfrwt beam="2">  1       21 0.33547510E-01 0.26080502E+03</pdfrwt>
<totfact> 0.49577241E+05</totfact>
</mgrwt>
</event>
<event>
 8    1  0.9569852E-006  0.2794713E+03  0.7546771E-02  0.1095978E+00
         21   -1    0    0  504  503  0.00000000000E+00  0.00000000000E+00  0.17201268392E+03  0.17201268392E+03  0.00000000000E+00 0.  1.
         21   -1    0    0  503  504 -0.00000000000E+00 -0.00000000000E+00 -0.11351518676E+03  0.11351518676E+03  0.00000000000E+00 0.  1.
         25    2    1    2    0    0  0.62405046230E+02 -0.98336534289E-01  0.26486175384E+02  0.14219730641E+03  0.12499662795E+03 0.  0.
         25    2    1    2    0    0 -0.62405046230E+02  0.98336534289E-01  0.32011321783E+02  0.14333056426E+03  0.12499810584E+03 0.  0.
          5    1    3    3  501    0  0.77110444540E+02  0.40520135626E+02 -0.67418252165E+01  0.87495395625E+02  0.47000000000E+01 0. -1.
         -5    1    3    3    0  501 -0.14705398310E+02 -0.40618472160E+02  0.33228000600E+02  0.54701910789E+02  0.47000000000E+01 0. -1.
          5    1    4    4  502    0 -0.85910046990E+02  0.38585935101E+02  0.19431145775E+02  0.96276009409E+02  0.47000000000E+01 0.  1.
         -5    1    4    4    0  502  0.23505000761E+02 -0.38487598567E+02  0.12580176009E+02  0.47054554855E+02  0.47000000000E+01 0.  1.
<mgrwt>
<rscale>  0 0.27947130E+03</rscale>
<asrwt>0</asrwt>
<pdfrwt beam="1">  1       21 0.26463490E-01 0.27947130E+03</pdfrwt>
<pdfrwt beam="2">  1       21 0.17463875E-01 0.27947130E+03</pdfrwt>
<totfact> 0.39599140E+05</totfact>
</mgrwt>
</event>
<event>
 8    1  0.9569852E-006  0.3051279E+03  0.7546771E-02  0.1082705E+00
         21   -1    0    0  504  503  0.00000000000E+00  0.00000000000E+00  0.17570357397E+02  0.17570357397E+02  0.00000000000E+00 0.  1.
         21   -1    0    0  503  504 -0.00000000000E+00 -0.00000000000E+00 -0.13247175104E+04  0.13247175104E+04  0.00000000000E+00 0.  1.
         25    2    1    2    0    0 -0.65521889850E+02 -0.11361947719E+02 -0.90355533646E+03  0.91458142683E+03  0.12499891343E+03 0.  0.
         25    2    1    2    0    0  0.65521889850E+02  0.11361947719E+02 -0.40359181655E+03  0.42770644097E+03  0.12499693339E+03 0.  0.
          5    1    3    3  501    0 -0.68681347005E+01  0.18504562803E+02 -0.70610433469E+03  0.70639578962E+03  0.47000000000E+01 0. -1.
         -5    1    3    3    0  501 -0.58653755150E+02 -0.29866510521E+02 -0.19745100176E+03  0.20818563721E+03  0.47000000000E+01 0. -1.
          5    1    4    4  502    0  0.27678852370E+02  0.82676884242E+01 -0.80985358308E+01  0.30366919880E+02  0.47000000000E+01 0. -1.
         -5    1    4    4    0  502  0.37843037480E+02  0.30942592944E+01 -0.39549328072E+03  0.39733952109E+03  0.47000000000E+01 0. -1.
<mgrwt>
<rscale>  0 0.30512791E+03</rscale>
<asrwt>0</asrwt>
<pdfrwt beam="1">  1       21 0.27031332E-02 0.30512791E+03</pdfrwt>
<pdfrwt beam="2">  1       21 0.20380260E+00 0.30512791E+03</pdfrwt>
<totfact> 0.90304093E+04</totfact>
</mgrwt>
</event>
<event>
 8    1  0.9569852E-006  0.2620824E+03  0.7546771E-02  0.1105898E+00
         21   -1    0    0  504  503  0.00000000000E+00  0.00000000000E+00  0.63789702806E+02  0.63789702806E+02  0.00000000000E+00 0.  1.
         21   -1    0    0  503  504 -0.00000000000E+00 -0.00000000000E+00 -0.26919394029E+03  0.26919394029E+03  0.00000000000E+00 0.  1.
         25    2    1    2    0    0  0.21362549496E+02 -0.31706540209E+02 -0.11444016018E+03  0.17373157486E+03  0.12499778650E+03 0.  0.
         25    2    1    2    0    0 -0.21362549496E+02  0.31706540209E+02 -0.90964077309E+02  0.15925206824E+03  0.12500037866E+03 0.  0.
          5    1    3    3  501    0  0.22117039550E+02  0.18802734630E+02 -0.11920166009E+03  0.12277553517E+03  0.47000000000E+01 0. -1.
         -5    1    3    3    0  501 -0.75449005386E+00 -0.50509274839E+02  0.47614999075E+01  0.50956039695E+02  0.47000000000E+01 0. -1.
          5    1    4    4  502    0  0.40507266161E+02  0.20704946906E+02  0.33126607479E+01  0.45854085526E+02  0.47000000000E+01 0. -1.
         -5    1    4    4    0  502 -0.61869815657E+02  0.11001593302E+02 -0.94276738057E+02  0.11339798271E+03  0.47000000000E+01 0. -1.
<mgrwt>
<rscale>  0 0.26208244E+03</rscale>
<asrwt>0</asrwt>
<pdfrwt beam="1">  1       21 0.98138002E-02 0.26208244E+03</pdfrwt>
<pdfrwt beam="2">  1       21 0.41414453E-01 0.26208244E+03</pdfrwt>
<totfact> 0.46430597E+05</totfact>
</mgrwt>
</event>
<event>
 8    1  0.9569852E-006  0.3809064E+03  0.7546771E-02  0.1050599E+00
         21   -1    0    0  504  503  0.00000000000E+00  0.00000000000E+00  0.46178917599E+03  0.46178917599E+03  0.00000000000E+00 0. -1.
         21   -1    0    0  503  504 -0.00000000000E+00 -0.00000000000E+00 -0.78547561260E+02  0.78547561260E+02  0.00000000000E+00 0. -1.
         25    2    1    2    0    0 -0.44556660392E+02  0.14917771445E+02  0.38424308691E+03  0.40678797348E+03  0.12500347849E+03 0.  0.
         25    2    1    2    0    0  0.44556660392E+02 -0.14917771445E+02 -0.10014721769E+01  0.13354876378E+03  0.12500573375E+03 0.  0.
          5    1    3    3  501    0  0.26812267327E+02 -0.25661422183E+02  0.21946013067E+03  0.22262579639E+03  0.47000000000E+01 0.  1.
         -5    1    3    3    0  501 -0.71368927719E+02  0.40579193627E+02  0.16478295624E+03  0.18416217708E+03  0.47000000000E+01 0.  1.
          5    1    4    4  502    0  0.31533579799E+02 -0.37056556694E+02 -0.54990299296E+02  0.73577021315E+02  0.47000000000E+01 0.  1.
         -5    1    4    4    0  502  0.13023080593E+02  0.22138785249E+02  0.53988827119E+02  0.59971742463E+02  0.47000000000E+01 0.  1.
<mgrwt>
<rscale>  0 0.38090636E+03</rscale>
<asrwt>0</asrwt>
<pdfrwt beam="1">  1       21 0.71044487E-01 0.38090636E+03</pdfrwt>
<pdfrwt beam="2">  1       21 0.12084240E-01 0.38090636E+03</pdfrwt>
<totfact> 0.98141230E+04</totfact>
</mgrwt>
</event>
<event>
 8    1  0.9569852E-006  0.5339896E+03  0.7546771E-02  0.1005269E+00
         21   -1    0    0  504  503  0.00000000000E+00  0.00000000000E+00  0.10562000979E+04  0.10562000979E+04  0.00000000000E+00 0.  1.
         21   -1    0    0  503  504 -0.00000000000E+00 -0.00000000000E+00 -0.67493114895E+02  0.67493114895E+02  0.00000000000E+00 0.  1.
         25    2    1    2    0    0 -0.27084285564E+02 -0.14447797055E+03  0.88268217013E+03  0.90352672640E+03  0.12500115743E+03 0.  0.
         25    2    1    2    0    0  0.27084285564E+02  0.14447797055E+03  0.10602481287E+03  0.22016648639E+03  0.12499831313E+03 0.  0.
          5    1    3    3  501    0 -0.51621403133E+02 -0.15659934940E+03  0.77038661228E+03  0.78784881029E+03  0.47000000000E+01 0. -1.
         -5    1    3    3    0  501  0.24537117569E+02  0.12121378846E+02  0.11229555785E+03  0.11567791611E+03  0.47000000000E+01 0. -1.
          5    1    4    4  502    0 -0.35249086581E+02  0.11831939362E+03  0.54475619521E+02  0.13502466491E+03  0.47000000000E+01 0.  1.
         -5    1    4    4    0  502  0.62333372145E+02  0.26158576928E+02  0.51549193352E+02  0.85141821481E+02  0.47000000000E+01 0.  1.
<mgrwt>
<rscale>  0 0.53398964E+03</rscale>
<asrwt>0</asrwt>
<pdfrwt beam="1">  1       21 0.16249231E+00 0.53398964E+03</pdfrwt>
<pdfrwt beam="2">  1       21 0.10383557E-01 0.53398964E+03</pdfrwt>
<totfact> 0.15889736E+04</totfact>
</mgrwt>
</event>
<event>
 8    1  0.9569852E-006  0.3137690E+03  0.7546771E-02  0.1078553E+00
         21   -1    0    0  504  503  0.00000000000E+00  0.00000000000E+00  0.29976035863E+02  0.29976035863E+02  0.00000000000E+00 0.  1.
         21   -1    0    0  503  504 -0.00000000000E+00 -0.00000000000E+00 -0.82108075873E+03  0.82108075873E+03  0.00000000000E+00 0.  1.
         25    2    1    2    0    0  0.16098516951E+01 -0.27542228070E+02 -0.64157966616E+03  0.65422557455E+03  0.12500187364E+03 0.  0.
         25    2    1    2    0    0 -0.16098516951E+01  0.27542228070E+02 -0.14952505671E+03  0.19683122005E+03  0.12499448249E+03 0.  0.
          5    1    3    3  501    0  0.15469629741E+02 -0.42285703936E+02 -0.62749774123E+03  0.62912867956E+03  0.47000000000E+01 0.  1.
         -5    1    3    3    0  501 -0.13859778046E+02  0.14743475866E+02 -0.14081924931E+02  0.25096894984E+02  0.47000000000E+01 0.  1.
          5    1    4    4  502    0 -0.13195280290E+02 -0.23207104470E+02  0.10053650614E+02  0.28911088020E+02  0.47000000000E+01 0. -1.
         -5    1    4    4    0  502  0.11585428595E+02  0.50749332540E+02 -0.15957870732E+03  0.16792013203E+03  0.47000000000E+01 0. -1.
<mgrwt>
<rscale>  0 0.31376900E+03</rscale>
<asrwt>0</asrwt>
<pdfrwt beam="1">  1       21 0.46116981E-02 0.31376900E+03</pdfrwt>
<pdfrwt beam="2">  1       21 0.12632011E+00 0.31376900E+03</pdfrwt>
<totfact> 0.13740957E+05</totfact>
</mgrwt>
</event>
<event>
 8    1  0.9569852E-006  0.6455178E+03  0.7546771E-02  0.9815226E-01
         21   -1    0    0  504  503  0.00000000000E+00  0.00000000000E+00  0.29909952687E+03  0.29909952687E+03  0.00000000000E+00 0.  1.
         21   -1    0    0  503  504 -0.00000000000E+00 -0.00000000000E+00 -0.34828977888E+03  0.34828977888E+03  0.00000000000E+00 0.  1.
         25    2    1    2    0    0 -0.10932882743E+03  0.24142267031E+03  0.11107114907E+03  0.31337058482E+03  0.12500649994E+03 0.  0.
         25    2    1    2    0    0  0.10932882743E+03 -0.24142267031E+03 -0.16026140108E+03  0.33401872093E+03  0.12508833283E+03 0.  0.
          5    1    3    3  501    0 -0.13685882323E+03  0.20775091000E+03  0.10058620331E+03  0.26838489599E+03  0.47000000000E+01 0.  1.
         -5    1    3    3    0  501  0.27529995803E+02  0.33671760310E+02  0.10484945760E+02  0.44985688823E+02  0.47000000000E+01 0.  1.
          5    1    4    4  502    0  0.11746828153E+03 -0.17092763277E+03 -0.69657123344E+02  0.21883614336E+03  0.47000000000E+01 0.  1.
         -5    1    4    4    0  502 -0.81394541053E+01 -0.70495037540E+02 -0.90604277731E+02  0.11518257756E+03  0.47000000000E+01 0.  1.
<mgrwt>
<rscale>  0 0.64551780E+03</rscale>
<asrwt>0</asrwt>
<pdfrwt beam="1">  1       21 0.46015312E-01 0.64551780E+03</pdfrwt>
<pdfrwt beam="2">  1       21 0.53583043E-01 0.64551780E+03</pdfrwt>
<totfact> 0.12802335E+04</totfact>
</mgrwt>
</event>
<event>
 8    1  0.9569852E-006  0.3537752E+03  0.7546771E-02  0.1061076E+00
         21   -1    0    0  504  503  0.00000000000E+00  0.00000000000E+00  0.94222903016E+03  0.94222903016E+03  0.00000000000E+00 0.  1.
         21   -1    0    0  503  504 -0.00000000000E+00 -0.00000000000E+00 -0.33207653229E+02  0.33207653229E+02  0.00000000000E+00 0.  1.
         25    2    1    2    0    0  0.10173446098E+03 -0.67258151330E+02  0.53215060124E+03  0.56006979339E+03  0.12498140501E+03 0.  0.
         25    2    1    2    0    0 -0.10173446098E+03  0.67258151330E+02  0.37687077570E+03  0.41536689000E+03  0.12499804905E+03 0.  0.
          5    1    3    3  501    0  0.18547991037E+02  0.26650216227E+02  0.37915328392E+02  0.50139047892E+02  0.47000000000E+01 0. -1.
         -5    1    3    3    0  501  0.83186469940E+02 -0.93908367558E+02  0.49423527285E+03  0.50993074550E+03  0.47000000000E+01 0. -1.
          5    1    4    4  502    0 -0.59593634655E+02  0.69228099151E+02  0.35694004769E+03  0.36847281941E+03  0.47000000000E+01 0.  1.
         -5    1    4    4    0  502 -0.42140826323E+02 -0.19699478205E+01  0.19930728012E+02  0.46894070592E+02  0.47000000000E+01 0.  1.
<mgrwt>
<rscale>  0 0.35377515E+03</rscale>
<asrwt>0</asrwt>
<pdfrwt beam="1">  1       21 0.14495829E+00 0.35377515E+03</pdfrwt>
<pdfrwt beam="2">  1       21 0.51088704E-02 0.35377515E+03</pdfrwt>
<totfact> 0.79666044E+04</totfact>
</mgrwt>
</event>
<event>
 8    1  0.9569852E-006  0.2573602E+03  0.7546771E-02  0.1108740E+00
         21   -1    0    0  504  503  0.00000000000E+00  0.00000000000E+00  0.24191021945E+02  0.24191021945E+02  0.00000000000E+00 0.  1.
         21   -1    0    0  503  504 -0.00000000000E+00 -0.00000000000E+00 -0.68449219853E+03  0.68449219853E+03  0.00000000000E+00 0.  1.
         25    2    1    2    0    0 -0.26700342025E+02  0.65567681320E+01 -0.29340886604E+03  0.32010879018E+03  0.12499990163E+03 0.  0.
         25    2    1    2    0    0  0.26700342025E+02 -0.65567681320E+01 -0.36689231054E+03  0.38857443029E+03  0.12499688344E+03 0.  0.
          5    1    3    3  501    0 -0.56678412427E+02  0.48369836296E+02 -0.14741521071E+03  0.16524351076E+03  0.47000000000E+01 0.  1.
         -5    1    3    3    0  501  0.29978070403E+02 -0.41813068164E+02 -0.14599365533E+03  0.15486527943E+03  0.47000000000E+01 0.  1.
          5    1    4    4  502    0 -0.38047351066E+02 -0.31931174327E+02 -0.22527368551E+03  0.23073258158E+03  0.47000000000E+01 0.  1.
         -5    1    4    4    0  502  0.64747693091E+02  0.25374406195E+02 -0.14161862503E+03  0.15784184871E+03  0.47000000000E+01 0.  1.
<mgrwt>
<rscale>  0 0.25736018E+03</rscale>
<asrwt>0</asrwt>
<pdfrwt beam="1">  1       21 0.37216954E-02 0.25736018E+03</pdfrwt>
<pdfrwt beam="2">  1       21 0.10530650E+00 0.25736018E+03</pdfrwt>
<totfact> 0.31492720E+05</totfact>
</mgrwt>
</event>
<event>
 8    1  0.9569852E-006  0.3572546E+03  0.7546771E-02  0.1059676E+00
         21   -1    0    0  504  503  0.00000000000E+00  0.00000000000E+00  0.11501336192E+03  0.11501336192E+03  0.00000000000E+00 0.  1.
         21   -1    0    0  503  504 -0.00000000000E+00 -0.00000000000E+00 -0.27742607361E+03  0.27742607361E+03  0.00000000000E+00 0.  1.
         25    2    1    2    0    0 -0.99754620349E+02  0.25272186367E+02 -0.16410022451E+03  0.23052136879E+03  0.12498619964E+03 0.  0.
         25    2    1    2    0    0  0.99754620349E+02 -0.25272186367E+02  0.16875128205E+01  0.16191806674E+03  0.12499977981E+03 0.  0.
          5    1    3    3  501    0 -0.21233817270E+02 -0.22278198055E+02  0.10788291514E+02  0.32949511957E+02  0.47000000000E+01 0. -1.
         -5    1    3    3    0  501 -0.78520803078E+02  0.47550384422E+02 -0.17488851603E+03  0.19757185683E+03  0.47000000000E+01 0. -1.
          5    1    4    4  502    0  0.71654505746E+01 -0.40710270023E+02 -0.41253034523E+02  0.58588161131E+02  0.47000000000E+01 0.  1.
         -5    1    4    4    0  502  0.92589169774E+02  0.15438083656E+02  0.42940547344E+02  0.10332990561E+03  0.47000000000E+01 0.  1.
<mgrwt>
<rscale>  0 0.35725456E+03</rscale>
<asrwt>0</asrwt>
<pdfrwt beam="1">  1       21 0.17694364E-01 0.35725456E+03</pdfrwt>
<pdfrwt beam="2">  1       21 0.42680933E-01 0.35725456E+03</pdfrwt>
<totfact> 0.14628057E+05</totfact>
</mgrwt>
</event>
<event>
 8    1  0.9569852E-006  0.2549775E+03  0.7546771E-02  0.1110199E+00
         21   -1    0    0  504  503  0.00000000000E+00  0.00000000000E+00  0.12030119001E+03  0.12030119001E+03  0.00000000000E+00 0. -1.
         21   -1    0    0  503  504 -0.00000000000E+00 -0.00000000000E+00 -0.13510577066E+03  0.13510577066E+03  0.00000000000E+00 0. -1.
         25    2    1    2    0    0 -0.16195881532E+01  0.10619299752E+02  0.15346439325E+02  0.12639324077E+03  0.12499738205E+03 0.  0.
         25    2    1    2    0    0  0.16195881532E+01 -0.10619299752E+02 -0.30151019973E+02  0.12901371990E+03  0.12498025173E+03 0.  0.
          5    1    3    3  501    0  0.36279767203E+02  0.42664571602E+02  0.41719823135E+02  0.69993719867E+02  0.47000000000E+01 0. -1.
         -5    1    3    3    0  501 -0.37899355357E+02 -0.32045271850E+02 -0.26373383811E+02  0.56399520902E+02  0.47000000000E+01 0. -1.
          5    1    4    4  502    0 -0.35650580140E+02 -0.12609011555E+02  0.36316324118E+02  0.52639495003E+02  0.47000000000E+01 0. -1.
         -5    1    4    4    0  502  0.37270168293E+02  0.19897118024E+01 -0.66467344091E+02  0.76374224894E+02  0.47000000000E+01 0. -1.
<mgrwt>
<rscale>  0 0.25497753E+03</rscale>
<asrwt>0</asrwt>
<pdfrwt beam="1">  1       21 0.18507875E-01 0.25497753E+03</pdfrwt>
<pdfrwt beam="2">  1       21 0.20785503E-01 0.25497753E+03</pdfrwt>
<totfact> 0.56631525E+05</totfact>
</mgrwt>
</event>
<event>
 8    1  0.9569852E-006  0.2924793E+03  0.7546771E-02  0.1089062E+00
         21   -1    0    0  504  503  0.00000000000E+00  0.00000000000E+00  0.21930015199E+03  0.21930015199E+03  0.00000000000E+00 0.  1.
         21   -1    0    0  503  504 -0.00000000000E+00 -0.00000000000E+00 -0.97519466179E+02  0.97519466179E+02  0.00000000000E+00 0.  1.
         25    2    1    2    0    0 -0.99983296570E+01 -0.18657672399E+02 -0.18056073717E+02  0.12806675956E+03  0.12500799083E+03 0.  0.
         25    2    1    2    0    0  0.99983296570E+01  0.18657672399E+02  0.13983675953E+03  0.18875285861E+03  0.12500098793E+03 0.  0.
          5    1    3    3  501    0  0.47893857695E+02  0.24658701173E+02 -0.11758491450E+02  0.55337376786E+02  0.47000000000E+01 0.  1.
         -5    1    3    3    0  501 -0.57892187352E+02 -0.43316373572E+02 -0.62975822669E+01  0.72729382771E+02  0.47000000000E+01 0.  1.
          5    1    4    4  502    0 -0.23127812607E+02 -0.47215652874E+02  0.62203634677E+02  0.81581834739E+02  0.47000000000E+01 0.  1.
         -5    1    4    4    0  502  0.33126142264E+02  0.65873325273E+02  0.77633124852E+02  0.10717102387E+03  0.47000000000E+01 0.  1.
<mgrwt>
<rscale>  0 0.29247929E+03</rscale>
<asrwt>0</asrwt>
<pdfrwt beam="1">  1       21 0.33738485E-01 0.29247929E+03</pdfrwt>
<pdfrwt beam="2">  1       21 0.15002995E-01 0.29247929E+03</pdfrwt>
<totfact> 0.32445921E+05</totfact>
</mgrwt>
</event>
<event>
 8    1  0.9569852E-006  0.3662618E+03  0.7546771E-02  0.1056132E+00
         21   -1    0    0  504  503  0.00000000000E+00  0.00000000000E+00  0.22621920127E+03  0.22621920127E+03  0.00000000000E+00 0.  1.
         21   -1    0    0  503  504 -0.00000000000E+00 -0.00000000000E+00 -0.14824968824E+03  0.14824968824E+03  0.00000000000E+00 0.  1.
         25    2    1    2    0    0 -0.63506604479E+02  0.10721310075E+03 -0.10936712019E+02  0.17684023753E+03  0.12500048063E+03 0.  0.
         25    2    1    2    0    0  0.63506604479E+02 -0.10721310075E+03  0.88906225043E+02  0.19762865197E+03  0.12500011777E+03 0.  0.
          5    1    3    3  501    0 -0.39937957693E+01  0.21435693201E+02 -0.58062567183E+02  0.62199606555E+02  0.47000000000E+01 0.  1.
         -5    1    3    3    0  501 -0.59512808710E+02  0.85777407550E+02  0.47125855165E+02  0.11464063098E+03  0.47000000000E+01 0.  1.
          5    1    4    4  502    0  0.62884096997E+02 -0.77772097115E+02  0.11882640733E+03  0.15538569376E+03  0.47000000000E+01 0. -1.
         -5    1    4    4    0  502  0.62250748231E+00 -0.29441003636E+02 -0.29920182288E+02  0.42242958216E+02  0.47000000000E+01 0. -1.
<mgrwt>
<rscale>  0 0.36626180E+03</rscale>
<asrwt>0</asrwt>
<pdfrwt beam="1">  1       21 0.34802954E-01 0.36626180E+03</pdfrwt>
<pdfrwt beam="2">  1       21 0.22807644E-01 0.36626180E+03</pdfrwt>
<totfact> 0.13683170E+05</totfact>
</mgrwt>
</event>
<event>
 8    1  0.9569852E-006  0.3702626E+03  0.7546771E-02  0.1054593E+00
         21   -1    0    0  504  503  0.00000000000E+00  0.00000000000E+00  0.87241129582E+02  0.87241129582E+02  0.00000000000E+00 0.  1.
         21   -1    0    0  503  504 -0.00000000000E+00 -0.00000000000E+00 -0.39286051316E+03  0.39286051316E+03  0.00000000000E+00 0.  1.
         25    2    1    2    0    0  0.11415398171E+02  0.13439437380E+03 -0.18024079460E+03  0.25750240687E+03  0.12501434511E+03 0.  0.
         25    2    1    2    0    0 -0.11415398171E+02 -0.13439437380E+03 -0.12537858898E+03  0.22259923587E+03  0.12505386924E+03 0.  0.
          5    1    3    3  501    0 -0.41786563141E+02  0.22132163438E+02 -0.96630688764E+02  0.10768254050E+03  0.47000000000E+01 0.  1.
         -5    1    3    3    0  501  0.53201961312E+02  0.11226221036E+03 -0.83610105834E+02  0.14981986637E+03  0.47000000000E+01 0.  1.
          5    1    4    4  502    0 -0.17702662280E+02 -0.15579345794E+03 -0.90999489224E+02  0.18135044204E+03  0.47000000000E+01 0.  1.
         -5    1    4    4    0  502  0.62872641086E+01  0.21399084148E+02 -0.34379099754E+02  0.41248793828E+02  0.47000000000E+01 0.  1.
<mgrwt>
<rscale>  0 0.37026258E+03</rscale>
<asrwt>0</asrwt>
<pdfrwt beam="1">  1       21 0.13421712E-01 0.37026258E+03</pdfrwt>
<pdfrwt beam="2">  1       21 0.60440080E-01 0.37026258E+03</pdfrwt>
<totfact> 0.11623065E+05</totfact>
</mgrwt>
</event>
<event>
 8    1  0.9569852E-006  0.4026149E+03  0.7546771E-02  0.1042878E+00
         21   -1    0    0  504  503  0.00000000000E+00  0.00000000000E+00  0.26812456093E+03  0.26812456093E+03  0.00000000000E+00 0. -1.
         21   -1    0    0  503  504 -0.00000000000E+00 -0.00000000000E+00 -0.15114131590E+03  0.15114131590E+03  0.00000000000E+00 0. -1.
         25    2    1    2    0    0  0.56033975593E+02 -0.14619585185E+03  0.38123281173E+02  0.20397098147E+03  0.12505096240E+03 0.  0.
         25    2    1    2    0    0 -0.56033975593E+02  0.14619585185E+03  0.78859963856E+02  0.21529489536E+03  0.12497985658E+03 0.  0.
          5    1    3    3  501    0  0.83562300496E+02 -0.12315823407E+03  0.61252018446E+02  0.16101089543E+03  0.47000000000E+01 0.  1.
         -5    1    3    3    0  501 -0.27528324904E+02 -0.23037617781E+02 -0.23128737273E+02  0.42960086043E+02  0.47000000000E+01 0.  1.
          5    1    4    4  502    0 -0.26770628879E+02  0.12214888423E+03  0.10955453302E+03  0.16631687285E+03  0.47000000000E+01 0.  1.
         -5    1    4    4    0  502 -0.29263346714E+02  0.24046967614E+02 -0.30694569167E+02  0.48978022507E+02  0.47000000000E+01 0.  1.
<mgrwt>
<rscale>  0 0.40261495E+03</rscale>
<asrwt>0</asrwt>
<pdfrwt beam="1">  1       21 0.41249932E-01 0.40261495E+03</pdfrwt>
<pdfrwt beam="2">  1       21 0.23252510E-01 0.40261495E+03</pdfrwt>
<totfact> 0.92543467E+04</totfact>
</mgrwt>
</event>
<event>
 8    1  0.9569852E-006  0.3503932E+03  0.7546771E-02  0.1062454E+00
         21   -1    0    0  504  503  0.00000000000E+00  0.00000000000E+00  0.32899192924E+02  0.32899192924E+02  0.00000000000E+00 0. -1.
         21   -1    0    0  503  504 -0.00000000000E+00 -0.00000000000E+00 -0.93296658356E+03  0.93296658356E+03  0.00000000000E+00 0. -1.
         25    2    1    2    0    0 -0.13548413988E+02  0.93678675874E+02 -0.23457307737E+03  0.28215068535E+03  0.12500090713E+03 0.  0.
         25    2    1    2    0    0  0.13548413988E+02 -0.93678675874E+02 -0.66549431327E+03  0.68371509113E+03  0.12499756405E+03 0.  0.
          5    1    3    3  501    0  0.47029132481E+01 -0.62899168992E+01 -0.14881637843E+03  0.14909756852E+03  0.47000000000E+01 0.  1.
         -5    1    3    3    0  501 -0.18251327236E+02  0.99968592773E+02 -0.85756698937E+02  0.13305311684E+03  0.47000000000E+01 0.  1.
          5    1    4    4  502    0 -0.33424297876E+02  0.15790125880E+02 -0.17761256020E+03  0.18147953963E+03  0.47000000000E+01 0.  1.
         -5    1    4    4    0  502  0.46972711864E+02 -0.10946880175E+03 -0.48788175307E+03  0.50223555151E+03  0.47000000000E+01 0.  1.
<mgrwt>
<rscale>  0 0.35039319E+03</rscale>
<asrwt>0</asrwt>
<pdfrwt beam="1">  1       21 0.50614152E-02 0.35039319E+03</pdfrwt>
<pdfrwt beam="2">  1       21 0.14353330E+00 0.35039319E+03</pdfrwt>
<totfact> 0.83193019E+04</totfact>
</mgrwt>
</event>
<event>
 8    1  0.9569852E-006  0.3671205E+03  0.7546771E-02  0.1055800E+00
         21   -1    0    0  504  503  0.00000000000E+00  0.00000000000E+00  0.19314950425E+03  0.19314950425E+03  0.00000000000E+00 0.  1.
         21   -1    0    0  503  504 -0.00000000000E+00 -0.00000000000E+00 -0.17444702490E+03  0.17444702490E+03  0.00000000000E+00 0.  1.
         25    2    1    2    0    0 -0.84687313346E+01 -0.95235857609E+02  0.10397113193E+03  0.18860593986E+03  0.12498246394E+03 0.  0.
         25    2    1    2    0    0  0.84687313346E+01  0.95235857609E+02 -0.85268652581E+02  0.17899058929E+03  0.12500119982E+03 0.  0.
          5    1    3    3  501    0  0.15457529416E+02 -0.12044179634E+03  0.72621895509E+02  0.14156691431E+03  0.47000000000E+01 0. -1.
         -5    1    3    3    0  501 -0.23926260751E+02  0.25205938728E+02  0.31349236418E+02  0.47039025550E+02  0.47000000000E+01 0. -1.
          5    1    4    4  502    0  0.12291139401E+02  0.58033707112E+02  0.23421565559E+02  0.63950316669E+02  0.47000000000E+01 0.  1.
         -5    1    4    4    0  502 -0.38224080661E+01  0.37202150497E+02 -0.10869021814E+03  0.11504027262E+03  0.47000000000E+01 0.  1.
<mgrwt>
<rscale>  0 0.36712045E+03</rscale>
<asrwt>0</asrwt>
<pdfrwt beam="1">  1       21 0.29715308E-01 0.36712045E+03</pdfrwt>
<pdfrwt beam="2">  1       21 0.26838004E-01 0.36712045E+03</pdfrwt>
<totfact> 0.13684326E+05</totfact>
</mgrwt>
</event>
<event>
 8    1  0.9569852E-006  0.2987711E+03  0.7546771E-02  0.1085857E+00
         21   -1    0    0  504  503  0.00000000000E+00  0.00000000000E+00  0.37029251615E+03  0.37029251615E+03  0.00000000000E+00 0.  1.
         21   -1    0    0  503  504 -0.00000000000E+00 -0.00000000000E+00 -0.60265997550E+02  0.60265997550E+02  0.00000000000E+00 0.  1.
         25    2    1    2    0    0 -0.31909711237E+02  0.67468424853E+02  0.20325952188E+03  0.25002033737E+03  0.12500207136E+03 0.  0.
         25    2    1    2    0    0  0.31909711237E+02 -0.67468424853E+02  0.10676699673E+03  0.18053817633E+03  0.12499849399E+03 0.  0.
          5    1    3    3  501    0  0.22873253913E+02 -0.27093332059E+02  0.58718184616E+02  0.68754269622E+02  0.47000000000E+01 0. -1.
         -5    1    3    3    0  501 -0.54782965150E+02  0.94561756912E+02  0.14454133726E+03  0.18126606775E+03  0.47000000000E+01 0. -1.
          5    1    4    4  502    0  0.65433370389E+02 -0.62642264524E+02  0.11390311017E+03  0.14560765012E+03  0.47000000000E+01 0. -1.
         -5    1    4    4    0  502 -0.33523659152E+02 -0.48261603283E+01 -0.71361134474E+01  0.34930526214E+02  0.47000000000E+01 0. -1.
<mgrwt>
<rscale>  0 0.29877114E+03</rscale>
<asrwt>0</asrwt>
<pdfrwt beam="1">  1       21 0.56968078E-01 0.29877114E+03</pdfrwt>
<pdfrwt beam="2">  1       21 0.92716921E-02 0.29877114E+03</pdfrwt>
<totfact> 0.26134240E+05</totfact>
</mgrwt>
</event>
<event>
 8    1  0.9569852E-006  0.3692310E+03  0.7546771E-02  0.1054987E+00
         21   -1    0    0  504  503  0.00000000000E+00  0.00000000000E+00  0.10341747588E+04  0.10341747588E+04  0.00000000000E+00 0. -1.
         21   -1    0    0  503  504 -0.00000000000E+00 -0.00000000000E+00 -0.32956604315E+02  0.32956604315E+02  0.00000000000E+00 0. -1.
         25    2    1    2    0    0  0.68358736172E+02  0.19572225338E+02  0.83517477402E+03  0.84746675914E+03  0.12500806321E+03 0.  0.
         25    2    1    2    0    0 -0.68358736172E+02 -0.19572225338E+02  0.16604338047E+03  0.21966460398E+03  0.12500458083E+03 0.  0.
          5    1    3    3  501    0 -0.25239098857E+02  0.20647352608E+02  0.80293818239E+02  0.86790048556E+02  0.47000000000E+01 0. -1.
         -5    1    3    3    0  501  0.93597835030E+02 -0.10751272697E+01  0.75488095578E+03  0.76067671058E+03  0.47000000000E+01 0. -1.
          5    1    4    4  502    0  0.14271359570E+02  0.24291849439E+02 -0.52206744553E+00  0.28567957707E+02  0.47000000000E+01 0.  1.
         -5    1    4    4    0  502 -0.82630095742E+02 -0.43864074777E+02  0.16656544791E+03  0.19109664627E+03  0.47000000000E+01 0.  1.
<mgrwt>
<rscale>  0 0.36923103E+03</rscale>
<asrwt>0</asrwt>
<pdfrwt beam="1">  1       21 0.15910378E+00 0.36923103E+03</pdfrwt>
<pdfrwt beam="2">  1       21 0.50702476E-02 0.36923103E+03</pdfrwt>
<totfact> 0.62431969E+04</totfact>
</mgrwt>
</event>
<event>
 8    1  0.9569852E-006  0.3297701E+03  0.7546771E-02  0.1071239E+00
         21   -1    0    0  504  503  0.00000000000E+00  0.00000000000E+00  0.14755404844E+03  0.14755404844E+03  0.00000000000E+00 0. -1.
         21   -1    0    0  503  504 -0.00000000000E+00 -0.00000000000E+00 -0.18425168193E+03  0.18425168193E+03  0.00000000000E+00 0. -1.
         25    2    1    2    0    0  0.34610889044E+02  0.10124945256E+03 -0.76636687573E+01  0.16472037552E+03  0.12499882003E+03 0.  0.
         25    2    1    2    0    0 -0.34610889044E+02 -0.10124945256E+03 -0.29033964734E+02  0.16708535484E+03  0.12500071764E+03 0.  0.
          5    1    3    3  501    0 -0.23550427398E+02  0.10297698758E+03  0.73606066343E+00  0.10574268006E+03  0.47000000000E+01 0. -1.
         -5    1    3    3    0  501  0.58161316441E+02 -0.17275350170E+01 -0.83997294207E+01  0.58977695460E+02  0.47000000000E+01 0. -1.
          5    1    4    4  502    0 -0.74795982318E+02 -0.33469173769E+02  0.24174108651E+01  0.82113083239E+02  0.47000000000E+01 0.  1.
         -5    1    4    4    0  502  0.40185093275E+02 -0.67780278790E+02 -0.31451375599E+02  0.84972271603E+02  0.47000000000E+01 0.  1.
<mgrwt>
<rscale>  0 0.32977011E+03</rscale>
<asrwt>0</asrwt>
<pdfrwt beam="1">  1       21 0.22700623E-01 0.32977011E+03</pdfrwt>
<pdfrwt beam="2">  1       21 0.28346412E-01 0.32977011E+03</pdfrwt>
<totfact> 0.20911593E+05</totfact>
</mgrwt>
</event>
<event>
 8    1  0.9569852E-006  0.6429184E+03  0.7546771E-02  0.9820159E-01
         21   -1    0    0  504  503  0.00000000000E+00  0.00000000000E+00  0.89132395628E+02  0.89132395628E+02  0.00000000000E+00 0. -1.
         21   -1    0    0  503  504 -0.00000000000E+00 -0.00000000000E+00 -0.11593543127E+04  0.11593543127E+04  0.00000000000E+00 0. -1.
         25    2    1    2    0    0 -0.28362757189E+03  0.82713115897E+02 -0.49505921993E+03  0.58991042147E+03  0.12499846013E+03 0.  0.
         25    2    1    2    0    0  0.28362757189E+03 -0.82713115897E+02 -0.57516269716E+03  0.65857628689E+03  0.12499815346E+03 0.  0.
          5    1    3    3  501    0 -0.96574882901E+02  0.87138327290E+02 -0.24661023151E+03  0.27885209767E+03  0.47000000000E+01 0. -1.
         -5    1    3    3    0  501 -0.18705268898E+03 -0.44252113932E+01 -0.24844898843E+03  0.31105832379E+03  0.47000000000E+01 0. -1.
          5    1    4    4  502    0  0.57295108542E+02  0.27494055189E+02 -0.73523815030E+02  0.97295909011E+02  0.47000000000E+01 0. -1.
         -5    1    4    4    0  502  0.22633246334E+03 -0.11020717109E+03 -0.50163888213E+03  0.56128037787E+03  0.47000000000E+01 0. -1.
<mgrwt>
<rscale>  0 0.64291843E+03</rscale>
<asrwt>0</asrwt>
<pdfrwt beam="1">  1       21 0.13712676E-01 0.64291843E+03</pdfrwt>
<pdfrwt beam="2">  1       21 0.17836220E+00 0.64291843E+03</pdfrwt>
<totfact> 0.71046061E+03</totfact>
</mgrwt>
</event>
<event>
 8    1  0.9569852E-006  0.3346318E+03  0.7546771E-02  0.1069106E+00
         21   -1    0    0  504  503  0.00000000000E+00  0.00000000000E+00  0.87700478371E+03  0.87700478371E+03  0.00000000000E+00 0.  1.
         21   -1    0    0  503  504 -0.00000000000E+00 -0.00000000000E+00 -0.31920704943E+02  0.31920704943E+02  0.00000000000E+00 0.  1.
         25    2    1    2    0    0  0.97326696309E+01  0.33138704114E+02  0.13537898039E+03  0.18746890888E+03  0.12499689954E+03 0.  0.
         25    2    1    2    0    0 -0.97326696309E+01 -0.33138704114E+02  0.70970509837E+03  0.72145657977E+03  0.12500148509E+03 0.  0.
          5    1    3    3  501    0  0.29018297740E+02  0.95887987937E+01 -0.14717667506E+02  0.34244801107E+02  0.47000000000E+01 0. -1.
         -5    1    3    3    0  501 -0.19285628109E+02  0.23549905321E+02  0.15009664790E+03  0.15322410777E+03  0.47000000000E+01 0. -1.
          5    1    4    4  502    0  0.56016820916E+02 -0.29941700069E+02  0.34878760724E+03  0.35455503747E+03  0.47000000000E+01 0.  1.
         -5    1    4    4    0  502 -0.65749490547E+02 -0.31970040451E+01  0.36091749113E+03  0.36690154230E+03  0.47000000000E+01 0.  1.
<mgrwt>
<rscale>  0 0.33463180E+03</rscale>
<asrwt>0</asrwt>
<pdfrwt beam="1">  1       21 0.13492379E+00 0.33463180E+03</pdfrwt>
<pdfrwt beam="2">  1       21 0.49108784E-02 0.33463180E+03</pdfrwt>
<totfact> 0.10356373E+05</totfact>
</mgrwt>
</event>
<event>
 8    1  0.9569852E-006  0.3031412E+03  0.7546771E-02  0.1083681E+00
         21   -1    0    0  504  503  0.00000000000E+00  0.00000000000E+00  0.31186185849E+02  0.31186185849E+02  0.00000000000E+00 0.  1.
         21   -1    0    0  503  504 -0.00000000000E+00 -0.00000000000E+00 -0.73666085799E+03  0.73666085799E+03  0.00000000000E+00 0.  1.
         25    2    1    2    0    0 -0.72267370018E+01 -0.84551615597E+02 -0.32193174847E+03  0.35561961628E+03  0.12499623747E+03 0.  0.
         25    2    1    2    0    0  0.72267370018E+01  0.84551615597E+02 -0.38354292367E+03  0.41222742756E+03  0.12500030524E+03 0.  0.
          5    1    3    3  501    0 -0.32813767944E+02 -0.10987924631E+03 -0.24384229205E+03  0.26950203251E+03  0.47000000000E+01 0.  1.
         -5    1    3    3    0  501  0.25587030942E+02  0.25327630709E+02 -0.78089456420E+02  0.86117583767E+02  0.47000000000E+01 0.  1.
          5    1    4    4  502    0  0.16500182438E+02  0.11059253073E+03 -0.35497032834E+03  0.37219482516E+03  0.47000000000E+01 0. -1.
         -5    1    4    4    0  502 -0.92734454362E+01 -0.26040915133E+02 -0.28572595332E+02  0.40032602404E+02  0.47000000000E+01 0. -1.
<mgrwt>
<rscale>  0 0.30314117E+03</rscale>
<asrwt>0</asrwt>
<pdfrwt beam="1">  1       21 0.47978750E-02 0.30314117E+03</pdfrwt>
<pdfrwt beam="2">  1       21 0.11333243E+00 0.30314117E+03</pdfrwt>
<totfact> 0.16909055E+05</totfact>
</mgrwt>
</event>
<event>
 8    1  0.9569852E-006  0.2897171E+03  0.7546771E-02  0.1090497E+00
         21   -1    0    0  504  503  0.00000000000E+00  0.00000000000E+00  0.10659723347E+04  0.10659723347E+04  0.00000000000E+00 0. -1.
         21   -1    0    0  503  504 -0.00000000000E+00 -0.00000000000E+00 -0.19685308926E+02  0.19685308926E+02  0.00000000000E+00 0. -1.
         25    2    1    2    0    0 -0.36348743621E+02  0.17147036247E+02  0.75243406956E+03  0.76380428000E+03  0.12499878843E+03 0.  0.
         25    2    1    2    0    0  0.36348743621E+02 -0.17147036247E+02  0.29385295621E+03  0.32185336361E+03  0.12499910312E+03 0.  0.
          5    1    3    3  501    0 -0.55641208061E+02 -0.41298713575E+02  0.41475920372E+03  0.42053396396E+03  0.47000000000E+01 0.  1.
         -5    1    3    3    0  501  0.19292464439E+02  0.58445749821E+02  0.33767486584E+03  0.34327031604E+03  0.47000000000E+01 0.  1.
          5    1    4    4  502    0 -0.16383687897E+02 -0.60360843677E+02  0.15038853483E+03  0.16294372674E+03  0.47000000000E+01 0. -1.
         -5    1    4    4    0  502  0.52732431518E+02  0.43213807430E+02  0.14346442138E+03  0.15890963687E+03  0.47000000000E+01 0. -1.
<mgrwt>
<rscale>  0 0.28971707E+03</rscale>
<asrwt>0</asrwt>
<pdfrwt beam="1">  1       21 0.16399570E+00 0.28971707E+03</pdfrwt>
<pdfrwt beam="2">  1       21 0.30285099E-02 0.28971707E+03</pdfrwt>
<totfact> 0.14100557E+05</totfact>
</mgrwt>
</event>
<event>
 8    1  0.9569852E-006  0.3167840E+03  0.7546771E-02  0.1077139E+00
         21   -1    0    0  504  503  0.00000000000E+00  0.00000000000E+00  0.14748630029E+03  0.14748630029E+03  0.00000000000E+00 0. -1.
         21   -1    0    0  503  504 -0.00000000000E+00 -0.00000000000E+00 -0.17010413692E+03  0.17010413692E+03  0.00000000000E+00 0. -1.
         25    2    1    2    0    0 -0.20270426073E+02  0.41316084894E+02  0.74610584843E+02  0.15267597233E+03  0.12500121644E+03 0.  0.
         25    2    1    2    0    0  0.20270426073E+02 -0.41316084894E+02 -0.97228421469E+02  0.16491446488E+03  0.12500202295E+03 0.  0.
          5    1    3    3  501    0 -0.72473220296E+01 -0.12673873145E+02  0.92790114673E+02  0.94049168620E+02  0.47000000000E+01 0.  1.
         -5    1    3    3    0  501 -0.13023104044E+02  0.53989958040E+02 -0.18179529830E+02  0.58626803707E+02  0.47000000000E+01 0.  1.
          5    1    4    4  502    0 -0.31311015659E+02 -0.67720046136E+02 -0.60255966158E+02  0.96016955836E+02  0.47000000000E+01 0. -1.
         -5    1    4    4    0  502  0.51581441733E+02  0.26403961242E+02 -0.36972455311E+02  0.68897509042E+02  0.47000000000E+01 0. -1.
<mgrwt>
<rscale>  0 0.31678403E+03</rscale>
<asrwt>0</asrwt>
<pdfrwt beam="1">  1       21 0.22690200E-01 0.31678403E+03</pdfrwt>
<pdfrwt beam="2">  1       21 0.26169867E-01 0.31678403E+03</pdfrwt>
<totfact> 0.24522701E+05</totfact>
</mgrwt>
</event>
<event>
 8    1  0.9569852E-006  0.4042546E+03  0.7546771E-02  0.1042316E+00
         21   -1    0    0  504  503  0.00000000000E+00  0.00000000000E+00  0.90228216447E+02  0.90228216447E+02  0.00000000000E+00 0.  1.
         21   -1    0    0  503  504 -0.00000000000E+00 -0.00000000000E+00 -0.45280121774E+03  0.45280121774E+03  0.00000000000E+00 0.  1.
         25    2    1    2    0    0  0.45878432902E+02  0.55142099092E+02 -0.37166441186E+03  0.39862739994E+03  0.12499554889E+03 0.  0.
         25    2    1    2    0    0 -0.45878432902E+02 -0.55142099092E+02  0.90914105662E+01  0.14440203425E+03  0.12499524811E+03 0.  0.
          5    1    3    3  501    0 -0.22353612369E+02  0.66619453120E+02 -0.13864028605E+03  0.15550258659E+03  0.47000000000E+01 0.  1.
         -5    1    3    3    0  501  0.68232045271E+02 -0.11477354029E+02 -0.23302412581E+03  0.24312481335E+03  0.47000000000E+01 0.  1.
          5    1    4    4  502    0 -0.83284108848E+02 -0.22366841880E+02  0.28299377737E+02  0.90881588799E+02  0.47000000000E+01 0.  1.
         -5    1    4    4    0  502  0.37405675946E+02 -0.32775257212E+02 -0.19207967171E+02  0.53520445449E+02  0.47000000000E+01 0.  1.
<mgrwt>
<rscale>  0 0.40425460E+03</rscale>
<asrwt>0</asrwt>
<pdfrwt beam="1">  1       21 0.13881264E-01 0.40425460E+03</pdfrwt>
<pdfrwt beam="2">  1       21 0.69661726E-01 0.40425460E+03</pdfrwt>
<totfact> 0.79193495E+04</totfact>
</mgrwt>
</event>
<event>
 8    1  0.9569852E-006  0.5007331E+03  0.7546771E-02  0.1013588E+00
         21   -1    0    0  504  503  0.00000000000E+00  0.00000000000E+00  0.57790592521E+02  0.57790592521E+02  0.00000000000E+00 0. -1.
         21   -1    0    0  503  504 -0.00000000000E+00 -0.00000000000E+00 -0.10846647792E+04  0.10846647792E+04  0.00000000000E+00 0. -1.
         25    2    1    2    0    0 -0.16473337483E+03 -0.28366867689E+02 -0.82889589011E+03  0.85477191598E+03  0.12499947094E+03 0.  0.
         25    2    1    2    0    0  0.16473337483E+03  0.28366867689E+02 -0.19797829656E+03  0.28768345574E+03  0.12499840332E+03 0.  0.
          5    1    3    3  501    0 -0.15218507024E+03  0.23884746153E+02 -0.58284004930E+03  0.60287261488E+03  0.47000000000E+01 0.  1.
         -5    1    3    3    0  501 -0.12548304592E+02 -0.52251613842E+02 -0.24605584081E+03  0.25189930110E+03  0.47000000000E+01 0.  1.
          5    1    4    4  502    0  0.70391101191E+02 -0.48356069167E+02 -0.64986943108E+02  0.10741791902E+03  0.47000000000E+01 0.  1.
         -5    1    4    4    0  502  0.94342273637E+02  0.76722936856E+02 -0.13299135345E+03  0.18026553672E+03  0.47000000000E+01 0.  1.
<mgrwt>
<rscale>  0 0.50073314E+03</rscale>
<asrwt>0</asrwt>
<pdfrwt beam="1">  1       21 0.88908608E-02 0.50073314E+03</pdfrwt>
<pdfrwt beam="2">  1       21 0.16687150E+00 0.50073314E+03</pdfrwt>
<totfact> 0.19656347E+04</totfact>
</mgrwt>
</event>
<event>
 8    1  0.9569852E-006  0.2985826E+03  0.7546771E-02  0.1085951E+00
         21   -1    0    0  504  503  0.00000000000E+00  0.00000000000E+00  0.21799306592E+02  0.21799306592E+02  0.00000000000E+00 0. -1.
         21   -1    0    0  503  504 -0.00000000000E+00 -0.00000000000E+00 -0.10224126713E+04  0.10224126713E+04  0.00000000000E+00 0. -1.
         25    2    1    2    0    0 -0.45409389416E+02 -0.67786136164E+02 -0.49164247364E+03  0.51380355010E+03  0.12499917323E+03 0.  0.
         25    2    1    2    0    0  0.45409389416E+02  0.67786136164E+02 -0.50897089109E+03  0.53040842782E+03  0.12499903765E+03 0.  0.
          5    1    3    3  501    0 -0.21821766416E+02  0.33881317751E+02 -0.19840513716E+03  0.20251128767E+03  0.47000000000E+01 0.  1.
         -5    1    3    3    0  501 -0.23587623000E+02 -0.10166745391E+03 -0.29323733647E+03  0.31129226242E+03  0.47000000000E+01 0.  1.
          5    1    4    4  502    0 -0.10731974335E+02  0.32579475365E+02 -0.27066374734E+02  0.43946286868E+02  0.47000000000E+01 0.  1.
         -5    1    4    4    0  502  0.56141363751E+02  0.35206660798E+02 -0.48190451636E+03  0.48646214095E+03  0.47000000000E+01 0.  1.
<mgrwt>
<rscale>  0 0.29858257E+03</rscale>
<asrwt>0</asrwt>
<pdfrwt beam="1">  1       21 0.33537401E-02 0.29858257E+03</pdfrwt>
<pdfrwt beam="2">  1       21 0.15729423E+00 0.29858257E+03</pdfrwt>
<totfact> 0.13291619E+05</totfact>
</mgrwt>
</event>
<event>
 8    1  0.9569852E-006  0.2555187E+03  0.7546771E-02  0.1109866E+00
         21   -1    0    0  504  503  0.00000000000E+00  0.00000000000E+00  0.87107730673E+03  0.87107730673E+03  0.00000000000E+00 0.  1.
         21   -1    0    0  503  504 -0.00000000000E+00 -0.00000000000E+00 -0.18738236543E+02  0.18738236543E+02  0.00000000000E+00 0.  1.
         25    2    1    2    0    0  0.95314465127E+00  0.10314988981E+02  0.34155673894E+03  0.36385918311E+03  0.12500076691E+03 0.  0.
         25    2    1    2    0    0 -0.95314465127E+00 -0.10314988981E+02  0.51078233124E+03  0.52595636017E+03  0.12499678159E+03 0.  0.
          5    1    3    3  501    0  0.11751077348E+01  0.28255407697E+02  0.34396386121E+03  0.34515645258E+03  0.47000000000E+01 0.  1.
         -5    1    3    3    0  501 -0.22196308356E+00 -0.17940418716E+02 -0.24071222656E+01  0.18702730520E+02  0.47000000000E+01 0.  1.
          5    1    4    4  502    0  0.30964806535E+02 -0.13983797238E+01  0.47826099013E+03  0.47928742879E+03  0.47000000000E+01 0. -1.
         -5    1    4    4    0  502 -0.31917951187E+02 -0.89166092574E+01  0.32521341105E+02  0.46668931377E+02  0.47000000000E+01 0. -1.
<mgrwt>
<rscale>  0 0.25551871E+03</rscale>
<asrwt>0</asrwt>
<pdfrwt beam="1">  1       21 0.13401186E+00 0.25551871E+03</pdfrwt>
<pdfrwt beam="2">  1       21 0.28828063E-02 0.25551871E+03</pdfrwt>
<totfact> 0.26492917E+05</totfact>
</mgrwt>
</event>
<event>
 8    1  0.9569852E-006  0.3169595E+03  0.7546771E-02  0.1077057E+00
         21   -1    0    0  504  503  0.00000000000E+00  0.00000000000E+00  0.37150392242E+02  0.37150392242E+02  0.00000000000E+00 0.  1.
         21   -1    0    0  503  504 -0.00000000000E+00 -0.00000000000E+00 -0.67605845147E+03  0.67605845147E+03  0.00000000000E+00 0.  1.
         25    2    1    2    0    0  0.23560714343E+02 -0.42920788631E+02 -0.12992019238E+03  0.18681524279E+03  0.12499350860E+03 0.  0.
         25    2    1    2    0    0 -0.23560714343E+02  0.42920788631E+02 -0.50898786685E+03  0.52639360092E+03  0.12499709253E+03 0.  0.
          5    1    3    3  501    0 -0.37753634363E+02 -0.58673558109E+02 -0.78436917944E+02  0.10508265045E+03  0.47000000000E+01 0. -1.
         -5    1    3    3    0  501  0.61314348706E+02  0.15752769478E+02 -0.51483274436E+02  0.81732592337E+02  0.47000000000E+01 0. -1.
          5    1    4    4  502    0  0.56149884844E+01  0.38451398886E+01 -0.44840009124E+03  0.44847635948E+03  0.47000000000E+01 0.  1.
         -5    1    4    4    0  502 -0.29175702827E+02  0.39075648743E+02 -0.60587775610E+02  0.77917241439E+02  0.47000000000E+01 0.  1.
<mgrwt>
<rscale>  0 0.31695953E+03</rscale>
<asrwt>0</asrwt>
<pdfrwt beam="1">  1       21 0.57154453E-02 0.31695953E+03</pdfrwt>
<pdfrwt beam="2">  1       21 0.10400899E+00 0.31695953E+03</pdfrwt>
<totfact> 0.15396238E+05</totfact>
</mgrwt>
</event>
<event>
 8    1  0.9569852E-006  0.2845516E+03  0.7546771E-02  0.1093229E+00
         21   -1    0    0  504  503  0.00000000000E+00  0.00000000000E+00  0.12511529739E+03  0.12511529739E+03  0.00000000000E+00 0. -1.
         21   -1    0    0  503  504 -0.00000000000E+00 -0.00000000000E+00 -0.16178997338E+03  0.16178997338E+03  0.00000000000E+00 0. -1.
         25    2    1    2    0    0  0.88979399019E+01  0.55426658966E+02 -0.56969243973E+02  0.14838582840E+03  0.12498628506E+03 0.  0.
         25    2    1    2    0    0 -0.88979399019E+01 -0.55426658966E+02  0.20294567986E+02  0.13851944236E+03  0.12499791424E+03 0.  0.
          5    1    3    3  501    0  0.57818995721E+02 -0.14625763461E+01 -0.77850581255E+01  0.58548036054E+02  0.47000000000E+01 0. -1.
         -5    1    3    3    0  501 -0.48921055819E+02  0.56889235312E+02 -0.49184185847E+02  0.89837792350E+02  0.47000000000E+01 0. -1.
          5    1    4    4  502    0  0.12177732438E+02  0.37443492312E+02  0.16919349894E+02  0.43112256780E+02  0.47000000000E+01 0.  1.
         -5    1    4    4    0  502 -0.21075672340E+02 -0.92870151278E+02  0.33752180917E+01  0.95407185579E+02  0.47000000000E+01 0.  1.
<mgrwt>
<rscale>  0 0.28455158E+03</rscale>
<asrwt>0</asrwt>
<pdfrwt beam="1">  1       21 0.19248507E-01 0.28455158E+03</pdfrwt>
<pdfrwt beam="2">  1       21 0.24890765E-01 0.28455158E+03</pdfrwt>
<totfact> 0.37128990E+05</totfact>
</mgrwt>
</event>
<event>
 8    1  0.9569852E-006  0.5949717E+03  0.7546771E-02  0.9915893E-01
         21   -1    0    0  504  503  0.00000000000E+00  0.00000000000E+00  0.19428162808E+03  0.19428162808E+03  0.00000000000E+00 0. -1.
         21   -1    0    0  503  504 -0.00000000000E+00 -0.00000000000E+00 -0.45551316736E+03  0.45551316736E+03  0.00000000000E+00 0. -1.
         25    2    1    2    0    0 -0.18562250943E+03 -0.16142039969E+03 -0.91949600198E+01  0.27608378783E+03  0.12500179667E+03 0.  0.
         25    2    1    2    0    0  0.18562250943E+03  0.16142039969E+03 -0.25203657926E+03  0.37371100761E+03  0.12500087392E+03 0.  0.
          5    1    3    3  501    0 -0.49972742844E+01 -0.70167778457E+02  0.15425582353E+02  0.72170135616E+02  0.47000000000E+01 0.  1.
         -5    1    3    3    0  501 -0.18062523514E+03 -0.91252621233E+02 -0.24620542373E+02  0.20391365221E+03  0.47000000000E+01 0.  1.
          5    1    4    4  502    0  0.16361708184E+03  0.10204874271E+03 -0.11991730349E+03  0.22712715610E+03  0.47000000000E+01 0. -1.
         -5    1    4    4    0  502  0.22005427584E+02  0.59371656979E+02 -0.13211927576E+03  0.14658385151E+03  0.47000000000E+01 0. -1.
<mgrwt>
<rscale>  0 0.59497173E+03</rscale>
<asrwt>0</asrwt>
<pdfrwt beam="1">  1       21 0.29889482E-01 0.59497173E+03</pdfrwt>
<pdfrwt beam="2">  1       21 0.70078948E-01 0.59497173E+03</pdfrwt>
<totfact> 0.17308847E+04</totfact>
</mgrwt>
</event>
<event>
 8    1  0.9569852E-006  0.4034487E+03  0.7546771E-02  0.1042592E+00
         21   -1    0    0  504  503  0.00000000000E+00  0.00000000000E+00  0.12218043170E+03  0.12218043170E+03  0.00000000000E+00 0.  1.
         21   -1    0    0  503  504 -0.00000000000E+00 -0.00000000000E+00 -0.33305420484E+03  0.33305420484E+03  0.00000000000E+00 0.  1.
         25    2    1    2    0    0  0.87849317177E+02 -0.12883395924E+03 -0.74506841774E+02  0.21328746071E+03  0.12499831937E+03 0.  0.
         25    2    1    2    0    0 -0.87849317177E+02  0.12883395924E+03 -0.13636693137E+03  0.24194717583E+03  0.12500721716E+03 0.  0.
          5    1    3    3  501    0  0.18254891462E+01 -0.61765537894E+02  0.23786785598E+02  0.66379328492E+02  0.47000000000E+01 0. -1.
         -5    1    3    3    0  501  0.86023828031E+02 -0.67068421345E+02 -0.98293627372E+02  0.14690813222E+03  0.47000000000E+01 0. -1.
          5    1    4    4  502    0 -0.49856420517E+02 -0.44016571052E+01 -0.75131312402E+02  0.90398237567E+02  0.47000000000E+01 0. -1.
         -5    1    4    4    0  502 -0.37992896659E+02  0.13323561634E+03 -0.61235618968E+02  0.15154893827E+03  0.47000000000E+01 0. -1.
<mgrwt>
<rscale>  0 0.40344867E+03</rscale>
<asrwt>0</asrwt>
<pdfrwt beam="1">  1       21 0.18796990E-01 0.40344867E+03</pdfrwt>
<pdfrwt beam="2">  1       21 0.51239108E-01 0.40344867E+03</pdfrwt>
<totfact> 0.88110626E+04</totfact>
</mgrwt>
</event>
<event>
 8    1  0.9569852E-006  0.2808124E+03  0.7546771E-02  0.1095246E+00
         21   -1    0    0  504  503  0.00000000000E+00  0.00000000000E+00  0.34355489384E+03  0.34355489384E+03  0.00000000000E+00 0. -1.
         21   -1    0    0  503  504 -0.00000000000E+00 -0.00000000000E+00 -0.57382119159E+02  0.57382119159E+02  0.00000000000E+00 0. -1.
         25    2    1    2    0    0  0.32094299956E+02  0.40066297144E+01  0.64362823202E+02  0.14428232083E+03  0.12501487081E+03 0.  0.
         25    2    1    2    0    0 -0.32094299956E+02 -0.40066297144E+01  0.22180995148E+03  0.25665469216E+03  0.12500351700E+03 0.  0.
          5    1    3    3  501    0  0.46328956944E+02  0.53567414599E+02  0.14593095700E+02  0.72463015397E+02  0.47000000000E+01 0. -1.
         -5    1    3    3    0  501 -0.14234656988E+02 -0.49560784884E+02  0.49769727501E+02  0.71819305437E+02  0.47000000000E+01 0. -1.
          5    1    4    4  502    0  0.32869031229E+02 -0.11708588343E+02  0.16848847648E+03  0.17212762986E+03  0.47000000000E+01 0. -1.
         -5    1    4    4    0  502 -0.64963331185E+02  0.77019586286E+01  0.53321474997E+02  0.84527062301E+02  0.47000000000E+01 0. -1.
<mgrwt>
<rscale>  0 0.28081245E+03</rscale>
<asrwt>0</asrwt>
<pdfrwt beam="1">  1       21 0.52854598E-01 0.28081245E+03</pdfrwt>
<pdfrwt beam="2">  1       21 0.88280185E-02 0.28081245E+03</pdfrwt>
<totfact> 0.33578654E+05</totfact>
</mgrwt>
</event>
<event>
 8    1  0.9569852E-006  0.2890742E+03  0.7546771E-02  0.1090833E+00
         21   -1    0    0  504  503  0.00000000000E+00  0.00000000000E+00  0.12081984824E+03  0.12081984824E+03  0.00000000000E+00 0.  1.
         21   -1    0    0  503  504 -0.00000000000E+00 -0.00000000000E+00 -0.17291014747E+03  0.17291014747E+03  0.00000000000E+00 0.  1.
         25    2    1    2    0    0  0.71306942776E+02 -0.95059476089E+01 -0.35893724161E+02  0.14859933403E+03  0.12497343522E+03 0.  0.
         25    2    1    2    0    0 -0.71306942776E+02  0.95059476089E+01 -0.16196575075E+02  0.14513066169E+03  0.12500214714E+03 0.  0.
          5    1    3    3  501    0  0.74997784523E+02  0.12316243328E+00 -0.76027059263E+02  0.10689661638E+03  0.47000000000E+01 0.  1.
         -5    1    3    3    0  501 -0.36908417473E+01 -0.96291100422E+01  0.40133335102E+02  0.41702717650E+02  0.47000000000E+01 0.  1.
          5    1    4    4  502    0  0.27111467211E+02  0.32304812422E+01 -0.34987378131E+02  0.44628178227E+02  0.47000000000E+01 0.  1.
         -5    1    4    4    0  502 -0.98418409987E+02  0.62754663667E+01  0.18790803056E+02  0.10050248346E+03  0.47000000000E+01 0.  1.
<mgrwt>
<rscale>  0 0.28907423E+03</rscale>
<asrwt>0</asrwt>
<pdfrwt beam="1">  1       21 0.18587669E-01 0.28907423E+03</pdfrwt>
<pdfrwt beam="2">  1       21 0.26601561E-01 0.28907423E+03</pdfrwt>
<totfact> 0.34833606E+05</totfact>
</mgrwt>
</event>
<event>
 8    1  0.9569852E-006  0.4551659E+03  0.7546771E-02  0.1026193E+00
         21   -1    0    0  504  503  0.00000000000E+00  0.00000000000E+00  0.30382611133E+03  0.30382611133E+03  0.00000000000E+00 0.  1.
         21   -1    0    0  503  504 -0.00000000000E+00 -0.00000000000E+00 -0.17047253570E+03  0.17047253570E+03  0.00000000000E+00 0.  1.
         25    2    1    2    0    0 -0.88102765764E+02 -0.12406414003E+03  0.18555095816E+03  0.27057245308E+03  0.12500514435E+03 0.  0.
         25    2    1    2    0    0  0.88102765764E+02  0.12406414003E+03 -0.52197382533E+02  0.20372619396E+03  0.12500314869E+03 0.  0.
          5    1    3    3  501    0 -0.10202459766E+03 -0.11216212792E+03  0.19686997590E+03  0.24853418050E+03  0.47000000000E+01 0.  1.
         -5    1    3    3    0  501  0.13921831900E+02 -0.11902012113E+02 -0.11319017734E+02  0.22038272579E+02  0.47000000000E+01 0.  1.
          5    1    4    4  502    0  0.16758106038E+02  0.10209217188E+03 -0.72260897264E+02  0.12628290839E+03  0.47000000000E+01 0. -1.
         -5    1    4    4    0  502  0.71344659727E+02  0.21971968152E+02  0.20063514732E+02  0.77443285567E+02  0.47000000000E+01 0. -1.
<mgrwt>
<rscale>  0 0.45516594E+03</rscale>
<asrwt>0</asrwt>
<pdfrwt beam="1">  1       21 0.46742478E-01 0.45516594E+03</pdfrwt>
<pdfrwt beam="2">  1       21 0.26226544E-01 0.45516594E+03</pdfrwt>
<totfact> 0.55830971E+04</totfact>
</mgrwt>
</event>
<event>
 8    1  0.9569852E-006  0.2778269E+03  0.7546771E-02  0.1096882E+00
         21   -1    0    0  504  503  0.00000000000E+00  0.00000000000E+00  0.17440841229E+03  0.17440841229E+03  0.00000000000E+00 0. -1.
         21   -1    0    0  503  504 -0.00000000000E+00 -0.00000000000E+00 -0.11064229067E+03  0.11064229067E+03  0.00000000000E+00 0. -1.
         25    2    1    2    0    0 -0.13543061602E+02  0.65129382250E+01 -0.28344952259E+02  0.12905087041E+03  0.12499943181E+03 0.  0.
         25    2    1    2    0    0  0.13543061602E+02 -0.65129382250E+01  0.92111073876E+02  0.15599983254E+03  0.12500265974E+03 0.  0.
          5    1    3    3  501    0 -0.55720937377E+02  0.32567430575E+02  0.10930574718E+02  0.65627950296E+02  0.47000000000E+01 0. -1.
         -5    1    3    3    0  501  0.42177875774E+02 -0.26054492350E+02 -0.39275526977E+02  0.63422920114E+02  0.47000000000E+01 0. -1.
          5    1    4    4  502    0 -0.49534996106E+02 -0.29237055589E+02  0.32920770989E+02  0.66440864092E+02  0.47000000000E+01 0. -1.
         -5    1    4    4    0  502  0.63078057708E+02  0.22724117364E+02  0.59190302887E+02  0.89558968451E+02  0.47000000000E+01 0. -1.
<mgrwt>
<rscale>  0 0.27782690E+03</rscale>
<asrwt>0</asrwt>
<pdfrwt beam="1">  1       21 0.26832063E-01 0.27782690E+03</pdfrwt>
<pdfrwt beam="2">  1       21 0.17021891E-01 0.27782690E+03</pdfrwt>
<totfact> 0.40443616E+05</totfact>
</mgrwt>
</event>
<event>
 8    1  0.9569852E-006  0.3738475E+03  0.7546771E-02  0.1053231E+00
         21   -1    0    0  504  503  0.00000000000E+00  0.00000000000E+00  0.24980062025E+02  0.24980062025E+02  0.00000000000E+00 0. -1.
         21   -1    0    0  503  504 -0.00000000000E+00 -0.00000000000E+00 -0.13987353408E+04  0.13987353408E+04  0.00000000000E+00 0. -1.
         25    2    1    2    0    0 -0.39869782082E+02 -0.12660415063E+03 -0.84379145151E+03  0.86326519183E+03  0.12499826917E+03 0.  0.
         25    2    1    2    0    0  0.39869782082E+02  0.12660415063E+03 -0.52996382727E+03  0.56045021100E+03  0.12499828128E+03 0.  0.
          5    1    3    3  501    0  0.20424495478E+02  0.14782132910E+02 -0.18468889844E+03  0.18646112376E+03  0.47000000000E+01 0. -1.
         -5    1    3    3    0  501 -0.60294277560E+02 -0.14138628354E+03 -0.65910255307E+03  0.67680406806E+03  0.47000000000E+01 0. -1.
          5    1    4    4  502    0  0.14171217708E+02 -0.22180461378E+02 -0.43387607145E+02  0.50964406521E+02  0.47000000000E+01 0.  1.
         -5    1    4    4    0  502  0.25698564374E+02  0.14878461200E+03 -0.48657622012E+03  0.50948580448E+03  0.47000000000E+01 0.  1.
<mgrwt>
<rscale>  0 0.37384754E+03</rscale>
<asrwt>0</asrwt>
<pdfrwt beam="1">  1       21 0.38430875E-02 0.37384754E+03</pdfrwt>
<pdfrwt beam="2">  1       21 0.21518999E+00 0.37384754E+03</pdfrwt>
<totfact> 0.41131990E+04</totfact>
</mgrwt>
</event>
<event>
 8    1  0.9569852E-006  0.2852717E+03  0.7546771E-02  0.1092844E+00
         21   -1    0    0  504  503  0.00000000000E+00  0.00000000000E+00  0.12196170645E+04  0.12196170645E+04  0.00000000000E+00 0.  1.
         21   -1    0    0  503  504 -0.00000000000E+00 -0.00000000000E+00 -0.16681458795E+02  0.16681458795E+02  0.00000000000E+00 0.  1.
         25    2    1    2    0    0 -0.61276907116E+02 -0.30331677057E+02  0.63030892025E+03  0.64621258285E+03  0.12500598913E+03 0.  0.
         25    2    1    2    0    0  0.61276907116E+02  0.30331677057E+02  0.57262668542E+03  0.59008594041E+03  0.12500090490E+03 0.  0.
          5    1    3    3  501    0 -0.16861329046E+02 -0.51169057627E+02  0.54510577654E+03  0.54778186762E+03  0.47000000000E+01 0. -1.
         -5    1    3    3    0  501 -0.44415578069E+02  0.20837380569E+02  0.85203143710E+02  0.98430715238E+02  0.47000000000E+01 0. -1.
          5    1    4    4  502    0  0.14269283704E+02  0.47468766799E+02  0.75584404495E+02  0.90509604362E+02  0.47000000000E+01 0. -1.
         -5    1    4    4    0  502  0.47007623412E+02 -0.17137089742E+02  0.49704228093E+03  0.49957633604E+03  0.47000000000E+01 0. -1.
<mgrwt>
<rscale>  0 0.28527174E+03</rscale>
<asrwt>0</asrwt>
<pdfrwt beam="1">  1       21 0.18763332E+00 0.28527174E+03</pdfrwt>
<pdfrwt beam="2">  1       21 0.25663792E-02 0.28527174E+03</pdfrwt>
<totfact> 0.12691981E+05</totfact>
</mgrwt>
</event>
<event>
 8    1  0.9569852E-006  0.6815581E+03  0.7546771E-02  0.9749301E-01
         21   -1    0    0  504  503  0.00000000000E+00  0.00000000000E+00  0.84963354539E+02  0.84963354539E+02  0.00000000000E+00 0.  1.
         21   -1    0    0  503  504 -0.00000000000E+00 -0.00000000000E+00 -0.13668289761E+04  0.13668289761E+04  0.00000000000E+00 0.  1.
         25    2    1    2    0    0  0.92131739209E+02  0.26817184407E+03 -0.94293873561E+03  0.99255386102E+03  0.12500125033E+03 0.  0.
         25    2    1    2    0    0 -0.92131739209E+02 -0.26817184407E+03 -0.33892688594E+03  0.45923846962E+03  0.12499657050E+03 0.  0.
          5    1    3    3  501    0  0.11205542696E+03  0.20873127343E+03 -0.83151873934E+03  0.86462169016E+03  0.47000000000E+01 0. -1.
         -5    1    3    3    0  501 -0.19923687749E+02  0.59440570643E+02 -0.11141999627E+03  0.12793217086E+03  0.47000000000E+01 0. -1.
          5    1    4    4  502    0 -0.34072865855E+02 -0.88099848343E+02 -0.34293298834E+02  0.10060150998E+03  0.47000000000E+01 0.  1.
         -5    1    4    4    0  502 -0.58058873354E+02 -0.18007199573E+03 -0.30463358711E+03  0.35863695963E+03  0.47000000000E+01 0.  1.
<mgrwt>
<rscale>  0 0.68155814E+03</rscale>
<asrwt>0</asrwt>
<pdfrwt beam="1">  1       21 0.13071284E-01 0.68155814E+03</pdfrwt>
<pdfrwt beam="2">  1       21 0.21028140E+00 0.68155814E+03</pdfrwt>
<totfact> 0.46379733E+03</totfact>
</mgrwt>
</event>
<event>
 8    1  0.9569852E-006  0.3254832E+03  0.7546771E-02  0.1073153E+00
         21   -1    0    0  504  503  0.00000000000E+00  0.00000000000E+00  0.16263805044E+03  0.16263805044E+03  0.00000000000E+00 0. -1.
         21   -1    0    0  503  504 -0.00000000000E+00 -0.00000000000E+00 -0.16284523785E+03  0.16284523785E+03  0.00000000000E+00 0. -1.
         25    2    1    2    0    0  0.10147807862E+03 -0.23671090387E+02  0.97431299242E+00  0.16274024065E+03  0.12500126272E+03 0.  0.
         25    2    1    2    0    0 -0.10147807862E+03  0.23671090387E+02 -0.11815004082E+01  0.16274304764E+03  0.12500313056E+03 0.  0.
          5    1    3    3  501    0 -0.27301309142E+02  0.85085657092E+01  0.68842334889E+01  0.29786571505E+02  0.47000000000E+01 0.  1.
         -5    1    3    3    0  501  0.12877938776E+03 -0.32179656096E+02 -0.59099204965E+01  0.13295366915E+03  0.47000000000E+01 0.  1.
          5    1    4    4  502    0  0.27394871391E+02 -0.24812806757E+01  0.12249142141E+02  0.30475682364E+02  0.47000000000E+01 0. -1.
         -5    1    4    4    0  502 -0.12887295001E+03  0.26152371063E+02 -0.13430642549E+02  0.13226736527E+03  0.47000000000E+01 0. -1.
<mgrwt>
<rscale>  0 0.32548322E+03</rscale>
<asrwt>0</asrwt>
<pdfrwt beam="1">  1       21 0.25021239E-01 0.32548322E+03</pdfrwt>
<pdfrwt beam="2">  1       21 0.25053113E-01 0.32548322E+03</pdfrwt>
<totfact> 0.22072773E+05</totfact>
</mgrwt>
</event>
<event>
 8    1  0.9569852E-006  0.2929988E+03  0.7546771E-02  0.1088794E+00
         21   -1    0    0  504  503  0.00000000000E+00  0.00000000000E+00  0.90512951589E+03  0.90512951589E+03  0.00000000000E+00 0. -1.
         21   -1    0    0  503  504 -0.00000000000E+00 -0.00000000000E+00 -0.23711602806E+02  0.23711602806E+02  0.00000000000E+00 0. -1.
         25    2    1    2    0    0  0.42228634674E+02  0.51129012345E+02  0.56094509035E+03  0.57851985183E+03  0.12501356363E+03 0.  0.
         25    2    1    2    0    0 -0.42228634674E+02 -0.51129012345E+02  0.32047282274E+03  0.35032126686E+03  0.12499890565E+03 0.  0.
          5    1    3    3  501    0  0.16521466749E+02  0.65819144070E+02  0.53367649092E+03  0.53799424305E+03  0.47000000000E+01 0.  1.
         -5    1    3    3    0  501  0.25707167926E+02 -0.14690131725E+02  0.27268599424E+02  0.40525608785E+02  0.47000000000E+01 0.  1.
          5    1    4    4  502    0 -0.36993965184E+02  0.80096361589E+01  0.26874321705E+03  0.27143639115E+03  0.47000000000E+01 0. -1.
         -5    1    4    4    0  502 -0.52346694899E+01 -0.59138648504E+02  0.51729605691E+02  0.78884875715E+02  0.47000000000E+01 0. -1.
<mgrwt>
<rscale>  0 0.29299878E+03</rscale>
<asrwt>0</asrwt>
<pdfrwt beam="1">  1       21 0.13925067E+00 0.29299878E+03</pdfrwt>
<pdfrwt beam="2">  1       21 0.36479396E-02 0.29299878E+03</pdfrwt>
<totfact> 0.15998444E+05</totfact>
</mgrwt>
</event>
<event>
 8    1  0.9569852E-006  0.2916254E+03  0.7546771E-02  0.1089504E+00
         21   -1    0    0  504  503  0.00000000000E+00  0.00000000000E+00  0.63962405236E+02  0.63962405236E+02  0.00000000000E+00 0. -1.
         21   -1    0    0  503  504 -0.00000000000E+00 -0.00000000000E+00 -0.33240384220E+03  0.33240384220E+03  0.00000000000E+00 0. -1.
         25    2    1    2    0    0 -0.66382479796E+02  0.32123797932E+02 -0.11510270753E+03  0.18523591948E+03  0.12500056227E+03 0.  0.
         25    2    1    2    0    0  0.66382479796E+02 -0.32123797932E+02 -0.15333872943E+03  0.21113032796E+03  0.12499870968E+03 0.  0.
          5    1    3    3  501    0 -0.46264539872E+02  0.49575859036E+02 -0.13534522835E+03  0.15145492493E+03  0.47000000000E+01 0. -1.
         -5    1    3    3    0  501 -0.20117939924E+02 -0.17452061104E+02  0.20242520818E+02  0.33780994548E+02  0.47000000000E+01 0. -1.
          5    1    4    4  502    0  0.68437810730E+02  0.24847119168E+02 -0.13055442783E+03  0.14955822242E+03  0.47000000000E+01 0. -1.
         -5    1    4    4    0  502 -0.20553309349E+01 -0.56970917100E+02 -0.22784301605E+02  0.61572105536E+02  0.47000000000E+01 0. -1.
<mgrwt>
<rscale>  0 0.29162544E+03</rscale>
<asrwt>0</asrwt>
<pdfrwt beam="1">  1       21 0.98403698E-02 0.29162544E+03</pdfrwt>
<pdfrwt beam="2">  1       21 0.51139054E-01 0.29162544E+03</pdfrwt>
<totfact> 0.29635970E+05</totfact>
</mgrwt>
</event>
<event>
 8    1  0.9569852E-006  0.4152053E+03  0.7546771E-02  0.1038638E+00
         21   -1    0    0  504  503  0.00000000000E+00  0.00000000000E+00  0.16148798739E+04  0.16148798739E+04  0.00000000000E+00 0. -1.
         21   -1    0    0  503  504 -0.00000000000E+00 -0.00000000000E+00 -0.26688582814E+02  0.26688582814E+02  0.00000000000E+00 0. -1.
         25    2    1    2    0    0  0.15564523198E+03 -0.48103430887E+02  0.91494629010E+03  0.93770527905E+03  0.12500039314E+03 0.  0.
         25    2    1    2    0    0 -0.15564523198E+03  0.48103430887E+02  0.67324500101E+03  0.70386317769E+03  0.12500065288E+03 0.  0.
          5    1    3    3  501    0  0.73120501028E+02  0.13403837614E+01  0.67772865566E+03  0.68167926842E+03  0.47000000000E+01 0.  1.
         -5    1    3    3    0  501  0.82524730953E+02 -0.49443814649E+02  0.23721763444E+03  0.25602601062E+03  0.47000000000E+01 0.  1.
          5    1    4    4  502    0 -0.60684295172E+02 -0.36984849749E+02  0.16250926999E+03  0.17743115742E+03  0.47000000000E+01 0. -1.
         -5    1    4    4    0  502 -0.94960936809E+02  0.85088280636E+02  0.51073573103E+03  0.52643202027E+03  0.47000000000E+01 0. -1.
<mgrwt>
<rscale>  0 0.41520528E+03</rscale>
<asrwt>0</asrwt>
<pdfrwt beam="1">  1       21 0.24844298E+00 0.41520528E+03</pdfrwt>
<pdfrwt beam="2">  1       21 0.41059371E-02 0.41520528E+03</pdfrwt>
<totfact> 0.22422037E+04</totfact>
</mgrwt>
</event>
<event>
 8    1  0.9569852E-006  0.6218850E+03  0.7546771E-02  0.9861014E-01
         21   -1    0    0  504  503  0.00000000000E+00  0.00000000000E+00  0.38730101524E+03  0.38730101524E+03  0.00000000000E+00 0.  1.
         21   -1    0    0  503  504 -0.00000000000E+00 -0.00000000000E+00 -0.24963850461E+03  0.24963850461E+03  0.00000000000E+00 0.  1.
         25    2    1    2    0    0 -0.13971533542E+03  0.23164683026E+03  0.15975577703E+03  0.33812182045E+03  0.12499531292E+03 0.  0.
         25    2    1    2    0    0  0.13971533542E+03 -0.23164683026E+03 -0.22093266398E+02  0.29881769940E+03  0.12499310436E+03 0.  0.
          5    1    3    3  501    0 -0.10271420413E+03  0.80021490550E+02  0.26752935235E+02  0.13300923360E+03  0.47000000000E+01 0. -1.
         -5    1    3    3    0  501 -0.37001131290E+02  0.15162533970E+03  0.13300284180E+03  0.20511258685E+03  0.47000000000E+01 0. -1.
          5    1    4    4  502    0  0.48199389591E+02 -0.14379128576E+02  0.27993253424E+02  0.57755110015E+02  0.47000000000E+01 0.  1.
         -5    1    4    4    0  502  0.91515945828E+02 -0.21726770168E+03 -0.50086519822E+02  0.24106258939E+03  0.47000000000E+01 0.  1.
<mgrwt>
<rscale>  0 0.62188503E+03</rscale>
<asrwt>0</asrwt>
<pdfrwt beam="1">  1       21 0.59584772E-01 0.62188503E+03</pdfrwt>
<pdfrwt beam="2">  1       21 0.38405923E-01 0.62188503E+03</pdfrwt>
<totfact> 0.14878908E+04</totfact>
</mgrwt>
</event>
<event>
 8    1  0.9569852E-006  0.2919635E+03  0.7546771E-02  0.1089328E+00
         21   -1    0    0  504  503  0.00000000000E+00  0.00000000000E+00  0.14760186140E+03  0.14760186140E+03  0.00000000000E+00 0.  1.
         21   -1    0    0  503  504 -0.00000000000E+00 -0.00000000000E+00 -0.14437945406E+03  0.14437945406E+03  0.00000000000E+00 0.  1.
         25    2    1    2    0    0 -0.52432796161E+02 -0.54044538110E+02 -0.25670456508E+01  0.14593795735E+03  0.12498514895E+03 0.  0.
         25    2    1    2    0    0  0.52432796161E+02  0.54044538110E+02  0.57894529937E+01  0.14604335811E+03  0.12500053787E+03 0.  0.
          5    1    3    3  501    0 -0.66862577366E+01  0.10321667761E+02 -0.51342137414E+02  0.53003282371E+02  0.47000000000E+01 0.  1.
         -5    1    3    3    0  501 -0.45746538425E+02 -0.64366205871E+02  0.48775091763E+02  0.92934674974E+02  0.47000000000E+01 0.  1.
          5    1    4    4  502    0 -0.41333654922E+02  0.14567172828E+02  0.11763991544E+01  0.44092487664E+02  0.47000000000E+01 0. -1.
         -5    1    4    4    0  502  0.93766451084E+02  0.39477365281E+02  0.46130538393E+01  0.10195087044E+03  0.47000000000E+01 0. -1.
<mgrwt>
<rscale>  0 0.29196353E+03</rscale>
<asrwt>0</asrwt>
<pdfrwt beam="1">  1       21 0.22707979E-01 0.29196353E+03</pdfrwt>
<pdfrwt beam="2">  1       21 0.22212224E-01 0.29196353E+03</pdfrwt>
<totfact> 0.33720606E+05</totfact>
</mgrwt>
</event>
<event>
 8    1  0.9569852E-006  0.3172195E+03  0.7546771E-02  0.1076936E+00
         21   -1    0    0  504  503  0.00000000000E+00  0.00000000000E+00  0.18041955041E+03  0.18041955041E+03  0.00000000000E+00 0. -1.
         21   -1    0    0  503  504 -0.00000000000E+00 -0.00000000000E+00 -0.13943638049E+03  0.13943638049E+03  0.00000000000E+00 0. -1.
         25    2    1    2    0    0  0.56502122451E+02 -0.54181327327E+02 -0.38327356068E+02  0.15239410692E+03  0.12500748588E+03 0.  0.
         25    2    1    2    0    0 -0.56502122451E+02  0.54181327327E+02  0.79310525997E+02  0.16746182398E+03  0.12500078754E+03 0.  0.
          5    1    3    3  501    0  0.15959085166E+01 -0.50114427914E+02 -0.71866831290E+02  0.87754967089E+02  0.47000000000E+01 0. -1.
         -5    1    3    3    0  501  0.54906213934E+02 -0.40668994132E+01  0.33539475222E+02  0.64639139827E+02  0.47000000000E+01 0. -1.
          5    1    4    4  502    0 -0.81745496512E+02 -0.56207539535E-01  0.67915180496E+02  0.10638087752E+03  0.47000000000E+01 0.  1.
         -5    1    4    4    0  502  0.25243374061E+02  0.54237534866E+02  0.11395345501E+02  0.61080946468E+02  0.47000000000E+01 0.  1.
<mgrwt>
<rscale>  0 0.31721948E+03</rscale>
<asrwt>0</asrwt>
<pdfrwt beam="1">  1       21 0.27756854E-01 0.31721948E+03</pdfrwt>
<pdfrwt beam="2">  1       21 0.21451751E-01 0.31721948E+03</pdfrwt>
<totfact> 0.24334958E+05</totfact>
</mgrwt>
</event>
<event>
 8    1  0.9569852E-006  0.2726754E+03  0.7546771E-02  0.1099758E+00
         21   -1    0    0  504  503  0.00000000000E+00  0.00000000000E+00  0.10263104998E+04  0.10263104998E+04  0.00000000000E+00 0.  1.
         21   -1    0    0  503  504 -0.00000000000E+00 -0.00000000000E+00 -0.18111450479E+02  0.18111450479E+02  0.00000000000E+00 0.  1.
         25    2    1    2    0    0  0.47510413324E+01  0.54219205602E+02  0.51094306498E+03  0.52881817422E+03  0.12499420420E+03 0.  0.
         25    2    1    2    0    0 -0.47510413324E+01 -0.54219205602E+02  0.49725598431E+03  0.51560377603E+03  0.12498578029E+03 0.  0.
          5    1    3    3  501    0  0.62281504404E+02  0.16875296462E+02  0.19397737807E+03  0.20448245554E+03  0.47000000000E+01 0.  1.
         -5    1    3    3    0  501 -0.57530463071E+02  0.37343909140E+02  0.31696568691E+03  0.32433571868E+03  0.47000000000E+01 0.  1.
          5    1    4    4  502    0 -0.27322823874E+02 -0.19404924296E+02  0.45479020109E+03  0.45604748086E+03  0.47000000000E+01 0.  1.
         -5    1    4    4    0  502  0.22571782542E+02 -0.34814281306E+02  0.42465783227E+02  0.59556295176E+02  0.47000000000E+01 0.  1.
<mgrwt>
<rscale>  0 0.27267542E+03</rscale>
<asrwt>0</asrwt>
<pdfrwt beam="1">  1       21 0.15789388E+00 0.27267542E+03</pdfrwt>
<pdfrwt beam="2">  1       21 0.27863778E-02 0.27267542E+03</pdfrwt>
<totfact> 0.18078765E+05</totfact>
</mgrwt>
</event>
<event>
 8    1  0.9569852E-006  0.3218139E+03  0.7546771E-02  0.1074818E+00
         21   -1    0    0  504  503  0.00000000000E+00  0.00000000000E+00  0.39967052952E+03  0.39967052952E+03  0.00000000000E+00 0. -1.
         21   -1    0    0  503  504 -0.00000000000E+00 -0.00000000000E+00 -0.64780982643E+02  0.64780982643E+02  0.00000000000E+00 0. -1.
         25    2    1    2    0    0 -0.42202052629E+02 -0.77964624303E+02  0.96754713747E+02  0.18123096148E+03  0.12499476341E+03 0.  0.
         25    2    1    2    0    0  0.42202052629E+02  0.77964624303E+02  0.23813483313E+03  0.28322055067E+03  0.12508471405E+03 0.  0.
          5    1    3    3  501    0  0.20338616064E+02 -0.23489823444E+02  0.92898549589E+02  0.98069677396E+02  0.47000000000E+01 0. -1.
         -5    1    3    3    0  501 -0.62540668693E+02 -0.54474800859E+02  0.38561641580E+01  0.83161284088E+02  0.47000000000E+01 0. -1.
          5    1    4    4  502    0  0.34949343077E+02 -0.27424216729E+02  0.47390420485E+02  0.65126693440E+02  0.47000000000E+01 0. -1.
         -5    1    4    4    0  502  0.72527095520E+01  0.10538884103E+03  0.19074441264E+03  0.21809385723E+03  0.47000000000E+01 0. -1.
<mgrwt>
<rscale>  0 0.32181392E+03</rscale>
<asrwt>0</asrwt>
<pdfrwt beam="1">  1       21 0.61487772E-01 0.32181392E+03</pdfrwt>
<pdfrwt beam="2">  1       21 0.99663053E-02 0.32181392E+03</pdfrwt>
<totfact> 0.19378555E+05</totfact>
</mgrwt>
</event>
<event>
 8    1  0.9569852E-006  0.3974023E+03  0.7546771E-02  0.1044683E+00
         21   -1    0    0  504  503  0.00000000000E+00  0.00000000000E+00  0.99955799527E+03  0.99955799527E+03  0.00000000000E+00 0.  1.
         21   -1    0    0  503  504 -0.00000000000E+00 -0.00000000000E+00 -0.39499614060E+02  0.39499614060E+02  0.00000000000E+00 0.  1.
         25    2    1    2    0    0 -0.31444130481E+02  0.12940154028E+03  0.68465955099E+03  0.70860250914E+03  0.12500129293E+03 0.  0.
         25    2    1    2    0    0  0.31444130481E+02 -0.12940154028E+03  0.27539883023E+03  0.33045510019E+03  0.12499026197E+03 0.  0.
          5    1    3    3  501    0 -0.45349315761E+02  0.12410631882E+03  0.67938562663E+03  0.69213138817E+03  0.47000000000E+01 0.  1.
         -5    1    3    3    0  501  0.13905185280E+02  0.52952214624E+01  0.52739243537E+01  0.16471120973E+02  0.47000000000E+01 0.  1.
          5    1    4    4  502    0  0.24585607341E+01  0.22600836443E+02  0.15408765534E+02  0.27863280210E+02  0.47000000000E+01 0. -1.
         -5    1    4    4    0  502  0.28985569747E+02 -0.15200237672E+03  0.25999006469E+03  0.30259181998E+03  0.47000000000E+01 0. -1.
<mgrwt>
<rscale>  0 0.39740234E+03</rscale>
<asrwt>0</asrwt>
<pdfrwt beam="1">  1       21 0.15377813E+00 0.39740234E+03</pdfrwt>
<pdfrwt beam="2">  1       21 0.60768645E-02 0.39740234E+03</pdfrwt>
<totfact> 0.49699327E+04</totfact>
</mgrwt>
</event>
<event>
 8    1  0.9569852E-006  0.2901622E+03  0.7546771E-02  0.1090264E+00
         21   -1    0    0  504  503  0.00000000000E+00  0.00000000000E+00  0.21401637313E+03  0.21401637313E+03  0.00000000000E+00 0.  1.
         21   -1    0    0  503  504 -0.00000000000E+00 -0.00000000000E+00 -0.98350062028E+02  0.98350062028E+02  0.00000000000E+00 0.  1.
         25    2    1    2    0    0 -0.24200683504E+02 -0.53258398897E+02  0.10598575297E+03  0.17401498301E+03  0.12500441730E+03 0.  0.
         25    2    1    2    0    0  0.24200683504E+02  0.53258398897E+02  0.96805581300E+01  0.13835145214E+03  0.12500112387E+03 0.  0.
          5    1    3    3  501    0 -0.35529766572E+02 -0.89166739275E+02  0.55889665024E+02  0.11117021347E+03  0.47000000000E+01 0. -1.
         -5    1    3    3    0  501  0.11329083069E+02  0.35908340377E+02  0.50096087945E+02  0.62844769545E+02  0.47000000000E+01 0. -1.
          5    1    4    4  502    0  0.37166565035E+02 -0.15320283180E+02 -0.36524154045E+02  0.54517597727E+02  0.47000000000E+01 0. -1.
         -5    1    4    4    0  502 -0.12965881531E+02  0.68578682077E+02  0.46204712175E+02  0.83833854417E+02  0.47000000000E+01 0. -1.
<mgrwt>
<rscale>  0 0.29016219E+03</rscale>
<asrwt>0</asrwt>
<pdfrwt beam="1">  1       21 0.32925596E-01 0.29016219E+03</pdfrwt>
<pdfrwt beam="2">  1       21 0.15130779E-01 0.29016219E+03</pdfrwt>
<totfact> 0.33549469E+05</totfact>
</mgrwt>
</event>
<event>
 8    1  0.9569852E-006  0.4919599E+03  0.7546771E-02  0.1015899E+00
         21   -1    0    0  504  503  0.00000000000E+00  0.00000000000E+00  0.21891637099E+03  0.21891637099E+03  0.00000000000E+00 0.  1.
         21   -1    0    0  503  504 -0.00000000000E+00 -0.00000000000E+00 -0.27638930393E+03  0.27638930393E+03  0.00000000000E+00 0.  1.
         25    2    1    2    0    0 -0.40308813507E+01  0.11922300557E+03 -0.20497849383E+03  0.26811112760E+03  0.12504807374E+03 0.  0.
         25    2    1    2    0    0  0.40308813507E+01 -0.11922300557E+03  0.14750556089E+03  0.22719454732E+03  0.12501639403E+03 0.  0.
          5    1    3    3  501    0  0.22199616177E+02  0.30276207224E+02  0.53370247340E+01  0.38210541940E+02  0.47000000000E+01 0.  1.
         -5    1    3    3    0  501 -0.26230497528E+02  0.88946798350E+02 -0.21031551856E+03  0.22990058566E+03  0.47000000000E+01 0.  1.
          5    1    4    4  502    0  0.61175008615E+01 -0.97394932278E+02  0.22584247280E+02  0.10027629269E+03  0.47000000000E+01 0. -1.
         -5    1    4    4    0  502 -0.20866195108E+01 -0.21828073297E+02  0.12492131361E+03  0.12691825463E+03  0.47000000000E+01 0. -1.
<mgrwt>
<rscale>  0 0.49195993E+03</rscale>
<asrwt>0</asrwt>
<pdfrwt beam="1">  1       21 0.33679442E-01 0.49195993E+03</pdfrwt>
<pdfrwt beam="2">  1       21 0.42521431E-01 0.49195993E+03</pdfrwt>
<totfact> 0.41096594E+04</totfact>
</mgrwt>
</event>
<event>
 8    1  0.9569852E-006  0.5919865E+03  0.7546771E-02  0.9922172E-01
         21   -1    0    0  504  503  0.00000000000E+00  0.00000000000E+00  0.17161954363E+03  0.17161954363E+03  0.00000000000E+00 0.  1.
         21   -1    0    0  503  504 -0.00000000000E+00 -0.00000000000E+00 -0.51050129594E+03  0.51050129594E+03  0.00000000000E+00 0.  1.
         25    2    1    2    0    0  0.16301523313E+03 -0.20058687247E+03 -0.25235399008E+03  0.38225166651E+03  0.12499896238E+03 0.  0.
         25    2    1    2    0    0 -0.16301523313E+03  0.20058687247E+03 -0.86527762225E+02  0.29986917306E+03  0.12500163069E+03 0.  0.
          5    1    3    3  501    0  0.38407051491E+02 -0.13901975076E+03 -0.15919636583E+03  0.21486545930E+03  0.47000000000E+01 0.  1.
         -5    1    3    3    0  501  0.12460818164E+03 -0.61567121713E+02 -0.93157624245E+02  0.16738620721E+03  0.47000000000E+01 0.  1.
          5    1    4    4  502    0  0.20899998596E+02  0.19902480755E+02 -0.80702291845E+01  0.30333764696E+02  0.47000000000E+01 0. -1.
         -5    1    4    4    0  502 -0.18391523173E+03  0.18068439172E+03 -0.78457533040E+02  0.26953540837E+03  0.47000000000E+01 0. -1.
<mgrwt>
<rscale>  0 0.59198648E+03</rscale>
<asrwt>0</asrwt>
<pdfrwt beam="1">  1       21 0.26403007E-01 0.59198648E+03</pdfrwt>
<pdfrwt beam="2">  1       21 0.78538661E-01 0.59198648E+03</pdfrwt>
<totfact> 0.17058552E+04</totfact>
</mgrwt>
</event>
<event>
 8    1  0.9569852E-006  0.2842376E+03  0.7546771E-02  0.1093397E+00
         21   -1    0    0  504  503  0.00000000000E+00  0.00000000000E+00  0.19758658629E+02  0.19758658629E+02  0.00000000000E+00 0. -1.
         21   -1    0    0  503  504 -0.00000000000E+00 -0.00000000000E+00 -0.10222227906E+04  0.10222227906E+04  0.00000000000E+00 0. -1.
         25    2    1    2    0    0  0.35579537719E+02  0.33822593837E+02 -0.33064978478E+03  0.35687513424E+03  0.12498283845E+03 0.  0.
         25    2    1    2    0    0 -0.35579537719E+02 -0.33822593837E+02 -0.67181434722E+03  0.68510631502E+03  0.12500509745E+03 0.  0.
          5    1    3    3  501    0  0.60593285695E+02  0.48826091281E+02 -0.31277469910E+03  0.32234397134E+03  0.47000000000E+01 0.  1.
         -5    1    3    3    0  501 -0.25013747975E+02 -0.15003497444E+02 -0.17875085681E+02  0.34531162903E+02  0.47000000000E+01 0.  1.
          5    1    4    4  502    0 -0.13021441639E+02  0.42632642396E+02 -0.13164964550E+03  0.13907127418E+03  0.47000000000E+01 0.  1.
         -5    1    4    4    0  502 -0.22558096081E+02 -0.76455236233E+02 -0.54016470171E+03  0.54603504084E+03  0.47000000000E+01 0.  1.
<mgrwt>
<rscale>  0 0.28423758E+03</rscale>
<asrwt>0</asrwt>
<pdfrwt beam="1">  1       21 0.30397936E-02 0.28423758E+03</pdfrwt>
<pdfrwt beam="2">  1       21 0.15726505E+00 0.28423758E+03</pdfrwt>
<totfact> 0.15749254E+05</totfact>
</mgrwt>
</event>
<event>
 8    1  0.9569852E-006  0.2924915E+03  0.7546771E-02  0.1089055E+00
         21   -1    0    0  504  503  0.00000000000E+00  0.00000000000E+00  0.96726669503E+01  0.96726669503E+01  0.00000000000E+00 0.  1.
         21   -1    0    0  503  504 -0.00000000000E+00 -0.00000000000E+00 -0.22111604576E+04  0.22111604576E+04  0.00000000000E+00 0.  1.
         25    2    1    2    0    0 -0.14613836210E+01  0.54176145278E+02 -0.15043171446E+04  0.15104740433E+04  0.12499829491E+03 0.  0.
         25    2    1    2    0    0  0.14613836210E+01 -0.54176145278E+02 -0.69717064611E+03  0.71035908127E+03  0.12500369665E+03 0.  0.
          5    1    3    3  501    0  0.45515013010E+02  0.72152743897E+02 -0.99178068060E+03  0.99545398853E+03  0.47000000000E+01 0.  1.
         -5    1    3    3    0  501 -0.46976396631E+02 -0.17976598619E+02 -0.51253646398E+03  0.51502005480E+03  0.47000000000E+01 0.  1.
          5    1    4    4  502    0  0.16925119064E+02 -0.85963163203E+02 -0.60839484147E+03  0.61468894427E+03  0.47000000000E+01 0. -1.
         -5    1    4    4    0  502 -0.15463735443E+02  0.31787017925E+02 -0.88775804642E+02  0.95670136993E+02  0.47000000000E+01 0. -1.
<mgrwt>
<rscale>  0 0.29249150E+03</rscale>
<asrwt>0</asrwt>
<pdfrwt beam="1">  1       21 0.14881024E-02 0.29249150E+03</pdfrwt>
<pdfrwt beam="2">  1       21 0.34017858E+00 0.29249150E+03</pdfrwt>
<totfact> 0.36512227E+04</totfact>
</mgrwt>
</event>
<event>
 8    1  0.9569852E-006  0.3858891E+03  0.7546771E-02  0.1048778E+00
         21   -1    0    0  504  503  0.00000000000E+00  0.00000000000E+00  0.11616663561E+03  0.11616663561E+03  0.00000000000E+00 0.  1.
         21   -1    0    0  503  504 -0.00000000000E+00 -0.00000000000E+00 -0.32046721037E+03  0.32046721037E+03  0.00000000000E+00 0.  1.
         25    2    1    2    0    0 -0.57258016782E+02 -0.11946055466E+03 -0.30121258979E+02  0.18461276241E+03  0.12500110879E+03 0.  0.
         25    2    1    2    0    0  0.57258016782E+02  0.11946055466E+03 -0.17417931579E+03  0.25202108357E+03  0.12500755142E+03 0.  0.
          5    1    3    3  501    0 -0.72342387394E+01 -0.12655616399E+03 -0.25764755079E+01  0.12687602248E+03  0.47000000000E+01 0. -1.
         -5    1    3    3    0  501 -0.50023778043E+02  0.70956093363E+01 -0.27544783471E+02  0.57736739932E+02  0.47000000000E+01 0. -1.
          5    1    4    4  502    0  0.34698943727E+02  0.34439080163E+02  0.79071796715E+01  0.49746159938E+02  0.47000000000E+01 0. -1.
         -5    1    4    4    0  502  0.22559073055E+02  0.85021474494E+02 -0.18208649546E+03  0.20227492363E+03  0.47000000000E+01 0. -1.
<mgrwt>
<rscale>  0 0.38588909E+03</rscale>
<asrwt>0</asrwt>
<pdfrwt beam="1">  1       21 0.17871790E-01 0.38588909E+03</pdfrwt>
<pdfrwt beam="2">  1       21 0.49302648E-01 0.38588909E+03</pdfrwt>
<totfact> 0.10554080E+05</totfact>
</mgrwt>
</event>
<event>
 8    1  0.9569852E-006  0.3719280E+03  0.7546771E-02  0.1053958E+00
         21   -1    0    0  504  503  0.00000000000E+00  0.00000000000E+00  0.26756058616E+03  0.26756058616E+03  0.00000000000E+00 0.  1.
         21   -1    0    0  503  504 -0.00000000000E+00 -0.00000000000E+00 -0.12925152010E+03  0.12925152010E+03  0.00000000000E+00 0.  1.
         25    2    1    2    0    0  0.10630146289E+03  0.70749518769E+02  0.14204704592E+02  0.17925425018E+03  0.12499926863E+03 0.  0.
         25    2    1    2    0    0 -0.10630146289E+03 -0.70749518769E+02  0.12410436147E+03  0.21755785608E+03  0.12499613109E+03 0.  0.
          5    1    3    3  501    0  0.17038549781E+02  0.73624627181E+02 -0.27525698647E+02  0.80564582741E+02  0.47000000000E+01 0. -1.
         -5    1    3    3    0  501  0.89262913112E+02 -0.28751084121E+01  0.41730403239E+02  0.98689667444E+02  0.47000000000E+01 0. -1.
          5    1    4    4  502    0 -0.68384270638E+02 -0.37296612801E+02  0.14337968674E+03  0.16323991659E+03  0.47000000000E+01 0. -1.
         -5    1    4    4    0  502 -0.37917192256E+02 -0.33452905968E+02 -0.19275325277E+02  0.54317939493E+02  0.47000000000E+01 0. -1.
<mgrwt>
<rscale>  0 0.37192802E+03</rscale>
<asrwt>0</asrwt>
<pdfrwt beam="1">  1       21 0.41163167E-01 0.37192802E+03</pdfrwt>
<pdfrwt beam="2">  1       21 0.19884849E-01 0.37192802E+03</pdfrwt>
<totfact> 0.12614165E+05</totfact>
</mgrwt>
</event>
<event>
 8    1  0.9569852E-006  0.2622558E+03  0.7546771E-02  0.1105795E+00
         21   -1    0    0  504  503  0.00000000000E+00  0.00000000000E+00  0.89461366339E+02  0.89461366339E+02  0.00000000000E+00 0. -1.
         21   -1    0    0  503  504 -0.00000000000E+00 -0.00000000000E+00 -0.19220054227E+03  0.19220054227E+03  0.00000000000E+00 0. -1.
         25    2    1    2    0    0  0.22502041739E+02 -0.21628088510E+01 -0.16407284870E+02  0.12808098697E+03  0.12499808240E+03 0.  0.
         25    2    1    2    0    0 -0.22502041739E+02  0.21628088510E+01 -0.86331891064E+02  0.15358092164E+03  0.12499153752E+03 0.  0.
          5    1    3    3  501    0 -0.69697568959E+01 -0.12016817709E+02 -0.66964237261E+02  0.68551298244E+02  0.47000000000E+01 0. -1.
         -5    1    3    3    0  501  0.29471798635E+02  0.98540088580E+01  0.50556952391E+02  0.59529688731E+02  0.47000000000E+01 0. -1.
          5    1    4    4  502    0  0.27728668273E+02  0.39857690277E+01  0.20762522091E+02  0.35184339166E+02  0.47000000000E+01 0.  1.
         -5    1    4    4    0  502 -0.50230710012E+02 -0.18229601767E+01 -0.10709441316E+03  0.11839658247E+03  0.47000000000E+01 0.  1.
<mgrwt>
<rscale>  0 0.26225578E+03</rscale>
<asrwt>0</asrwt>
<pdfrwt beam="1">  1       21 0.13763287E-01 0.26225578E+03</pdfrwt>
<pdfrwt beam="2">  1       21 0.29569314E-01 0.26225578E+03</pdfrwt>
<totfact> 0.49589781E+05</totfact>
</mgrwt>
</event>
<event>
 8    1  0.9569852E-006  0.2772980E+03  0.7546771E-02  0.1097174E+00
         21   -1    0    0  504  503  0.00000000000E+00  0.00000000000E+00  0.66067208819E+02  0.66067208819E+02  0.00000000000E+00 0.  1.
         21   -1    0    0  503  504 -0.00000000000E+00 -0.00000000000E+00 -0.29096956062E+03  0.29096956062E+03  0.00000000000E+00 0.  1.
         25    2    1    2    0    0  0.23073841762E+02  0.55378623477E+02 -0.11242723308E+03  0.17850634108E+03  0.12500174781E+03 0.  0.
         25    2    1    2    0    0 -0.23073841762E+02 -0.55378623477E+02 -0.11247511872E+03  0.17853042835E+03  0.12499306943E+03 0.  0.
          5    1    3    3  501    0  0.96178786842E+01 -0.27690081196E+02 -0.84744331411E+02  0.89793852202E+02  0.47000000000E+01 0. -1.
         -5    1    3    3    0  501  0.13455963078E+02  0.83068704674E+02 -0.27682901671E+02  0.88712488881E+02  0.47000000000E+01 0. -1.
          5    1    4    4  502    0 -0.63844707966E+02 -0.95469901429E+01 -0.20533785152E+02  0.67904477679E+02  0.47000000000E+01 0.  1.
         -5    1    4    4    0  502  0.40770866205E+02 -0.45831633335E+02 -0.91941333566E+02  0.11062595068E+03  0.47000000000E+01 0.  1.
<mgrwt>
<rscale>  0 0.27729801E+03</rscale>
<asrwt>0</asrwt>
<pdfrwt beam="1">  1       21 0.10164186E-01 0.27729801E+03</pdfrwt>
<pdfrwt beam="2">  1       21 0.44764547E-01 0.27729801E+03</pdfrwt>
<totfact> 0.37062404E+05</totfact>
</mgrwt>
</event>
<event>
 8    1  0.9569852E-006  0.3919627E+03  0.7546771E-02  0.1046599E+00
         21   -1    0    0  504  503  0.00000000000E+00  0.00000000000E+00  0.28967177752E+03  0.28967177752E+03  0.00000000000E+00 0. -1.
         21   -1    0    0  503  504 -0.00000000000E+00 -0.00000000000E+00 -0.13259384133E+03  0.13259384133E+03  0.00000000000E+00 0. -1.
         25    2    1    2    0    0 -0.14761308063E+03  0.27400752514E+02  0.95392232215E+02  0.21740575556E+03  0.12500064708E+03 0.  0.
         25    2    1    2    0    0  0.14761308063E+03 -0.27400752514E+02  0.61685703979E+02  0.20485986329E+03  0.12498805824E+03 0.  0.
          5    1    3    3  501    0 -0.62594564733E+02  0.56599636028E+02 -0.23179281427E+01  0.84552120751E+02  0.47000000000E+01 0. -1.
         -5    1    3    3    0  501 -0.85018515897E+02 -0.29198883514E+02  0.97710160357E+02  0.13285363480E+03  0.47000000000E+01 0. -1.
          5    1    4    4  502    0  0.14341882318E+03 -0.60843651385E+02  0.30744022815E+02  0.15886533195E+03  0.47000000000E+01 0. -1.
         -5    1    4    4    0  502  0.41942574484E+01  0.33442898870E+02  0.30941681163E+02  0.45994531345E+02  0.47000000000E+01 0. -1.
<mgrwt>
<rscale>  0 0.39196272E+03</rscale>
<asrwt>0</asrwt>
<pdfrwt beam="1">  1       21 0.44564889E-01 0.39196272E+03</pdfrwt>
<pdfrwt beam="2">  1       21 0.20399053E-01 0.39196272E+03</pdfrwt>
<totfact> 0.10150890E+05</totfact>
</mgrwt>
</event>
<event>
 8    1  0.9569852E-006  0.2828116E+03  0.7546771E-02  0.1094163E+00
         21   -1    0    0  504  503  0.00000000000E+00  0.00000000000E+00  0.24532578287E+03  0.24532578287E+03  0.00000000000E+00 0.  1.
         21   -1    0    0  503  504 -0.00000000000E+00 -0.00000000000E+00 -0.81506333963E+02  0.81506333963E+02  0.00000000000E+00 0.  1.
         25    2    1    2    0    0 -0.36508881139E+02 -0.27255407720E+02  0.13728746713E+03  0.19117394288E+03  0.12499548853E+03 0.  0.
         25    2    1    2    0    0  0.36508881139E+02  0.27255407720E+02  0.26531981779E+02  0.13565817395E+03  0.12499375365E+03 0.  0.
          5    1    3    3  501    0  0.44737318742E+02 -0.53790499054E+01  0.69784438049E+02  0.83200478724E+02  0.47000000000E+01 0.  1.
         -5    1    3    3    0  501 -0.81246199881E+02 -0.21876357815E+02  0.67503029077E+02  0.10797346415E+03  0.47000000000E+01 0.  1.
          5    1    4    4  502    0 -0.40483954001E+02 -0.23947555344E+00  0.34477817720E+02  0.53383684725E+02  0.47000000000E+01 0.  1.
         -5    1    4    4    0  502  0.76992835140E+02  0.27494883274E+02 -0.79458359418E+01  0.82274489229E+02  0.47000000000E+01 0.  1.
<mgrwt>
<rscale>  0 0.28281163E+03</rscale>
<asrwt>0</asrwt>
<pdfrwt beam="1">  1       21 0.37742428E-01 0.28281163E+03</pdfrwt>
<pdfrwt beam="2">  1       21 0.12539436E-01 0.28281163E+03</pdfrwt>
<totfact> 0.35996938E+05</totfact>
</mgrwt>
</event>
<event>
 8    1  0.9569852E-006  0.3172341E+03  0.7546771E-02  0.1076929E+00
         21   -1    0    0  504  503  0.00000000000E+00  0.00000000000E+00  0.71413780072E+02  0.71413780072E+02  0.00000000000E+00 0.  1.
         21   -1    0    0  503  504 -0.00000000000E+00 -0.00000000000E+00 -0.35230412945E+03  0.35230412945E+03  0.00000000000E+00 0.  1.
         25    2    1    2    0    0 -0.26029439344E+01 -0.21041124754E+02 -0.26776401550E+03  0.29625967225E+03  0.12499088430E+03 0.  0.
         25    2    1    2    0    0  0.26029439344E+01  0.21041124754E+02 -0.13126333876E+02  0.12745823727E+03  0.12499518934E+03 0.  0.
          5    1    3    3  501    0 -0.16629851332E+02 -0.58533506201E+02 -0.63565757671E+02  0.88121613988E+02  0.47000000000E+01 0. -1.
         -5    1    3    3    0  501  0.14026907398E+02  0.37492381447E+02 -0.20419825783E+03  0.20813805826E+03  0.47000000000E+01 0. -1.
          5    1    4    4  502    0  0.24466618663E+02  0.47926201100E+02  0.37623404700E+02  0.65826641733E+02  0.47000000000E+01 0.  1.
         -5    1    4    4    0  502 -0.21863674728E+02 -0.26885076345E+02 -0.50749738576E+02  0.61631595535E+02  0.47000000000E+01 0.  1.
<mgrwt>
<rscale>  0 0.31723411E+03</rscale>
<asrwt>0</asrwt>
<pdfrwt beam="1">  1       21 0.10986735E-01 0.31723411E+03</pdfrwt>
<pdfrwt beam="2">  1       21 0.54200636E-01 0.31723411E+03</pdfrwt>
<totfact> 0.21390185E+05</totfact>
</mgrwt>
</event>
<event>
 8    1  0.9569852E-006  0.3053215E+03  0.7546771E-02  0.1082610E+00
         21   -1    0    0  504  503  0.00000000000E+00  0.00000000000E+00  0.67286750569E+02  0.67286750569E+02  0.00000000000E+00 0.  1.
         21   -1    0    0  503  504 -0.00000000000E+00 -0.00000000000E+00 -0.34635805562E+03  0.34635805562E+03  0.00000000000E+00 0.  1.
         25    2    1    2    0    0  0.62870428627E+02  0.12158321774E+02 -0.58495684463E+02  0.15214161394E+03  0.12499924003E+03 0.  0.
         25    2    1    2    0    0 -0.62870428627E+02 -0.12158321774E+02 -0.22057562058E+03  0.26150319224E+03  0.12501919681E+03 0.  0.
          5    1    3    3  501    0  0.42683687116E+02  0.64703490498E+02 -0.55738100459E+02  0.95589040539E+02  0.47000000000E+01 0. -1.
         -5    1    3    3    0  501  0.20186741512E+02 -0.52545168724E+02 -0.27575840040E+01  0.56552573404E+02  0.47000000000E+01 0. -1.
          5    1    4    4  502    0  0.27888202618E+02 -0.43062693234E+01 -0.72778573285E+01  0.29518689131E+02  0.47000000000E+01 0. -1.
         -5    1    4    4    0  502 -0.90758631245E+02 -0.78520524504E+01 -0.21329776326E+03  0.23198450311E+03  0.47000000000E+01 0. -1.
<mgrwt>
<rscale>  0 0.30532152E+03</rscale>
<asrwt>0</asrwt>
<pdfrwt beam="1">  1       21 0.10351808E-01 0.30532152E+03</pdfrwt>
<pdfrwt beam="2">  1       21 0.53285855E-01 0.30532152E+03</pdfrwt>
<totfact> 0.24741684E+05</totfact>
</mgrwt>
</event>
<event>
 8    1  0.9569852E-006  0.3891886E+03  0.7546771E-02  0.1047589E+00
         21   -1    0    0  504  503  0.00000000000E+00  0.00000000000E+00  0.13670397516E+03  0.13670397516E+03  0.00000000000E+00 0. -1.
         21   -1    0    0  503  504 -0.00000000000E+00 -0.00000000000E+00 -0.27699960501E+03  0.27699960501E+03  0.00000000000E+00 0. -1.
         25    2    1    2    0    0  0.43122491291E+02 -0.92261462690E+02 -0.18596648725E+03  0.24612972154E+03  0.12499831477E+03 0.  0.
         25    2    1    2    0    0 -0.43122491291E+02  0.92261462690E+02  0.45670857398E+02  0.16757385863E+03  0.12499377636E+03 0.  0.
          5    1    3    3  501    0  0.47037876930E+02 -0.87348523832E+01 -0.70563775701E+01  0.48587467280E+02  0.47000000000E+01 0.  1.
         -5    1    3    3    0  501 -0.39153856390E+01 -0.83526610307E+02 -0.17891010968E+03  0.19754225426E+03  0.47000000000E+01 0.  1.
          5    1    4    4  502    0 -0.32132811045E+02  0.88209291755E+02  0.84715989113E+02  0.12653965983E+03  0.47000000000E+01 0.  1.
         -5    1    4    4    0  502 -0.10989680246E+02  0.40521709346E+01 -0.39045131715E+02  0.41034198808E+02  0.47000000000E+01 0.  1.
<mgrwt>
<rscale>  0 0.38918863E+03</rscale>
<asrwt>0</asrwt>
<pdfrwt beam="1">  1       21 0.21031381E-01 0.38918863E+03</pdfrwt>
<pdfrwt beam="2">  1       21 0.42615323E-01 0.38918863E+03</pdfrwt>
<totfact> 0.10517148E+05</totfact>
</mgrwt>
</event>
<event>
 8    1  0.9569852E-006  0.2699466E+03  0.7546771E-02  0.1101310E+00
         21   -1    0    0  504  503  0.00000000000E+00  0.00000000000E+00  0.81943641178E+02  0.81943641178E+02  0.00000000000E+00 0.  1.
         21   -1    0    0  503  504 -0.00000000000E+00 -0.00000000000E+00 -0.22232104279E+03  0.22232104279E+03  0.00000000000E+00 0.  1.
         25    2    1    2    0    0 -0.28210663983E+02  0.34832885484E+02 -0.97402488961E+02  0.16469026750E+03  0.12500587138E+03 0.  0.
         25    2    1    2    0    0  0.28210663983E+02 -0.34832885484E+02 -0.42974912649E+02  0.13957441647E+03  0.12500001256E+03 0.  0.
          5    1    3    3  501    0  0.21361705641E+02  0.63516692154E+02 -0.80382306262E+02  0.10475732819E+03  0.47000000000E+01 0.  1.
         -5    1    3    3    0  501 -0.49572369624E+02 -0.28683806669E+02 -0.17020182700E+02  0.59932939310E+02  0.47000000000E+01 0.  1.
          5    1    4    4  502    0 -0.20830128095E+02 -0.51675395452E+02 -0.62598665508E+02  0.83934043480E+02  0.47000000000E+01 0. -1.
         -5    1    4    4    0  502  0.49040792078E+02  0.16842509968E+02  0.19623752858E+02  0.55640372985E+02  0.47000000000E+01 0. -1.
<mgrwt>
<rscale>  0 0.26994663E+03</rscale>
<asrwt>0</asrwt>
<pdfrwt beam="1">  1       21 0.12606714E-01 0.26994663E+03</pdfrwt>
<pdfrwt beam="2">  1       21 0.34203237E-01 0.26994663E+03</pdfrwt>
<totfact> 0.43549648E+05</totfact>
</mgrwt>
</event>
<event>
 8    1  0.9569852E-006  0.2931289E+03  0.7546771E-02  0.1088727E+00
         21   -1    0    0  504  503  0.00000000000E+00  0.00000000000E+00  0.31395387215E+02  0.31395387215E+02  0.00000000000E+00 0. -1.
         21   -1    0    0  503  504 -0.00000000000E+00 -0.00000000000E+00 -0.68421299274E+03  0.68421299274E+03  0.00000000000E+00 0. -1.
         25    2    1    2    0    0  0.71017328696E+02  0.44676546650E+01 -0.39515022324E+03  0.42051505111E+03  0.12500315346E+03 0.  0.
         25    2    1    2    0    0 -0.71017328696E+02 -0.44676546650E+01 -0.25766738229E+03  0.29509332884E+03  0.12499668763E+03 0.  0.
          5    1    3    3  501    0  0.10076505921E+03  0.19378065198E+01 -0.21076443293E+03  0.23366875795E+03  0.47000000000E+01 0.  1.
         -5    1    3    3    0  501 -0.29747730519E+02  0.25298481452E+01 -0.18438579031E+03  0.18684629317E+03  0.47000000000E+01 0.  1.
          5    1    4    4  502    0  0.19797938063E+02  0.37829556217E+02 -0.65496479529E+02  0.78325682288E+02  0.47000000000E+01 0. -1.
         -5    1    4    4    0  502 -0.90815266759E+02 -0.42297210882E+02 -0.19217090276E+03  0.21676764656E+03  0.47000000000E+01 0. -1.
<mgrwt>
<rscale>  0 0.29312886E+03</rscale>
<asrwt>0</asrwt>
<pdfrwt beam="1">  1       21 0.48300597E-02 0.29312886E+03</pdfrwt>
<pdfrwt beam="2">  1       21 0.10526353E+00 0.29312886E+03</pdfrwt>
<totfact> 0.20084455E+05</totfact>
</mgrwt>
</event>
<event>
 8    1  0.9569852E-006  0.2579706E+03  0.7546771E-02  0.1108369E+00
         21   -1    0    0  504  503  0.00000000000E+00  0.00000000000E+00  0.33762217095E+03  0.33762217095E+03  0.00000000000E+00 0. -1.
         21   -1    0    0  503  504 -0.00000000000E+00 -0.00000000000E+00 -0.49277605548E+02  0.49277605548E+02  0.00000000000E+00 0. -1.
         25    2    1    2    0    0 -0.22663180877E+02 -0.81497656811E+01  0.17498456732E+03  0.21639787849E+03  0.12501361751E+03 0.  0.
         25    2    1    2    0    0  0.22663180877E+02  0.81497656811E+01  0.11335999808E+03  0.17050189801E+03  0.12506146334E+03 0.  0.
          5    1    3    3  501    0 -0.70680648054E+02 -0.24843872801E+02  0.89335282794E+02  0.11668699489E+03  0.47000000000E+01 0.  1.
         -5    1    3    3    0  501  0.48017467176E+02  0.16694107120E+02  0.85649284531E+02  0.99710883594E+02  0.47000000000E+01 0.  1.
          5    1    4    4  502    0  0.60679661833E+02  0.29738731653E+02  0.25733255234E+02  0.72461741253E+02  0.47000000000E+01 0. -1.
         -5    1    4    4    0  502 -0.38016480956E+02 -0.21588965972E+02  0.87626742844E+02  0.98040156760E+02  0.47000000000E+01 0. -1.
<mgrwt>
<rscale>  0 0.25797064E+03</rscale>
<asrwt>0</asrwt>
<pdfrwt beam="1">  1       21 0.51941871E-01 0.25797064E+03</pdfrwt>
<pdfrwt beam="2">  1       21 0.75811703E-02 0.25797064E+03</pdfrwt>
<totfact> 0.45724517E+05</totfact>
</mgrwt>
</event>
<event>
 8    1  0.9569852E-006  0.2691472E+03  0.7546771E-02  0.1101769E+00
         21   -1    0    0  504  503  0.00000000000E+00  0.00000000000E+00  0.10735503140E+03  0.10735503140E+03  0.00000000000E+00 0. -1.
         21   -1    0    0  503  504 -0.00000000000E+00 -0.00000000000E+00 -0.16869313919E+03  0.16869313919E+03  0.00000000000E+00 0. -1.
         25    2    1    2    0    0  0.16854021753E+02  0.35592979806E+02 -0.61994700680E+02  0.14499546407E+03  0.12501769246E+03 0.  0.
         25    2    1    2    0    0 -0.16854021753E+02 -0.35592979806E+02  0.65659288665E+00  0.13105270652E+03  0.12499384989E+03 0.  0.
          5    1    3    3  501    0 -0.18118719998E+02 -0.17570208536E+02 -0.75524315622E+02  0.79768493107E+02  0.47000000000E+01 0. -1.
         -5    1    3    3    0  501  0.34972741752E+02  0.53163188342E+02  0.13529614942E+02  0.65226970961E+02  0.47000000000E+01 0. -1.
          5    1    4    4  502    0  0.19077141922E+02  0.26284414360E+02  0.37996439081E+02  0.50205847916E+02  0.47000000000E+01 0. -1.
         -5    1    4    4    0  502 -0.35931163676E+02 -0.61877394166E+02 -0.37339846194E+02  0.80846858601E+02  0.47000000000E+01 0. -1.
<mgrwt>
<rscale>  0 0.26914723E+03</rscale>
<asrwt>0</asrwt>
<pdfrwt beam="1">  1       21 0.16516159E-01 0.26914723E+03</pdfrwt>
<pdfrwt beam="2">  1       21 0.25952791E-01 0.26914723E+03</pdfrwt>
<totfact> 0.45687255E+05</totfact>
</mgrwt>
</event>
<event>
 8    1  0.9569852E-006  0.2534304E+03  0.7546771E-02  0.1111156E+00
         21   -1    0    0  504  503  0.00000000000E+00  0.00000000000E+00  0.13238138083E+03  0.13238138083E+03  0.00000000000E+00 0.  1.
         21   -1    0    0  503  504 -0.00000000000E+00 -0.00000000000E+00 -0.12129151134E+03  0.12129151134E+03  0.00000000000E+00 0.  1.
         25    2    1    2    0    0  0.19031055635E+02  0.25775686820E+01  0.13511080986E+02  0.12718184704E+03  0.12499539179E+03 0.  0.
         25    2    1    2    0    0 -0.19031055635E+02 -0.25775686820E+01 -0.24212115002E+01  0.12649104513E+03  0.12500118917E+03 0.  0.
          5    1    3    3  501    0  0.32316910110E+02  0.59471533838E+02  0.70121201777E+01  0.68209279760E+02  0.47000000000E+01 0.  1.
         -5    1    3    3    0  501 -0.13285854475E+02 -0.56893965156E+02  0.64989608080E+01  0.58972567282E+02  0.47000000000E+01 0.  1.
          5    1    4    4  502    0 -0.23923756475E+02  0.37391561873E+02  0.45487402693E+02  0.63731223328E+02  0.47000000000E+01 0.  1.
         -5    1    4    4    0  502  0.48927008397E+01 -0.39969130555E+02 -0.47908614193E+02  0.62759821803E+02  0.47000000000E+01 0.  1.
<mgrwt>
<rscale>  0 0.25343037E+03</rscale>
<asrwt>0</asrwt>
<pdfrwt beam="1">  1       21 0.20366366E-01 0.25343037E+03</pdfrwt>
<pdfrwt beam="2">  1       21 0.18660233E-01 0.25343037E+03</pdfrwt>
<totfact> 0.57969785E+05</totfact>
</mgrwt>
</event>
<event>
 8    1  0.9569852E-006  0.3198090E+03  0.7546771E-02  0.1075737E+00
         21   -1    0    0  504  503  0.00000000000E+00  0.00000000000E+00  0.38539837505E+02  0.38539837505E+02  0.00000000000E+00 0. -1.
         21   -1    0    0  503  504 -0.00000000000E+00 -0.00000000000E+00 -0.66345493795E+03  0.66345493795E+03  0.00000000000E+00 0. -1.
         25    2    1    2    0    0  0.21110105181E+01 -0.81339794907E+02 -0.43926954090E+03  0.46389974598E+03  0.12499850462E+03 0.  0.
         25    2    1    2    0    0 -0.21110105181E+01  0.81339794907E+02 -0.18564555954E+03  0.23809502947E+03  0.12491737542E+03 0.  0.
          5    1    3    3  501    0  0.32918189817E+02 -0.49971153703E+02 -0.40086210190E+03  0.40533102294E+03  0.47000000000E+01 0. -1.
         -5    1    3    3    0  501 -0.30807179299E+02 -0.31368641204E+02 -0.38407439004E+02  0.58568723037E+02  0.47000000000E+01 0. -1.
          5    1    4    4  502    0  0.29748606405E+02 -0.17089067981E+02 -0.13435698306E+02  0.37143287637E+02  0.47000000000E+01 0.  1.
         -5    1    4    4    0  502 -0.31859616923E+02  0.98428862888E+02 -0.17220986124E+03  0.20095174184E+03  0.47000000000E+01 0.  1.
<mgrwt>
<rscale>  0 0.31980898E+03</rscale>
<asrwt>0</asrwt>
<pdfrwt beam="1">  1       21 0.59292055E-02 0.31980898E+03</pdfrwt>
<pdfrwt beam="2">  1       21 0.10206999E+00 0.31980898E+03</pdfrwt>
<totfact> 0.15114873E+05</totfact>
</mgrwt>
</event>
<event>
 8    1  0.9569852E-006  0.3332360E+03  0.7546771E-02  0.1069714E+00
         21   -1    0    0  504  503  0.00000000000E+00  0.00000000000E+00  0.15166301416E+04  0.15166301416E+04  0.00000000000E+00 0. -1.
         21   -1    0    0  503  504 -0.00000000000E+00 -0.00000000000E+00 -0.18304763099E+02  0.18304763099E+02  0.00000000000E+00 0. -1.
         25    2    1    2    0    0 -0.88631561989E+02 -0.61136077704E+02  0.85714302306E+03  0.87287379171E+03  0.12498528114E+03 0.  0.
         25    2    1    2    0    0  0.88631561989E+02  0.61136077704E+02  0.64118235541E+03  0.66206111295E+03  0.12496771831E+03 0.  0.
          5    1    3    3  501    0 -0.88938745993E+02 -0.95052782101E+02  0.65060034965E+03  0.66351189657E+03  0.47000000000E+01 0.  1.
         -5    1    3    3    0  501  0.30718400390E+00  0.33916704397E+02  0.20654267340E+03  0.20936189514E+03  0.47000000000E+01 0.  1.
          5    1    4    4  502    0  0.97163926258E+02  0.24215639733E+01  0.29050436066E+03  0.30636835036E+03  0.47000000000E+01 0. -1.
         -5    1    4    4    0  502 -0.85323642698E+01  0.58714513730E+02  0.35067799475E+03  0.35569276260E+03  0.47000000000E+01 0. -1.
<mgrwt>
<rscale>  0 0.33323599E+03</rscale>
<asrwt>0</asrwt>
<pdfrwt beam="1">  1       21 0.23332762E+00 0.33323599E+03</pdfrwt>
<pdfrwt beam="2">  1       21 0.28161186E-02 0.33323599E+03</pdfrwt>
<totfact> 0.54254163E+04</totfact>
</mgrwt>
</event>
<event>
 8    1  0.9569852E-006  0.2912075E+03  0.7546771E-02  0.1089720E+00
         21   -1    0    0  504  503  0.00000000000E+00  0.00000000000E+00  0.13789086821E+03  0.13789086821E+03  0.00000000000E+00 0.  1.
         21   -1    0    0  503  504 -0.00000000000E+00 -0.00000000000E+00 -0.15374803144E+03  0.15374803144E+03  0.00000000000E+00 0.  1.
         25    2    1    2    0    0  0.45114991537E+02 -0.25506337497E+02 -0.61759694716E+02  0.14874739879E+03  0.12500237214E+03 0.  0.
         25    2    1    2    0    0 -0.45114991537E+02  0.25506337497E+02  0.45902531491E+02  0.14289150086E+03  0.12500001163E+03 0.  0.
          5    1    3    3  501    0  0.34495437998E+02 -0.75953392354E+02 -0.37785836174E+02  0.91699031991E+02  0.47000000000E+01 0. -1.
         -5    1    3    3    0  501  0.10619553539E+02  0.50447054857E+02 -0.23973858542E+02  0.57048366799E+02  0.47000000000E+01 0. -1.
          5    1    4    4  502    0 -0.50460881054E+02  0.17249015763E+02 -0.33231574429E+02  0.63009972231E+02  0.47000000000E+01 0. -1.
         -5    1    4    4    0  502  0.53458895165E+01  0.82573217341E+01  0.79134105920E+02  0.79881528633E+02  0.47000000000E+01 0. -1.
<mgrwt>
<rscale>  0 0.29120748E+03</rscale>
<asrwt>0</asrwt>
<pdfrwt beam="1">  1       21 0.21213980E-01 0.29120748E+03</pdfrwt>
<pdfrwt beam="2">  1       21 0.23653543E-01 0.29120748E+03</pdfrwt>
<totfact> 0.34042485E+05</totfact>
</mgrwt>
</event>
<event>
 8    1  0.9569852E-006  0.2700150E+03  0.7546771E-02  0.1101271E+00
         21   -1    0    0  504  503  0.00000000000E+00  0.00000000000E+00  0.53822263507E+02  0.53822263507E+02  0.00000000000E+00 0.  1.
         21   -1    0    0  503  504 -0.00000000000E+00 -0.00000000000E+00 -0.33865223414E+03  0.33865223414E+03  0.00000000000E+00 0.  1.
         25    2    1    2    0    0  0.42264174860E+02 -0.26438431620E+02 -0.12669206560E+03  0.18482479175E+03  0.12499629200E+03 0.  0.
         25    2    1    2    0    0 -0.42264174860E+02  0.26438431620E+02 -0.15813790503E+03  0.20764970590E+03  0.12500220882E+03 0.  0.
          5    1    3    3  501    0  0.12988980389E+02  0.21036810020E+02  0.17164378439E+02  0.30462548720E+02  0.47000000000E+01 0. -1.
         -5    1    3    3    0  501  0.29275194471E+02 -0.47475241640E+02 -0.14385644404E+03  0.15436224303E+03  0.47000000000E+01 0. -1.
          5    1    4    4  502    0 -0.30535863112E+02  0.76108878163E+02 -0.83685585858E+02  0.11726196123E+03  0.47000000000E+01 0.  1.
         -5    1    4    4    0  502 -0.11728311748E+02 -0.49670446543E+02 -0.74452319172E+02  0.90387744669E+02  0.47000000000E+01 0.  1.
<mgrwt>
<rscale>  0 0.27001504E+03</rscale>
<asrwt>0</asrwt>
<pdfrwt beam="1">  1       21 0.82803482E-02 0.27001504E+03</pdfrwt>
<pdfrwt beam="2">  1       21 0.52100344E-01 0.27001504E+03</pdfrwt>
<totfact> 0.38834826E+05</totfact>
</mgrwt>
</event>
<event>
 8    1  0.9569852E-006  0.3346661E+03  0.7546771E-02  0.1069091E+00
         21   -1    0    0  504  503  0.00000000000E+00  0.00000000000E+00  0.85729728181E+03  0.85729728181E+03  0.00000000000E+00 0. -1.
         21   -1    0    0  503  504 -0.00000000000E+00 -0.00000000000E+00 -0.32661183429E+02  0.32661183429E+02  0.00000000000E+00 0. -1.
         25    2    1    2    0    0 -0.63905461129E+01  0.10348951571E+03  0.51942189090E+03  0.54422406545E+03  0.12501925342E+03 0.  0.
         25    2    1    2    0    0  0.63905461129E+01 -0.10348951571E+03  0.30521420748E+03  0.34573439979E+03  0.12500257521E+03 0.  0.
          5    1    3    3  501    0  0.12515489242E+02  0.12764980181E+03  0.45433802955E+03  0.47211888806E+03  0.47000000000E+01 0. -1.
         -5    1    3    3    0  501 -0.18906035355E+02 -0.24160286097E+02  0.65083861352E+02  0.72105177385E+02  0.47000000000E+01 0. -1.
          5    1    4    4  502    0 -0.30273924492E+02 -0.90486571765E+02  0.28707784534E+03  0.30255596087E+03  0.47000000000E+01 0.  1.
         -5    1    4    4    0  502  0.36664470605E+02 -0.13002943946E+02  0.18136362142E+02  0.43178438921E+02  0.47000000000E+01 0.  1.
<mgrwt>
<rscale>  0 0.33466607E+03</rscale>
<asrwt>0</asrwt>
<pdfrwt beam="1">  1       21 0.13189187E+00 0.33466607E+03</pdfrwt>
<pdfrwt beam="2">  1       21 0.50247981E-02 0.33466607E+03</pdfrwt>
<totfact> 0.10559571E+05</totfact>
</mgrwt>
</event>
<event>
 8    1  0.9569852E-006  0.3486963E+03  0.7546771E-02  0.1063151E+00
         21   -1    0    0  504  503  0.00000000000E+00  0.00000000000E+00  0.74896541323E+03  0.74896541323E+03  0.00000000000E+00 0. -1.
         21   -1    0    0  503  504 -0.00000000000E+00 -0.00000000000E+00 -0.40585695607E+02  0.40585695607E+02  0.00000000000E+00 0. -1.
         25    2    1    2    0    0 -0.35827168832E+02  0.10291445843E+03  0.23232379626E+03  0.28543800189E+03  0.12500213930E+03 0.  0.
         25    2    1    2    0    0  0.35827168832E+02 -0.10291445843E+03  0.47605592136E+03  0.50411310695E+03  0.12500325017E+03 0.  0.
          5    1    3    3  501    0  0.23844144055E+02 -0.20282343690E+01  0.11311227510E+03  0.11571142432E+03  0.47000000000E+01 0.  1.
         -5    1    3    3    0  501 -0.59671312887E+02  0.10494269280E+03  0.11921152117E+03  0.16972657757E+03  0.47000000000E+01 0.  1.
          5    1    4    4  502    0  0.36992466257E+02  0.19799727475E+02  0.14457478424E+03  0.15061351203E+03  0.47000000000E+01 0.  1.
         -5    1    4    4    0  502 -0.11652974248E+01 -0.12271418591E+03  0.33148113712E+03  0.35349959491E+03  0.47000000000E+01 0.  1.
<mgrwt>
<rscale>  0 0.34869633E+03</rscale>
<asrwt>0</asrwt>
<pdfrwt beam="1">  1       21 0.11522544E+00 0.34869633E+03</pdfrwt>
<pdfrwt beam="2">  1       21 0.62439537E-02 0.34869633E+03</pdfrwt>
<totfact> 0.10186012E+05</totfact>
</mgrwt>
</event>
<event>
 8    1  0.9569852E-006  0.2521923E+03  0.7546771E-02  0.1111927E+00
         21   -1    0    0  504  503  0.00000000000E+00  0.00000000000E+00  0.27798907413E+03  0.27798907413E+03  0.00000000000E+00 0.  1.
         21   -1    0    0  503  504 -0.00000000000E+00 -0.00000000000E+00 -0.57197368357E+02  0.57197368357E+02  0.00000000000E+00 0.  1.
         25    2    1    2    0    0 -0.60820166019E+01 -0.11751520323E+02  0.97119160075E+02  0.15883790307E+03  0.12498903569E+03 0.  0.
         25    2    1    2    0    0  0.60820166019E+01  0.11751520323E+02  0.12367254570E+03  0.17634853942E+03  0.12501527762E+03 0.  0.
          5    1    3    3  501    0 -0.32320548920E+02  0.45448356439E+02  0.71330386836E+02  0.90665787768E+02  0.47000000000E+01 0. -1.
         -5    1    3    3    0  501  0.26238532318E+02 -0.57199876762E+02  0.25788773239E+02  0.68172115303E+02  0.47000000000E+01 0. -1.
          5    1    4    4  502    0  0.13848895915E+02 -0.32544773027E+02  0.12611561115E+03  0.13106560016E+03  0.47000000000E+01 0. -1.
         -5    1    4    4    0  502 -0.77668793131E+01  0.44296293350E+02 -0.24430654535E+01  0.45282939255E+02  0.47000000000E+01 0. -1.
<mgrwt>
<rscale>  0 0.25219234E+03</rscale>
<asrwt>0</asrwt>
<pdfrwt beam="1">  1       21 0.42767549E-01 0.25219234E+03</pdfrwt>
<pdfrwt beam="2">  1       21 0.87995953E-02 0.25219234E+03</pdfrwt>
<totfact> 0.52819747E+05</totfact>
</mgrwt>
</event>
<event>
 8    1  0.9569852E-006  0.3571797E+03  0.7546771E-02  0.1059706E+00
         21   -1    0    0  504  503  0.00000000000E+00  0.00000000000E+00  0.13223730072E+03  0.13223730072E+03  0.00000000000E+00 0. -1.
         21   -1    0    0  503  504 -0.00000000000E+00 -0.00000000000E+00 -0.24119012274E+03  0.24119012274E+03  0.00000000000E+00 0. -1.
         25    2    1    2    0    0  0.10672699730E+03  0.65469024299E+02 -0.29028707039E+02  0.17928864504E+03  0.12499962924E+03 0.  0.
         25    2    1    2    0    0 -0.10672699730E+03 -0.65469024299E+02 -0.79924114985E+02  0.19413877843E+03  0.12500062414E+03 0.  0.
          5    1    3    3  501    0  0.28829382303E+02  0.56178852812E+02  0.39825886657E+02  0.74802326402E+02  0.47000000000E+01 0.  1.
         -5    1    3    3    0  501  0.77897615001E+02  0.92901714879E+01 -0.68854593696E+02  0.10448631864E+03  0.47000000000E+01 0.  1.
          5    1    4    4  502    0 -0.91301319088E+02 -0.91882068735E+02 -0.94027860865E+02  0.16012986617E+03  0.47000000000E+01 0.  1.
         -5    1    4    4    0  502 -0.15425678217E+02  0.26413044435E+02  0.14103745879E+02  0.34008912253E+02  0.47000000000E+01 0.  1.
<mgrwt>
<rscale>  0 0.35717968E+03</rscale>
<asrwt>0</asrwt>
<pdfrwt beam="1">  1       21 0.20344200E-01 0.35717968E+03</pdfrwt>
<pdfrwt beam="2">  1       21 0.37106173E-01 0.35717968E+03</pdfrwt>
<totfact> 0.14979251E+05</totfact>
</mgrwt>
</event>
<event>
 8    1  0.9569852E-006  0.3774541E+03  0.7546771E-02  0.1051879E+00
         21   -1    0    0  504  503  0.00000000000E+00  0.00000000000E+00  0.59189273303E+02  0.59189273303E+02  0.00000000000E+00 0. -1.
         21   -1    0    0  503  504 -0.00000000000E+00 -0.00000000000E+00 -0.60176274625E+03  0.60176274625E+03  0.00000000000E+00 0. -1.
         25    2    1    2    0    0 -0.65095894025E+02  0.88913935513E+02 -0.11614554775E+03  0.20311939940E+03  0.12499815520E+03 0.  0.
         25    2    1    2    0    0  0.65095894025E+02 -0.88913935513E+02 -0.42642792520E+03  0.45783262015E+03  0.12500707716E+03 0.  0.
          5    1    3    3  501    0 -0.90638741469E+02  0.10113501033E+03 -0.82825436107E+02  0.15914086413E+03  0.47000000000E+01 0.  1.
         -5    1    3    3    0  501  0.25542847444E+02 -0.12221074813E+02 -0.33320111645E+02  0.43978535278E+02  0.47000000000E+01 0.  1.
          5    1    4    4  502    0  0.51104276731E+02 -0.44346659868E+02 -0.39627071236E+03  0.40203338271E+03  0.47000000000E+01 0. -1.
         -5    1    4    4    0  502  0.13991617293E+02 -0.44567275644E+02 -0.30157212842E+02  0.55799237443E+02  0.47000000000E+01 0. -1.
<mgrwt>
<rscale>  0 0.37745410E+03</rscale>
<asrwt>0</asrwt>
<pdfrwt beam="1">  1       21 0.91060424E-02 0.37745410E+03</pdfrwt>
<pdfrwt beam="2">  1       21 0.92578880E-01 0.37745410E+03</pdfrwt>
<totfact> 0.88685825E+04</totfact>
</mgrwt>
</event>
<event>
 8    1  0.9569852E-006  0.2908966E+03  0.7546771E-02  0.1089882E+00
         21   -1    0    0  504  503  0.00000000000E+00  0.00000000000E+00  0.14325981109E+03  0.14325981109E+03  0.00000000000E+00 0. -1.
         21   -1    0    0  503  504 -0.00000000000E+00 -0.00000000000E+00 -0.14767020373E+03  0.14767020373E+03  0.00000000000E+00 0. -1.
         25    2    1    2    0    0  0.20415388797E+02  0.34130787843E+02  0.60640661807E+02  0.14451216594E+03  0.12499910985E+03 0.  0.
         25    2    1    2    0    0 -0.20415388797E+02 -0.34130787843E+02 -0.65051054446E+02  0.14641784887E+03  0.12499939202E+03 0.  0.
          5    1    3    3  501    0  0.35663469797E+01  0.79979537005E+02  0.25493077872E+02  0.84151245919E+02  0.47000000000E+01 0.  1.
         -5    1    3    3    0  501  0.16849041817E+02 -0.45848749162E+02  0.35147583935E+02  0.60360920026E+02  0.47000000000E+01 0.  1.
          5    1    4    4  502    0 -0.21456284216E+02  0.40481601799E+01  0.33702582122E+02  0.40431593771E+02  0.47000000000E+01 0. -1.
         -5    1    4    4    0  502  0.10408954192E+01 -0.38178948023E+02 -0.98753636568E+02  0.10598625510E+03  0.47000000000E+01 0. -1.
<mgrwt>
<rscale>  0 0.29089658E+03</rscale>
<asrwt>0</asrwt>
<pdfrwt beam="1">  1       21 0.22039971E-01 0.29089658E+03</pdfrwt>
<pdfrwt beam="2">  1       21 0.22718493E-01 0.29089658E+03</pdfrwt>
<totfact> 0.34200866E+05</totfact>
</mgrwt>
</event>
<event>
 8    1  0.9569852E-006  0.4737396E+03  0.7546771E-02  0.1020870E+00
         21   -1    0    0  504  503  0.00000000000E+00  0.00000000000E+00  0.11350711954E+03  0.11350711954E+03  0.00000000000E+00 0. -1.
         21   -1    0    0  503  504 -0.00000000000E+00 -0.00000000000E+00 -0.49430652624E+03  0.49430652624E+03  0.00000000000E+00 0. -1.
         25    2    1    2    0    0  0.14295854795E+03 -0.27058523306E+02 -0.12093614174E+02  0.19219539849E+03  0.12499402218E+03 0.  0.
         25    2    1    2    0    0 -0.14295854795E+03  0.27058523306E+02 -0.36870579252E+03  0.41561824728E+03  0.12500102367E+03 0.  0.
          5    1    3    3  501    0  0.70204853251E+01  0.17732708582E+02  0.36100919624E+02  0.41098692991E+02  0.47000000000E+01 0.  1.
         -5    1    3    3    0  501  0.13593806263E+03 -0.44791231888E+02 -0.48194533798E+02  0.15109670550E+03  0.47000000000E+01 0.  1.
          5    1    4    4  502    0 -0.88787843004E+02  0.21668033446E+02 -0.34343129493E+03  0.35541515032E+03  0.47000000000E+01 0.  1.
         -5    1    4    4    0  502 -0.54170704948E+02  0.53904898601E+01 -0.25274497592E+02  0.60203096964E+02  0.47000000000E+01 0.  1.
<mgrwt>
<rscale>  0 0.47373963E+03</rscale>
<asrwt>0</asrwt>
<pdfrwt beam="1">  1       21 0.17462634E-01 0.47373963E+03</pdfrwt>
<pdfrwt beam="2">  1       21 0.76047158E-01 0.47373963E+03</pdfrwt>
<totfact> 0.41717599E+04</totfact>
</mgrwt>
</event>
<event>
 8    1  0.9569852E-006  0.2981049E+03  0.7546771E-02  0.1086192E+00
         21   -1    0    0  504  503  0.00000000000E+00  0.00000000000E+00  0.76436238710E+03  0.76436238710E+03  0.00000000000E+00 0.  1.
         21   -1    0    0  503  504 -0.00000000000E+00 -0.00000000000E+00 -0.29065577266E+02  0.29065577266E+02  0.00000000000E+00 0.  1.
         25    2    1    2    0    0  0.45980902737E+02  0.64240414039E+02  0.41749913986E+03  0.44291285281E+03  0.12500075678E+03 0.  0.
         25    2    1    2    0    0 -0.45980902737E+02 -0.64240414039E+02  0.31779766998E+03  0.35051511155E+03  0.12499764066E+03 0.  0.
          5    1    3    3  501    0  0.88134848608E+02  0.45656063051E+02  0.24706107013E+03  0.26629586930E+03  0.47000000000E+01 0. -1.
         -5    1    3    3    0  501 -0.42153945871E+02  0.18584350988E+02  0.17043806972E+03  0.17661698351E+03  0.47000000000E+01 0. -1.
          5    1    4    4  502    0  0.19648020616E+02 -0.35727935007E+02  0.24469323497E+03  0.24811166699E+03  0.47000000000E+01 0.  1.
         -5    1    4    4    0  502 -0.65628923353E+02 -0.28512479031E+02  0.73104435008E+02  0.10240344456E+03  0.47000000000E+01 0.  1.
<mgrwt>
<rscale>  0 0.29810491E+03</rscale>
<asrwt>0</asrwt>
<pdfrwt beam="1">  1       21 0.11759420E+00 0.29810491E+03</pdfrwt>
<pdfrwt beam="2">  1       21 0.44716278E-02 0.29810491E+03</pdfrwt>
<totfact> 0.17425808E+05</totfact>
</mgrwt>
</event>
<event>
 8    1  0.9569852E-006  0.2825001E+03  0.7546771E-02  0.1094331E+00
         21   -1    0    0  504  503  0.00000000000E+00  0.00000000000E+00  0.97554462124E+02  0.97554462124E+02  0.00000000000E+00 0. -1.
         21   -1    0    0  503  504 -0.00000000000E+00 -0.00000000000E+00 -0.20451736385E+03  0.20451736385E+03  0.00000000000E+00 0. -1.
         25    2    1    2    0    0  0.19544088062E+02 -0.56642114414E+02 -0.24405811680E+02  0.14074871811E+03  0.12499702997E+03 0.  0.
         25    2    1    2    0    0 -0.19544088062E+02  0.56642114414E+02 -0.82557090048E+02  0.16132310787E+03  0.12497668387E+03 0.  0.
          5    1    3    3  501    0  0.72327445680E+02 -0.35157179542E+02 -0.64527637865E+01  0.80814694409E+02  0.47000000000E+01 0.  1.
         -5    1    3    3    0  501 -0.52783357619E+02 -0.21484934873E+02 -0.17953047893E+02  0.59934023698E+02  0.47000000000E+01 0.  1.
          5    1    4    4  502    0 -0.40606815872E+02 -0.24287495740E+02 -0.61398505262E+01  0.47943547105E+02  0.47000000000E+01 0.  1.
         -5    1    4    4    0  502  0.21062727811E+02  0.80929610154E+02 -0.76417239522E+02  0.11337956076E+03  0.47000000000E+01 0.  1.
<mgrwt>
<rscale>  0 0.28250013E+03</rscale>
<asrwt>0</asrwt>
<pdfrwt beam="1">  1       21 0.15008379E-01 0.28250013E+03</pdfrwt>
<pdfrwt beam="2">  1       21 0.31464210E-01 0.28250013E+03</pdfrwt>
<totfact> 0.37317337E+05</totfact>
</mgrwt>
</event>
<event>
 8    1  0.9569852E-006  0.2650288E+03  0.7546771E-02  0.1104159E+00
         21   -1    0    0  504  503  0.00000000000E+00  0.00000000000E+00  0.28182985182E+03  0.28182985182E+03  0.00000000000E+00 0. -1.
         21   -1    0    0  503  504 -0.00000000000E+00 -0.00000000000E+00 -0.62307331956E+02  0.62307331956E+02  0.00000000000E+00 0. -1.
         25    2    1    2    0    0  0.15888890124E+02  0.27160307732E+02  0.14965351464E+03  0.19751646214E+03  0.12500575678E+03 0.  0.
         25    2    1    2    0    0 -0.15888890124E+02 -0.27160307732E+02  0.69869005230E+02  0.14662072163E+03  0.12500327586E+03 0.  0.
          5    1    3    3  501    0 -0.47410100306E+02  0.67173767765E+01  0.20773497979E+02  0.52406764640E+02  0.47000000000E+01 0. -1.
         -5    1    3    3    0  501  0.63298990430E+02  0.20442930956E+02  0.12888001666E+03  0.14510969750E+03  0.47000000000E+01 0. -1.
          5    1    4    4  502    0 -0.38943783396E+02 -0.28457727972E+02 -0.20948525204E+02  0.52795750347E+02  0.47000000000E+01 0.  1.
         -5    1    4    4    0  502  0.23054893272E+02  0.12974202403E+01  0.90817530433E+02  0.93824971288E+02  0.47000000000E+01 0.  1.
<mgrwt>
<rscale>  0 0.26502880E+03</rscale>
<asrwt>0</asrwt>
<pdfrwt beam="1">  1       21 0.43358438E-01 0.26502880E+03</pdfrwt>
<pdfrwt beam="2">  1       21 0.95857436E-02 0.26502880E+03</pdfrwt>
<totfact> 0.44036960E+05</totfact>
</mgrwt>
</event>
<event>
 8    1  0.9569852E-006  0.4293978E+03  0.7546771E-02  0.1034050E+00
         21   -1    0    0  504  503  0.00000000000E+00  0.00000000000E+00  0.77345083317E+03  0.77345083317E+03  0.00000000000E+00 0.  1.
         21   -1    0    0  503  504 -0.00000000000E+00 -0.00000000000E+00 -0.59597350893E+02  0.59597350893E+02  0.00000000000E+00 0.  1.
         25    2    1    2    0    0  0.12598949589E+02 -0.15051317454E+03  0.18715589223E+03  0.27104380802E+03  0.12499787449E+03 0.  0.
         25    2    1    2    0    0 -0.12598949589E+02  0.15051317454E+03  0.52669759004E+03  0.56200437604E+03  0.12500247235E+03 0.  0.
          5    1    3    3  501    0 -0.48722215526E+02 -0.97704556422E+02  0.13879073280E+03  0.17664934798E+03  0.47000000000E+01 0.  1.
         -5    1    3    3    0  501  0.61321165115E+02 -0.52808618115E+02  0.48365159429E+02  0.94394460033E+02  0.47000000000E+01 0.  1.
          5    1    4    4  502    0 -0.63316395348E+02  0.11768653099E+03  0.32603428386E+03  0.35239116015E+03  0.47000000000E+01 0. -1.
         -5    1    4    4    0  502  0.50717445759E+02  0.32826643548E+02  0.20066330618E+03  0.20961321589E+03  0.47000000000E+01 0. -1.
<mgrwt>
<rscale>  0 0.42939781E+03</rscale>
<asrwt>0</asrwt>
<pdfrwt beam="1">  1       21 0.11899243E+00 0.42939781E+03</pdfrwt>
<pdfrwt beam="2">  1       21 0.91688238E-02 0.42939781E+03</pdfrwt>
<totfact> 0.46788546E+04</totfact>
</mgrwt>
</event>
<event>
 8    1  0.9569852E-006  0.2851095E+03  0.7546771E-02  0.1092931E+00
         21   -1    0    0  504  503  0.00000000000E+00  0.00000000000E+00  0.38457775394E+03  0.38457775394E+03  0.00000000000E+00 0.  1.
         21   -1    0    0  503  504 -0.00000000000E+00 -0.00000000000E+00 -0.52841997246E+02  0.52841997246E+02  0.00000000000E+00 0.  1.
         25    2    1    2    0    0  0.13302168676E+01 -0.63763143422E+02  0.20432499126E+03  0.24787344211E+03  0.12500013326E+03 0.  0.
         25    2    1    2    0    0 -0.13302168676E+01  0.63763143422E+02  0.12741076544E+03  0.18954630908E+03  0.12500716859E+03 0.  0.
          5    1    3    3  501    0  0.36584362186E+02 -0.36879001130E+01  0.16209779125E+03  0.16628229037E+03  0.47000000000E+01 0.  1.
         -5    1    3    3    0  501 -0.35254145319E+02 -0.60075243309E+02  0.42227200008E+02  0.81591151734E+02  0.47000000000E+01 0.  1.
          5    1    4    4  502    0 -0.32093178416E+02 -0.24776641841E+02  0.15912397677E+02  0.43808086943E+02  0.47000000000E+01 0.  1.
         -5    1    4    4    0  502  0.30762961549E+02  0.88539785264E+02  0.11149836776E+03  0.14573822214E+03  0.47000000000E+01 0.  1.
<mgrwt>
<rscale>  0 0.28510950E+03</rscale>
<asrwt>0</asrwt>
<pdfrwt beam="1">  1       21 0.59165807E-01 0.28510950E+03</pdfrwt>
<pdfrwt beam="2">  1       21 0.81295383E-02 0.28510950E+03</pdfrwt>
<totfact> 0.30465512E+05</totfact>
</mgrwt>
</event>
<event>
 8    1  0.9569852E-006  0.2741769E+03  0.7546771E-02  0.1098913E+00
         21   -1    0    0  504  503  0.00000000000E+00  0.00000000000E+00  0.17650180790E+03  0.17650180790E+03  0.00000000000E+00 0.  1.
         21   -1    0    0  503  504 -0.00000000000E+00 -0.00000000000E+00 -0.10647624340E+03  0.10647624340E+03  0.00000000000E+00 0.  1.
         25    2    1    2    0    0 -0.30689693498E+02  0.27813592933E+02  0.74333601038E+02  0.15122187544E+03  0.12500847223E+03 0.  0.
         25    2    1    2    0    0  0.30689693498E+02 -0.27813592933E+02 -0.43080365408E+01  0.13175617587E+03  0.12500270982E+03 0.  0.
          5    1    3    3  501    0  0.44498670176E+02  0.10097983705E+02  0.54684446335E+02  0.71376323758E+02  0.47000000000E+01 0. -1.
         -5    1    3    3    0  501 -0.75188363674E+02  0.17715609228E+02  0.19649154703E+02  0.79845551678E+02  0.47000000000E+01 0. -1.
          5    1    4    4  502    0 -0.24713219686E+01 -0.27631249081E+02 -0.60282950603E+02  0.66526066256E+02  0.47000000000E+01 0. -1.
         -5    1    4    4    0  502  0.33161015467E+02 -0.18234385166E+00  0.55974914062E+02  0.65230109615E+02  0.47000000000E+01 0. -1.
<mgrwt>
<rscale>  0 0.27417695E+03</rscale>
<asrwt>0</asrwt>
<pdfrwt beam="1">  1       21 0.27154124E-01 0.27417695E+03</pdfrwt>
<pdfrwt beam="2">  1       21 0.16380961E-01 0.27417695E+03</pdfrwt>
<totfact> 0.42457050E+05</totfact>
</mgrwt>
</event>
<event>
 8    1  0.9569852E-006  0.4324518E+03  0.7546771E-02  0.1033088E+00
         21   -1    0    0  504  503  0.00000000000E+00  0.00000000000E+00  0.10914554779E+03  0.10914554779E+03  0.00000000000E+00 0. -1.
         21   -1    0    0  503  504 -0.00000000000E+00 -0.00000000000E+00 -0.42836045700E+03  0.42836045700E+03  0.00000000000E+00 0. -1.
         25    2    1    2    0    0 -0.96097224392E+02  0.14596068473E+03 -0.18982716529E+03  0.28669798221E+03  0.12498872870E+03 0.  0.
         25    2    1    2    0    0  0.96097224392E+02 -0.14596068473E+03 -0.12938774392E+03  0.25080802257E+03  0.12499711151E+03 0.  0.
          5    1    3    3  501    0 -0.95850809884E+02  0.13628520329E+03 -0.96193602332E+02  0.19244826193E+03  0.47000000000E+01 0. -1.
         -5    1    3    3    0  501 -0.24641450813E+00  0.96754814386E+01 -0.93633562959E+02  0.94249720284E+02  0.47000000000E+01 0. -1.
          5    1    4    4  502    0  0.43540552117E+02 -0.15179138758E+03 -0.11617822323E+03  0.19610169447E+03  0.47000000000E+01 0. -1.
         -5    1    4    4    0  502  0.52556672275E+02  0.58307028591E+01 -0.13209520692E+02  0.54706328093E+02  0.47000000000E+01 0. -1.
<mgrwt>
<rscale>  0 0.43245179E+03</rscale>
<asrwt>0</asrwt>
<pdfrwt beam="1">  1       21 0.16791623E-01 0.43245179E+03</pdfrwt>
<pdfrwt beam="2">  1       21 0.65901609E-01 0.43245179E+03</pdfrwt>
<totfact> 0.62591236E+04</totfact>
</mgrwt>
</event>
<event>
 8    1  0.9569852E-006  0.2624311E+03  0.7546771E-02  0.1105691E+00
         21   -1    0    0  504  503  0.00000000000E+00  0.00000000000E+00  0.14747205980E+02  0.14747205980E+02  0.00000000000E+00 0. -1.
         21   -1    0    0  503  504 -0.00000000000E+00 -0.00000000000E+00 -0.11675105866E+04  0.11675105866E+04  0.00000000000E+00 0. -1.
         25    2    1    2    0    0  0.80841551363E+01 -0.39034174180E+02 -0.58418230412E+03  0.59873618323E+03  0.12500812910E+03 0.  0.
         25    2    1    2    0    0 -0.80841551363E+01  0.39034174180E+02 -0.56858107655E+03  0.58352160940E+03  0.12499603078E+03 0.  0.
          5    1    3    3  501    0  0.16061746345E+02 -0.77488110744E+02 -0.49316779950E+03  0.49949870417E+03  0.47000000000E+01 0. -1.
         -5    1    3    3    0  501 -0.79775912083E+01  0.38453936563E+02 -0.91014504618E+02  0.99237479057E+02  0.47000000000E+01 0. -1.
          5    1    4    4  502    0  0.35897780306E+02  0.67170902789E+02 -0.39046299563E+03  0.39784924502E+03  0.47000000000E+01 0. -1.
         -5    1    4    4    0  502 -0.43981935442E+02 -0.28136728608E+02 -0.17811808092E+03  0.18567236438E+03  0.47000000000E+01 0. -1.
<mgrwt>
<rscale>  0 0.26243109E+03</rscale>
<asrwt>0</asrwt>
<pdfrwt beam="1">  1       21 0.22688009E-02 0.26243109E+03</pdfrwt>
<pdfrwt beam="2">  1       21 0.17961702E+00 0.26243109E+03</pdfrwt>
<totfact> 0.17801214E+05</totfact>
</mgrwt>
</event>
<event>
 8    1  0.9569852E-006  0.2758983E+03  0.7546771E-02  0.1097951E+00
         21   -1    0    0  504  503  0.00000000000E+00  0.00000000000E+00  0.25192702207E+02  0.25192702207E+02  0.00000000000E+00 0.  1.
         21   -1    0    0  503  504 -0.00000000000E+00 -0.00000000000E+00 -0.75537621361E+03  0.75537621361E+03  0.00000000000E+00 0.  1.
         25    2    1    2    0    0 -0.27462799462E+01 -0.16018258940E+02 -0.20654413421E+03  0.24197152446E+03  0.12500245036E+03 0.  0.
         25    2    1    2    0    0  0.27462799462E+01  0.16018258940E+02 -0.52363937719E+03  0.53859739136E+03  0.12499930386E+03 0.  0.
          5    1    3    3  501    0 -0.59840409124E+02 -0.26170752247E+02 -0.85719094156E+02  0.10786860498E+03  0.47000000000E+01 0. -1.
         -5    1    3    3    0  501  0.57094129178E+02  0.10152493308E+02 -0.12082504006E+03  0.13410291948E+03  0.47000000000E+01 0. -1.
          5    1    4    4  502    0  0.60695640957E+02  0.27270504579E+02 -0.26531274205E+03  0.27357006844E+03  0.47000000000E+01 0.  1.
         -5    1    4    4    0  502 -0.57949361011E+02 -0.11252245639E+02 -0.25832663514E+03  0.26502732292E+03  0.47000000000E+01 0.  1.
<mgrwt>
<rscale>  0 0.27589830E+03</rscale>
<asrwt>0</asrwt>
<pdfrwt beam="1">  1       21 0.38758003E-02 0.27589830E+03</pdfrwt>
<pdfrwt beam="2">  1       21 0.11621173E+00 0.27589830E+03</pdfrwt>
<totfact> 0.22999487E+05</totfact>
</mgrwt>
</event>
<event>
 8    1  0.9569852E-006  0.3149466E+03  0.7546771E-02  0.1077999E+00
         21   -1    0    0  504  503  0.00000000000E+00  0.00000000000E+00  0.70156621959E+02  0.70156621959E+02  0.00000000000E+00 0.  1.
         21   -1    0    0  503  504 -0.00000000000E+00 -0.00000000000E+00 -0.35346394114E+03  0.35346394114E+03  0.00000000000E+00 0.  1.
         25    2    1    2    0    0 -0.54917296118E+02  0.33695984688E+02 -0.23694889136E+03  0.27553762551E+03  0.12499950863E+03 0.  0.
         25    2    1    2    0    0  0.54917296118E+02 -0.33695984688E+02 -0.46358427817E+02  0.14808293758E+03  0.12501249448E+03 0.  0.
          5    1    3    3  501    0 -0.60528128313E+02  0.74294976506E+02 -0.13556883384E+03  0.16608550979E+03  0.47000000000E+01 0. -1.
         -5    1    3    3    0  501  0.56108321952E+01 -0.40598991818E+02 -0.10138005752E+03  0.10945211572E+03  0.47000000000E+01 0. -1.
          5    1    4    4  502    0  0.63846884617E+02 -0.74363947075E+02 -0.38736217130E+02  0.10549410324E+03  0.47000000000E+01 0.  1.
         -5    1    4    4    0  502 -0.89295884990E+01  0.40667962387E+02 -0.76222106866E+01  0.42588834349E+02  0.47000000000E+01 0.  1.
<mgrwt>
<rscale>  0 0.31494657E+03</rscale>
<asrwt>0</asrwt>
<pdfrwt beam="1">  1       21 0.10793327E-01 0.31494657E+03</pdfrwt>
<pdfrwt beam="2">  1       21 0.54379067E-01 0.31494657E+03</pdfrwt>
<totfact> 0.21939715E+05</totfact>
</mgrwt>
</event>
<event>
 8    1  0.9569852E-006  0.3399021E+03  0.7546771E-02  0.1066838E+00
         21   -1    0    0  504  503  0.00000000000E+00  0.00000000000E+00  0.24815262490E+02  0.24815262490E+02  0.00000000000E+00 0.  1.
         21   -1    0    0  503  504 -0.00000000000E+00 -0.00000000000E+00 -0.11639352669E+04  0.11639352669E+04  0.00000000000E+00 0.  1.
         25    2    1    2    0    0 -0.34946897917E+02 -0.10461884116E+03 -0.45393666217E+03  0.48358044846E+03  0.12500067708E+03 0.  0.
         25    2    1    2    0    0  0.34946897917E+02  0.10461884116E+03 -0.68518334223E+03  0.70517008092E+03  0.12498897133E+03 0.  0.
          5    1    3    3  501    0 -0.68341149839E+02 -0.10713426667E+03 -0.40175264173E+03  0.42139712741E+03  0.47000000000E+01 0.  1.
         -5    1    3    3    0  501  0.33394251922E+02  0.25154255091E+01 -0.52184020445E+02  0.62183321049E+02  0.47000000000E+01 0.  1.
          5    1    4    4  502    0  0.67953498140E+01  0.43292031648E+02 -0.56919248376E+03  0.57089626935E+03  0.47000000000E+01 0. -1.
         -5    1    4    4    0  502  0.28151548103E+02  0.61326809517E+02 -0.11599085847E+03  0.13427381158E+03  0.47000000000E+01 0. -1.
<mgrwt>
<rscale>  0 0.33990210E+03</rscale>
<asrwt>0</asrwt>
<pdfrwt beam="1">  1       21 0.38177325E-02 0.33990210E+03</pdfrwt>
<pdfrwt beam="2">  1       21 0.17906697E+00 0.33990210E+03</pdfrwt>
<totfact> 0.73287901E+04</totfact>
</mgrwt>
</event>
<event>
 8    1  0.9569852E-006  0.2567038E+03  0.7546771E-02  0.1109140E+00
         21   -1    0    0  504  503  0.00000000000E+00  0.00000000000E+00  0.99377982274E+03  0.99377982274E+03  0.00000000000E+00 0. -1.
         21   -1    0    0  503  504 -0.00000000000E+00 -0.00000000000E+00 -0.16577320861E+02  0.16577320861E+02  0.00000000000E+00 0. -1.
         25    2    1    2    0    0  0.21144641262E+02 -0.39510664516E+01  0.56615045755E+03  0.58018324518E+03  0.12499420239E+03 0.  0.
         25    2    1    2    0    0 -0.21144641262E+02  0.39510664516E+01  0.41105204434E+03  0.43017389842E+03  0.12499237157E+03 0.  0.
          5    1    3    3  501    0  0.92294429944E+01  0.32576982692E+02  0.40025426641E+02  0.52636177645E+02  0.47000000000E+01 0. -1.
         -5    1    3    3    0  501  0.11915198267E+02 -0.36528049143E+02  0.52612503091E+03  0.52754706754E+03  0.47000000000E+01 0. -1.
          5    1    4    4  502    0 -0.54327312775E+01 -0.60166767116E+02  0.20273051643E+03  0.21159231254E+03  0.47000000000E+01 0. -1.
         -5    1    4    4    0  502 -0.15711909984E+02  0.64117833568E+02  0.20832152790E+03  0.21858158588E+03  0.47000000000E+01 0. -1.
<mgrwt>
<rscale>  0 0.25670377E+03</rscale>
<asrwt>0</asrwt>
<pdfrwt beam="1">  1       21 0.15288916E+00 0.25670377E+03</pdfrwt>
<pdfrwt beam="2">  1       21 0.25503578E-02 0.25670377E+03</pdfrwt>
<totfact> 0.22958332E+05</totfact>
</mgrwt>
</event>
<event>
 8    1  0.9569852E-006  0.4077303E+03  0.7546771E-02  0.1041135E+00
         21   -1    0    0  504  503  0.00000000000E+00  0.00000000000E+00  0.23575248995E+03  0.23575248995E+03  0.00000000000E+00 0. -1.
         21   -1    0    0  503  504 -0.00000000000E+00 -0.00000000000E+00 -0.17629080220E+03  0.17629080220E+03  0.00000000000E+00 0. -1.
         25    2    1    2    0    0 -0.60348977493E+02  0.12685526861E+03  0.10929668391E+03  0.21750938407E+03  0.12502123333E+03 0.  0.
         25    2    1    2    0    0  0.60348977493E+02 -0.12685526861E+03 -0.49834996164E+02  0.19453390808E+03  0.12500262513E+03 0.  0.
          5    1    3    3  501    0  0.24984325407E+02  0.90346994973E+02  0.67507838642E+02  0.11561225841E+03  0.47000000000E+01 0.  1.
         -5    1    3    3    0  501 -0.85333302900E+02  0.36508273641E+02  0.41788845268E+02  0.10189712566E+03  0.47000000000E+01 0.  1.
          5    1    4    4  502    0 -0.27721459764E+02  0.34532068127E+01  0.31506194586E+01  0.28502988820E+02  0.47000000000E+01 0. -1.
         -5    1    4    4    0  502  0.88070437257E+02 -0.13030847543E+03 -0.52985615623E+02  0.16603091926E+03  0.47000000000E+01 0. -1.
<mgrwt>
<rscale>  0 0.40773028E+03</rscale>
<asrwt>0</asrwt>
<pdfrwt beam="1">  1       21 0.36269614E-01 0.40773028E+03</pdfrwt>
<pdfrwt beam="2">  1       21 0.27121662E-01 0.40773028E+03</pdfrwt>
<totfact> 0.89196933E+04</totfact>
</mgrwt>
</event>
<event>
 8    1  0.9569852E-006  0.3675144E+03  0.7546771E-02  0.1055647E+00
         21   -1    0    0  504  503  0.00000000000E+00  0.00000000000E+00  0.15075911765E+02  0.15075911765E+02  0.00000000000E+00 0. -1.
         21   -1    0    0  503  504 -0.00000000000E+00 -0.00000000000E+00 -0.22397783786E+04  0.22397783786E+04  0.00000000000E+00 0. -1.
         25    2    1    2    0    0  0.18914422611E+02 -0.11307089759E+03 -0.67850774669E+03  0.69938498993E+03  0.12499527410E+03 0.  0.
         25    2    1    2    0    0 -0.18914422611E+02  0.11307089759E+03 -0.15461947202E+04  0.15554693004E+04  0.12499539488E+03 0.  0.
          5    1    3    3  501    0  0.57773438417E+02 -0.55751876756E+02 -0.52223638241E+03  0.52839281890E+03  0.47000000000E+01 0. -1.
         -5    1    3    3    0  501 -0.38859015807E+02 -0.57319020836E+02 -0.15627136428E+03  0.17099217103E+03  0.47000000000E+01 0. -1.
          5    1    4    4  502    0 -0.52125632685E+02  0.44903452441E+02 -0.34215879685E+03  0.34903887160E+03  0.47000000000E+01 0. -1.
         -5    1    4    4    0  502  0.33211210075E+02  0.68167445152E+02 -0.12040359233E+04  0.12064304288E+04  0.47000000000E+01 0. -1.
<mgrwt>
<rscale>  0 0.36751436E+03</rscale>
<asrwt>0</asrwt>
<pdfrwt beam="1">  1       21 0.23193705E-02 0.36751436E+03</pdfrwt>
<pdfrwt beam="2">  1       21 0.34458137E+00 0.36751436E+03</pdfrwt>
<totfact> 0.15833981E+04</totfact>
</mgrwt>
</event>
<event>
 8    1  0.9569852E-006  0.3121079E+03  0.7546771E-02  0.1079340E+00
         21   -1    0    0  504  503  0.00000000000E+00  0.00000000000E+00  0.16482940297E+02  0.16482940297E+02  0.00000000000E+00 0. -1.
         21   -1    0    0  503  504 -0.00000000000E+00 -0.00000000000E+00 -0.14774572637E+04  0.14774572637E+04  0.00000000000E+00 0. -1.
         25    2    1    2    0    0 -0.26929253393E+02  0.18709045771E+02 -0.11492447040E+04  0.11564863569E+04  0.12498836328E+03 0.  0.
         25    2    1    2    0    0  0.26929253393E+02 -0.18709045771E+02 -0.31172961941E+03  0.33745384710E+03  0.12499812087E+03 0.  0.
          5    1    3    3  501    0 -0.41222203264E+02 -0.46368594556E+02 -0.58670507356E+03  0.58999512705E+03  0.47000000000E+01 0.  1.
         -5    1    3    3    0  501  0.14292949871E+02  0.65077640327E+02 -0.56253963046E+03  0.56649122988E+03  0.47000000000E+01 0.  1.
          5    1    4    4  502    0  0.56542663015E+02  0.35503180409E+02 -0.14952892783E+03  0.16382471980E+03  0.47000000000E+01 0. -1.
         -5    1    4    4    0  502 -0.29613409622E+02 -0.54212226180E+02 -0.16220069158E+03  0.17362912730E+03  0.47000000000E+01 0. -1.
<mgrwt>
<rscale>  0 0.31210793E+03</rscale>
<asrwt>0</asrwt>
<pdfrwt beam="1">  1       21 0.25358357E-02 0.31210793E+03</pdfrwt>
<pdfrwt beam="2">  1       21 0.22730123E+00 0.31210793E+03</pdfrwt>
<totfact> 0.71041355E+04</totfact>
</mgrwt>
</event>
<event>
 8    1  0.9569852E-006  0.3440583E+03  0.7546771E-02  0.1065081E+00
         21   -1    0    0  504  503  0.00000000000E+00  0.00000000000E+00  0.52474371885E+02  0.52474371885E+02  0.00000000000E+00 0. -1.
         21   -1    0    0  503  504 -0.00000000000E+00 -0.00000000000E+00 -0.56397110666E+03  0.56397110666E+03  0.00000000000E+00 0. -1.
         25    2    1    2    0    0  0.59816988317E+01  0.88213640198E+02 -0.11512126183E+03  0.19152899522E+03  0.12495208701E+03 0.  0.
         25    2    1    2    0    0 -0.59816988317E+01 -0.88213640198E+02 -0.39637547295E+03  0.42491648332E+03  0.12499230059E+03 0.  0.
          5    1    3    3  501    0 -0.46476636773E+02  0.57782781194E+02 -0.17224728199E+02  0.76273906612E+02  0.47000000000E+01 0.  1.
         -5    1    3    3    0  501  0.52458335605E+02  0.30430859004E+02 -0.97896533627E+02  0.11525508861E+03  0.47000000000E+01 0.  1.
          5    1    4    4  502    0 -0.10087994778E+02 -0.67484018807E+02 -0.39740072505E+03  0.40324345835E+03  0.47000000000E+01 0.  1.
         -5    1    4    4    0  502  0.41062959461E+01 -0.20729621391E+02  0.10252521044E+01  0.21673024969E+02  0.47000000000E+01 0.  1.
<mgrwt>
<rscale>  0 0.34405831E+03</rscale>
<asrwt>0</asrwt>
<pdfrwt beam="1">  1       21 0.80729808E-02 0.34405831E+03</pdfrwt>
<pdfrwt beam="2">  1       21 0.86764780E-01 0.34405831E+03</pdfrwt>
<totfact> 0.12890266E+05</totfact>
</mgrwt>
</event>
<event>
 8    1  0.9569852E-006  0.3455769E+03  0.7546771E-02  0.1064445E+00
         21   -1    0    0  504  503  0.00000000000E+00  0.00000000000E+00  0.10101031341E+03  0.10101031341E+03  0.00000000000E+00 0. -1.
         21   -1    0    0  503  504 -0.00000000000E+00 -0.00000000000E+00 -0.29557219940E+03  0.29557219940E+03  0.00000000000E+00 0. -1.
         25    2    1    2    0    0  0.91078040888E+02 -0.58080535011E+02 -0.15537785673E+03  0.22678925218E+03  0.12499011346E+03 0.  0.
         25    2    1    2    0    0 -0.91078040888E+02  0.58080535011E+02 -0.39184029255E+02  0.16979326063E+03  0.12500322047E+03 0.  0.
          5    1    3    3  501    0  0.11190424600E+03 -0.40088392618E+02 -0.15906266625E+03  0.19862693999E+03  0.47000000000E+01 0.  1.
         -5    1    3    3    0  501 -0.20826205108E+02 -0.17992142392E+02  0.36848095158E+01  0.28162312196E+02  0.47000000000E+01 0.  1.
          5    1    4    4  502    0 -0.41942294146E+02  0.56637717252E+02 -0.79281969784E+02  0.10618242692E+03  0.47000000000E+01 0. -1.
         -5    1    4    4    0  502 -0.49135746743E+02  0.14428177589E+01  0.40097940528E+02  0.63610833713E+02  0.47000000000E+01 0. -1.
<mgrwt>
<rscale>  0 0.34557685E+03</rscale>
<asrwt>0</asrwt>
<pdfrwt beam="1">  1       21 0.15540048E-01 0.34557685E+03</pdfrwt>
<pdfrwt beam="2">  1       21 0.45472647E-01 0.34557685E+03</pdfrwt>
<totfact> 0.16368922E+05</totfact>
</mgrwt>
</event>
<event>
 8    1  0.9569852E-006  0.3024877E+03  0.7546771E-02  0.1084004E+00
         21   -1    0    0  504  503  0.00000000000E+00  0.00000000000E+00  0.46049169368E+03  0.46049169368E+03  0.00000000000E+00 0. -1.
         21   -1    0    0  503  504 -0.00000000000E+00 -0.00000000000E+00 -0.49674516089E+02  0.49674516089E+02  0.00000000000E+00 0. -1.
         25    2    1    2    0    0 -0.11147597717E+02 -0.76587476081E+02  0.26527637178E+03  0.30329288271E+03  0.12500043540E+03 0.  0.
         25    2    1    2    0    0  0.11147597717E+02  0.76587476081E+02  0.14554080581E+03  0.20687332705E+03  0.12499814744E+03 0.  0.
          5    1    3    3  501    0 -0.92497353520E+01  0.20364570106E+02  0.23030659740E+01  0.22971012876E+02  0.47000000000E+01 0.  1.
         -5    1    3    3    0  501 -0.18978623647E+01 -0.96952046187E+02  0.26297330580E+03  0.28032186983E+03  0.47000000000E+01 0.  1.
          5    1    4    4  502    0 -0.35020831687E+02  0.25750474128E+02  0.12882099862E+03  0.13603854327E+03  0.47000000000E+01 0. -1.
         -5    1    4    4    0  502  0.46168429404E+02  0.50837001954E+02  0.16719807188E+02  0.70834783784E+02  0.47000000000E+01 0. -1.
<mgrwt>
<rscale>  0 0.30248770E+03</rscale>
<asrwt>0</asrwt>
<pdfrwt beam="1">  1       21 0.70844873E-01 0.30248770E+03</pdfrwt>
<pdfrwt beam="2">  1       21 0.76422335E-02 0.30248770E+03</pdfrwt>
<totfact> 0.22765969E+05</totfact>
</mgrwt>
</event>
<event>
 8    1  0.9569852E-006  0.2941560E+03  0.7546771E-02  0.1088199E+00
         21   -1    0    0  504  503  0.00000000000E+00  0.00000000000E+00  0.11803250236E+03  0.11803250236E+03  0.00000000000E+00 0.  1.
         21   -1    0    0  503  504 -0.00000000000E+00 -0.00000000000E+00 -0.18327102334E+03  0.18327102334E+03  0.00000000000E+00 0.  1.
         25    2    1    2    0    0 -0.95082298374E+01 -0.73551937808E+02 -0.55652199221E+02  0.15564243271E+03  0.12500842209E+03 0.  0.
         25    2    1    2    0    0  0.95082298374E+01  0.73551937808E+02 -0.95863217520E+01  0.14566109299E+03  0.12499984982E+03 0.  0.
          5    1    3    3  501    0 -0.21699813445E+02  0.24571715494E+02  0.12568255602E+02  0.35421775150E+02  0.47000000000E+01 0.  1.
         -5    1    3    3    0  501  0.12191583607E+02 -0.98123653302E+02 -0.68220454823E+02  0.12022065756E+03  0.47000000000E+01 0.  1.
          5    1    4    4  502    0 -0.16009436483E+02  0.10387670410E+03 -0.33095922151E+01  0.10526022569E+03  0.47000000000E+01 0.  1.
         -5    1    4    4    0  502  0.25517666321E+02 -0.30324766290E+02 -0.62767295369E+01  0.40400867301E+02  0.47000000000E+01 0.  1.
<mgrwt>
<rscale>  0 0.29415600E+03</rscale>
<asrwt>0</asrwt>
<pdfrwt beam="1">  1       21 0.18158847E-01 0.29415600E+03</pdfrwt>
<pdfrwt beam="2">  1       21 0.28195542E-01 0.29415600E+03</pdfrwt>
<totfact> 0.32457494E+05</totfact>
</mgrwt>
</event>
<event>
 8    1  0.9569852E-006  0.3149404E+03  0.7546771E-02  0.1078002E+00
         21   -1    0    0  504  503  0.00000000000E+00  0.00000000000E+00  0.26423520612E+03  0.26423520612E+03  0.00000000000E+00 0.  1.
         21   -1    0    0  503  504 -0.00000000000E+00 -0.00000000000E+00 -0.93843917357E+02  0.93843917357E+02  0.00000000000E+00 0.  1.
         25    2    1    2    0    0 -0.12195576481E+02 -0.69173923402E+02  0.11178752461E+02  0.14381782569E+03  0.12499935486E+03 0.  0.
         25    2    1    2    0    0  0.12195576481E+02  0.69173923402E+02  0.15921253630E+03  0.21426129779E+03  0.12500203298E+03 0.  0.
          5    1    3    3  501    0 -0.16586806099E+02 -0.26781032543E+02  0.66553940717E+02  0.73782537674E+02  0.47000000000E+01 0. -1.
         -5    1    3    3    0  501  0.43912296174E+01 -0.42392890859E+02 -0.55375188256E+02  0.70035288015E+02  0.47000000000E+01 0. -1.
          5    1    4    4  502    0  0.21624261316E+02  0.29605395933E+02 -0.11497740056E+02  0.38708864259E+02  0.47000000000E+01 0. -1.
         -5    1    4    4    0  502 -0.94286848344E+01  0.39568527469E+02  0.17071027636E+03  0.17555243353E+03  0.47000000000E+01 0. -1.
<mgrwt>
<rscale>  0 0.31494042E+03</rscale>
<asrwt>0</asrwt>
<pdfrwt beam="1">  1       21 0.40651570E-01 0.31494042E+03</pdfrwt>
<pdfrwt beam="2">  1       21 0.14437526E-01 0.31494042E+03</pdfrwt>
<totfact> 0.23783272E+05</totfact>
</mgrwt>
</event>
<event>
 8    1  0.9569852E-006  0.3221520E+03  0.7546771E-02  0.1074663E+00
         21   -1    0    0  504  503  0.00000000000E+00  0.00000000000E+00  0.14240160200E+03  0.14240160200E+03  0.00000000000E+00 0. -1.
         21   -1    0    0  503  504 -0.00000000000E+00 -0.00000000000E+00 -0.18219933932E+03  0.18219933932E+03  0.00000000000E+00 0. -1.
         25    2    1    2    0    0  0.27310777487E+02 -0.33483295127E+02 -0.11255049440E+03  0.17365346765E+03  0.12498361260E+03 0.  0.
         25    2    1    2    0    0 -0.27310777487E+02  0.33483295127E+02  0.72752757082E+02  0.15094747366E+03  0.12500066609E+03 0.  0.
          5    1    3    3  501    0 -0.47536572834E+01 -0.71534098164E+02 -0.98157164500E+02  0.12164145428E+03  0.47000000000E+01 0.  1.
         -5    1    3    3    0  501  0.32064434770E+02  0.38050803037E+02 -0.14393329904E+02  0.52012013368E+02  0.47000000000E+01 0.  1.
          5    1    4    4  502    0  0.16506326321E+02 -0.34388122608E+02  0.56620063945E+02  0.68431888958E+02  0.47000000000E+01 0.  1.
         -5    1    4    4    0  502 -0.43817103808E+02  0.67871417735E+02  0.16132693137E+02  0.82515584706E+02  0.47000000000E+01 0.  1.
<mgrwt>
<rscale>  0 0.32215200E+03</rscale>
<asrwt>0</asrwt>
<pdfrwt beam="1">  1       21 0.21907939E-01 0.32215200E+03</pdfrwt>
<pdfrwt beam="2">  1       21 0.28030668E-01 0.32215200E+03</pdfrwt>
<totfact> 0.22912123E+05</totfact>
</mgrwt>
</event>
<event>
 8    1  0.9569852E-006  0.3899682E+03  0.7546771E-02  0.1047310E+00
         21   -1    0    0  504  503  0.00000000000E+00  0.00000000000E+00  0.22827427733E+02  0.22827427733E+02  0.00000000000E+00 0. -1.
         21   -1    0    0  503  504 -0.00000000000E+00 -0.00000000000E+00 -0.16654877579E+04  0.16654877579E+04  0.00000000000E+00 0. -1.
         25    2    1    2    0    0 -0.75728965271E+01  0.25288587136E+02 -0.14590306269E+04  0.14646139369E+04  0.12500700897E+03 0.  0.
         25    2    1    2    0    0  0.75728965271E+01 -0.25288587136E+02 -0.18362970322E+03  0.22370124877E+03  0.12500207756E+03 0.  0.
          5    1    3    3  501    0 -0.35990154590E+02 -0.30294737559E+02 -0.10252172823E+04  0.10263067905E+04  0.47000000000E+01 0. -1.
         -5    1    3    3    0  501  0.28417258063E+02  0.55583324695E+02 -0.43381334465E+03  0.43830714634E+03  0.47000000000E+01 0. -1.
          5    1    4    4  502    0  0.37998649060E+02 -0.31456354108E+02 -0.18573577059E+03  0.19223232304E+03  0.47000000000E+01 0.  1.
         -5    1    4    4    0  502 -0.30425752533E+02  0.61677669725E+01  0.21060673717E+01  0.31468925727E+02  0.47000000000E+01 0.  1.
<mgrwt>
<rscale>  0 0.38996821E+03</rscale>
<asrwt>0</asrwt>
<pdfrwt beam="1">  1       21 0.35119111E-02 0.38996821E+03</pdfrwt>
<pdfrwt beam="2">  1       21 0.25622895E+00 0.38996821E+03</pdfrwt>
<totfact> 0.26480099E+04</totfact>
</mgrwt>
</event>
<event>
 8    1  0.9569852E-006  0.3667584E+03  0.7546771E-02  0.1055939E+00
         21   -1    0    0  504  503  0.00000000000E+00  0.00000000000E+00  0.10784222195E+03  0.10784222195E+03  0.00000000000E+00 0. -1.
         21   -1    0    0  503  504 -0.00000000000E+00 -0.00000000000E+00 -0.31182535766E+03  0.31182535766E+03  0.00000000000E+00 0. -1.
         25    2    1    2    0    0  0.45121474661E+02  0.89769062189E+02 -0.23571427657E+00  0.16037575187E+03  0.12500357685E+03 0.  0.
         25    2    1    2    0    0 -0.45121474661E+02 -0.89769062189E+02 -0.20374742143E+03  0.25929182774E+03  0.12499923276E+03 0.  0.
          5    1    3    3  501    0  0.21832743061E+01 -0.30785463709E+02  0.74185545135E+01  0.32087948104E+02  0.47000000000E+01 0. -1.
         -5    1    3    3    0  501  0.42938200355E+02  0.12055452590E+03 -0.76542687900E+01  0.12828780376E+03  0.47000000000E+01 0. -1.
          5    1    4    4  502    0 -0.85750874553E+02 -0.48659252852E+02 -0.15383773515E+03  0.18278149285E+03  0.47000000000E+01 0.  1.
         -5    1    4    4    0  502  0.40629399891E+02 -0.41109809337E+02 -0.49909686285E+02  0.76510334886E+02  0.47000000000E+01 0.  1.
<mgrwt>
<rscale>  0 0.36675845E+03</rscale>
<asrwt>0</asrwt>
<pdfrwt beam="1">  1       21 0.16591111E-01 0.36675845E+03</pdfrwt>
<pdfrwt beam="2">  1       21 0.47973133E-01 0.36675845E+03</pdfrwt>
<totfact> 0.12900604E+05</totfact>
</mgrwt>
</event>
<event>
 8    1  0.9569852E-006  0.3172763E+03  0.7546771E-02  0.1076910E+00
         21   -1    0    0  504  503  0.00000000000E+00  0.00000000000E+00  0.19249393722E+03  0.19249393722E+03  0.00000000000E+00 0. -1.
         21   -1    0    0  503  504 -0.00000000000E+00 -0.00000000000E+00 -0.13073694256E+03  0.13073694256E+03  0.00000000000E+00 0. -1.
         25    2    1    2    0    0  0.53152893118E+02  0.53851355494E+02  0.93828931379E+02  0.17363953316E+03  0.12498648158E+03 0.  0.
         25    2    1    2    0    0 -0.53152893118E+02 -0.53851355494E+02 -0.32071936716E+02  0.14959134661E+03  0.12499505319E+03 0.  0.
          5    1    3    3  501    0  0.42311495259E+01  0.36213675161E+02  0.11236915930E+03  0.11822965304E+03  0.47000000000E+01 0. -1.
         -5    1    3    3    0  501  0.48921743592E+02  0.17637680333E+02 -0.18540227925E+02  0.55409880122E+02  0.47000000000E+01 0. -1.
          5    1    4    4  502    0 -0.23719327260E+02 -0.55350941113E+01 -0.74627126066E+02  0.78641857158E+02  0.47000000000E+01 0. -1.
         -5    1    4    4    0  502 -0.29433565859E+02 -0.48316261383E+02  0.42555189350E+02  0.70949489454E+02  0.47000000000E+01 0. -1.
<mgrwt>
<rscale>  0 0.31727634E+03</rscale>
<asrwt>0</asrwt>
<pdfrwt beam="1">  1       21 0.29614452E-01 0.31727634E+03</pdfrwt>
<pdfrwt beam="2">  1       21 0.20113376E-01 0.31727634E+03</pdfrwt>
<totfact> 0.24215064E+05</totfact>
</mgrwt>
</event>
<event>
 8    1  0.9569852E-006  0.2590312E+03  0.7546771E-02  0.1107727E+00
         21   -1    0    0  504  503  0.00000000000E+00  0.00000000000E+00  0.13194974269E+03  0.13194974269E+03  0.00000000000E+00 0.  1.
         21   -1    0    0  503  504 -0.00000000000E+00 -0.00000000000E+00 -0.12712637990E+03  0.12712637990E+03  0.00000000000E+00 0.  1.
         25    2    1    2    0    0  0.55131987318E+01 -0.29760654691E+02  0.17705733654E+02  0.12981130339E+03  0.12498555739E+03 0.  0.
         25    2    1    2    0    0 -0.55131987318E+01  0.29760654691E+02 -0.12882370863E+02  0.12926481920E+03  0.12500938395E+03 0.  0.
          5    1    3    3  501    0 -0.34185037946E+02 -0.64512458337E+02  0.22713670928E+02  0.76605972007E+02  0.47000000000E+01 0.  1.
         -5    1    3    3    0  501  0.39698236678E+02  0.34751803646E+02 -0.50079372742E+01  0.53205331384E+02  0.47000000000E+01 0.  1.
          5    1    4    4  502    0 -0.42346438984E+01 -0.24162929017E+02 -0.55172550567E+02  0.60563022412E+02  0.47000000000E+01 0. -1.
         -5    1    4    4    0  502 -0.12785548334E+01  0.53923583709E+02  0.42290179704E+02  0.68701796788E+02  0.47000000000E+01 0. -1.
<mgrwt>
<rscale>  0 0.25903122E+03</rscale>
<asrwt>0</asrwt>
<pdfrwt beam="1">  1       21 0.20299960E-01 0.25903122E+03</pdfrwt>
<pdfrwt beam="2">  1       21 0.19557905E-01 0.25903122E+03</pdfrwt>
<totfact> 0.53366029E+05</totfact>
</mgrwt>
</event>
<event>
 8    1  0.9569852E-006  0.3068339E+03  0.7546771E-02  0.1081873E+00
         21   -1    0    0  504  503  0.00000000000E+00  0.00000000000E+00  0.83133961058E+03  0.83133961058E+03  0.00000000000E+00 0.  1.
         21   -1    0    0  503  504 -0.00000000000E+00 -0.00000000000E+00 -0.28311848813E+02  0.28311848813E+02  0.00000000000E+00 0.  1.
         25    2    1    2    0    0 -0.37018951727E+02  0.37910700582E+01  0.17507027308E+03  0.21829333235E+03  0.12497041023E+03 0.  0.
         25    2    1    2    0    0  0.37018951727E+02 -0.37910700582E+01  0.62795748869E+03  0.64135812704E+03  0.12499945810E+03 0.  0.
          5    1    3    3  501    0 -0.66086661708E+02 -0.39214126908E+02  0.11906795406E+03  0.14179020519E+03  0.47000000000E+01 0.  1.
         -5    1    3    3    0  501  0.29067709981E+02  0.43005196966E+02  0.56002319024E+02  0.76503127163E+02  0.47000000000E+01 0.  1.
          5    1    4    4  502    0  0.41809319613E+02  0.55473061910E+02  0.29533294747E+03  0.30342860720E+03  0.47000000000E+01 0. -1.
         -5    1    4    4    0  502 -0.47903678859E+01 -0.59264131968E+02  0.33262454122E+03  0.33792951984E+03  0.47000000000E+01 0. -1.
<mgrwt>
<rscale>  0 0.30683391E+03</rscale>
<asrwt>0</asrwt>
<pdfrwt beam="1">  1       21 0.12789838E+00 0.30683391E+03</pdfrwt>
<pdfrwt beam="2">  1       21 0.43556697E-02 0.30683391E+03</pdfrwt>
<totfact> 0.14701339E+05</totfact>
</mgrwt>
</event>
<event>
 8    1  0.9569852E-006  0.2717523E+03  0.7546771E-02  0.1100281E+00
         21   -1    0    0  504  503  0.00000000000E+00  0.00000000000E+00  0.17324605860E+02  0.17324605860E+02  0.00000000000E+00 0.  1.
         21   -1    0    0  503  504 -0.00000000000E+00 -0.00000000000E+00 -0.10656708209E+04  0.10656708209E+04  0.00000000000E+00 0.  1.
         25    2    1    2    0    0  0.14537274702E+02 -0.10191305469E+02 -0.72434614507E+03  0.73526691521E+03  0.12499961468E+03 0.  0.
         25    2    1    2    0    0 -0.14537274702E+02  0.10191305469E+02 -0.32400006998E+03  0.34772851156E+03  0.12499550927E+03 0.  0.
          5    1    3    3  501    0  0.66243752346E+02  0.12192120728E+02 -0.32513256153E+03  0.33206950342E+03  0.47000000000E+01 0. -1.
         -5    1    3    3    0  501 -0.51706477645E+02 -0.22383426197E+02 -0.39921358353E+03  0.40319741179E+03  0.47000000000E+01 0. -1.
          5    1    4    4  502    0  0.26531433376E+02 -0.88750394530E+01 -0.94493865027E+01  0.29900906132E+02  0.47000000000E+01 0.  1.
         -5    1    4    4    0  502 -0.41068708077E+02  0.19066344922E+02 -0.31455068348E+03  0.31782760542E+03  0.47000000000E+01 0.  1.
<mgrwt>
<rscale>  0 0.27175229E+03</rscale>
<asrwt>0</asrwt>
<pdfrwt beam="1">  1       21 0.26653227E-02 0.27175229E+03</pdfrwt>
<pdfrwt beam="2">  1       21 0.16394944E+00 0.27175229E+03</pdfrwt>
<totfact> 0.17560594E+05</totfact>
</mgrwt>
</event>
<event>
 8    1  0.9569852E-006  0.3029125E+03  0.7546771E-02  0.1083794E+00
         21   -1    0    0  504  503  0.00000000000E+00  0.00000000000E+00  0.15191432846E+03  0.15191432846E+03  0.00000000000E+00 0.  1.
         21   -1    0    0  503  504 -0.00000000000E+00 -0.00000000000E+00 -0.15099955017E+03  0.15099955017E+03  0.00000000000E+00 0.  1.
         25    2    1    2    0    0 -0.81726039500E+02  0.24864027069E+02 -0.36635346738E+01  0.15143821566E+03  0.12499098489E+03 0.  0.
         25    2    1    2    0    0  0.81726039500E+02 -0.24864027069E+02  0.45783129635E+01  0.15147566296E+03  0.12500620042E+03 0.  0.
          5    1    3    3  501    0  0.18289841555E+02 -0.65334756235E+01 -0.36393636546E+02  0.41518566797E+02  0.47000000000E+01 0. -1.
         -5    1    3    3    0  501 -0.10001588105E+03  0.31397502692E+02  0.32730101872E+02  0.10991964887E+03  0.47000000000E+01 0. -1.
          5    1    4    4  502    0  0.11149761688E+03 -0.65529868539E+01  0.18967466551E+02  0.11338657325E+03  0.47000000000E+01 0. -1.
         -5    1    4    4    0  502 -0.29771577381E+02 -0.18311040215E+02 -0.14389153588E+02  0.38089089704E+02  0.47000000000E+01 0. -1.
<mgrwt>
<rscale>  0 0.30291250E+03</rscale>
<asrwt>0</asrwt>
<pdfrwt beam="1">  1       21 0.23371435E-01 0.30291250E+03</pdfrwt>
<pdfrwt beam="2">  1       21 0.23230700E-01 0.30291250E+03</pdfrwt>
<totfact> 0.29233437E+05</totfact>
</mgrwt>
</event>
<event>
 8    1  0.9569852E-006  0.2752323E+03  0.7546771E-02  0.1098322E+00
         21   -1    0    0  504  503  0.00000000000E+00  0.00000000000E+00  0.24775180250E+02  0.24775180250E+02  0.00000000000E+00 0.  1.
         21   -1    0    0  503  504 -0.00000000000E+00 -0.00000000000E+00 -0.76440243584E+03  0.76440243584E+03  0.00000000000E+00 0.  1.
         25    2    1    2    0    0 -0.38299068264E+02 -0.41090524275E+02 -0.33362473407E+03  0.36066938929E+03  0.12498678077E+03 0.  0.
         25    2    1    2    0    0  0.38299068264E+02  0.41090524275E+02 -0.40600252152E+03  0.42850822681E+03  0.12500401253E+03 0.  0.
          5    1    3    3  501    0 -0.50359271678E+02  0.55039347131E+01 -0.29336918512E+03  0.29774807862E+03  0.47000000000E+01 0.  1.
         -5    1    3    3    0  501  0.12060203414E+02 -0.46594458988E+02 -0.40255548954E+02  0.62921310669E+02  0.47000000000E+01 0.  1.
          5    1    4    4  502    0  0.67802850721E+02  0.32649646241E+02 -0.12635303073E+03  0.14714076369E+03  0.47000000000E+01 0. -1.
         -5    1    4    4    0  502 -0.29503782457E+02  0.84408780341E+01 -0.27964949079E+03  0.28136746311E+03  0.47000000000E+01 0. -1.
<mgrwt>
<rscale>  0 0.27523232E+03</rscale>
<asrwt>0</asrwt>
<pdfrwt beam="1">  1       21 0.38115663E-02 0.27523232E+03</pdfrwt>
<pdfrwt beam="2">  1       21 0.11760037E+00 0.27523232E+03</pdfrwt>
<totfact> 0.22976137E+05</totfact>
</mgrwt>
</event>
<event>
 8    1  0.9569852E-006  0.2563409E+03  0.7546771E-02  0.1109362E+00
         21   -1    0    0  504  503  0.00000000000E+00  0.00000000000E+00  0.57245071031E+02  0.57245071031E+02  0.00000000000E+00 0. -1.
         21   -1    0    0  503  504 -0.00000000000E+00 -0.00000000000E+00 -0.28697075610E+03  0.28697075610E+03  0.00000000000E+00 0. -1.
         25    2    1    2    0    0 -0.12641021271E+02  0.25090711863E+02 -0.11000965821E+03  0.16887033927E+03  0.12500290934E+03 0.  0.
         25    2    1    2    0    0  0.12641021271E+02 -0.25090711863E+02 -0.11971602685E+03  0.17534548786E+03  0.12499909514E+03 0.  0.
          5    1    3    3  501    0 -0.20787458850E+02  0.46999732559E+02  0.45965511065E+01  0.51810342483E+02  0.47000000000E+01 0.  1.
         -5    1    3    3    0  501  0.81464375790E+01 -0.21909020696E+02 -0.11460620932E+03  0.11705999679E+03  0.47000000000E+01 0.  1.
          5    1    4    4  502    0 -0.37513180218E+02  0.10663935268E+02  0.14854542410E+01  0.39309728818E+02  0.47000000000E+01 0. -1.
         -5    1    4    4    0  502  0.50154201489E+02 -0.35754647131E+02 -0.12120148109E+03  0.13603575904E+03  0.47000000000E+01 0. -1.
<mgrwt>
<rscale>  0 0.25634088E+03</rscale>
<asrwt>0</asrwt>
<pdfrwt beam="1">  1       21 0.88069338E-02 0.25634088E+03</pdfrwt>
<pdfrwt beam="2">  1       21 0.44149348E-01 0.25634088E+03</pdfrwt>
<totfact> 0.49365098E+05</totfact>
</mgrwt>
</event>
<event>
 8    1  0.9569852E-006  0.2851472E+03  0.7546771E-02  0.1092910E+00
         21   -1    0    0  504  503  0.00000000000E+00  0.00000000000E+00  0.11193471508E+03  0.11193471508E+03  0.00000000000E+00 0.  1.
         21   -1    0    0  503  504 -0.00000000000E+00 -0.00000000000E+00 -0.18159903685E+03  0.18159903685E+03  0.00000000000E+00 0.  1.
         25    2    1    2    0    0 -0.41441323252E+01 -0.39748090237E+02 -0.92150975581E+02  0.16038815239E+03  0.12504188345E+03 0.  0.
         25    2    1    2    0    0  0.41441323252E+01  0.39748090237E+02  0.22486653810E+02  0.13314559954E+03  0.12500006627E+03 0.  0.
          5    1    3    3  501    0 -0.62621212039E+02 -0.49961810773E+01 -0.47236238467E+02  0.78738365788E+02  0.47000000000E+01 0. -1.
         -5    1    3    3    0  501  0.58477079713E+02 -0.34751909160E+02 -0.44914737115E+02  0.81649786602E+02  0.47000000000E+01 0. -1.
          5    1    4    4  502    0 -0.36509336946E+02  0.56952593126E+02 -0.21011355912E+02  0.70993637921E+02  0.47000000000E+01 0.  1.
         -5    1    4    4    0  502  0.40653469271E+02 -0.17204502889E+02  0.43498009722E+02  0.62151961620E+02  0.47000000000E+01 0.  1.
<mgrwt>
<rscale>  0 0.28514724E+03</rscale>
<asrwt>0</asrwt>
<pdfrwt beam="1">  1       21 0.17220726E-01 0.28514724E+03</pdfrwt>
<pdfrwt beam="2">  1       21 0.27938313E-01 0.28514724E+03</pdfrwt>
<totfact> 0.36538897E+05</totfact>
</mgrwt>
</event>
<event>
 8    1  0.9569852E-006  0.3422963E+03  0.7546771E-02  0.1065822E+00
         21   -1    0    0  504  503  0.00000000000E+00  0.00000000000E+00  0.20489514524E+03  0.20489514524E+03  0.00000000000E+00 0.  1.
         21   -1    0    0  503  504 -0.00000000000E+00 -0.00000000000E+00 -0.14295938220E+03  0.14295938220E+03  0.00000000000E+00 0.  1.
         25    2    1    2    0    0  0.59983570591E+02  0.82795723533E+02 -0.26635256410E+02  0.16367098066E+03  0.12500236977E+03 0.  0.
         25    2    1    2    0    0 -0.59983570591E+02 -0.82795723533E+02  0.88571019441E+02  0.18418354678E+03  0.12500237136E+03 0.  0.
          5    1    3    3  501    0  0.68498768816E+02  0.46617998915E+02 -0.68415384038E+02  0.10755498094E+03  0.47000000000E+01 0. -1.
         -5    1    3    3    0  501 -0.85151982244E+01  0.36177724618E+02  0.41780127628E+02  0.56115999714E+02  0.47000000000E+01 0. -1.
          5    1    4    4  502    0 -0.90194779252E+02 -0.21785083569E+02  0.45142602091E+02  0.10329391363E+03  0.47000000000E+01 0. -1.
         -5    1    4    4    0  502  0.30211208660E+02 -0.61010639964E+02  0.43428417350E+02  0.80889633149E+02  0.47000000000E+01 0. -1.
<mgrwt>
<rscale>  0 0.34229627E+03</rscale>
<asrwt>0</asrwt>
<pdfrwt beam="1">  1       21 0.31522330E-01 0.34229627E+03</pdfrwt>
<pdfrwt beam="2">  1       21 0.21993751E-01 0.34229627E+03</pdfrwt>
<totfact> 0.17969300E+05</totfact>
</mgrwt>
</event>
<event>
 8    1  0.9569852E-006  0.3777639E+03  0.7546771E-02  0.1051763E+00
         21   -1    0    0  504  503  0.00000000000E+00  0.00000000000E+00  0.82381655258E+03  0.82381655258E+03  0.00000000000E+00 0.  1.
         21   -1    0    0  503  504 -0.00000000000E+00 -0.00000000000E+00 -0.43306234087E+02  0.43306234087E+02  0.00000000000E+00 0.  1.
         25    2    1    2    0    0 -0.36781608793E-01 -0.12223862596E+03  0.22620727586E+03  0.28589750414E+03  0.12500147276E+03 0.  0.
         25    2    1    2    0    0  0.36781608793E-01  0.12223862596E+03  0.55430304263E+03  0.58122528253E+03  0.12501473092E+03 0.  0.
          5    1    3    3  501    0 -0.23466907296E+02  0.50516839174E+01  0.10738158385E+03  0.11013223778E+03  0.47000000000E+01 0. -1.
         -5    1    3    3    0  501  0.23430125687E+02 -0.12729030987E+03  0.11882569202E+03  0.17576526636E+03  0.47000000000E+01 0. -1.
          5    1    4    4  502    0  0.10092180216E+02  0.99985959818E+01 -0.60007413461E+00  0.14975784189E+02  0.47000000000E+01 0. -1.
         -5    1    4    4    0  502 -0.10055398607E+02  0.11224002997E+03  0.55490311677E+03  0.56624949834E+03  0.47000000000E+01 0. -1.
<mgrwt>
<rscale>  0 0.37776391E+03</rscale>
<asrwt>0</asrwt>
<pdfrwt beam="1">  1       21 0.12674100E+00 0.37776391E+03</pdfrwt>
<pdfrwt beam="2">  1       21 0.66624982E-02 0.37776391E+03</pdfrwt>
<totfact> 0.70949165E+04</totfact>
</mgrwt>
</event>
<event>
 8    1  0.9569852E-006  0.2688837E+03  0.7546771E-02  0.1101920E+00
         21   -1    0    0  504  503  0.00000000000E+00  0.00000000000E+00  0.11850099259E+03  0.11850099259E+03  0.00000000000E+00 0. -1.
         21   -1    0    0  503  504 -0.00000000000E+00 -0.00000000000E+00 -0.15252712660E+03  0.15252712660E+03  0.00000000000E+00 0. -1.
         25    2    1    2    0    0  0.17576557350E+02  0.19712633308E+02  0.25147426010E+02  0.13020981495E+03  0.12499871837E+03 0.  0.
         25    2    1    2    0    0 -0.17576557350E+02 -0.19712633308E+02 -0.59173560019E+02  0.14081830425E+03  0.12502304318E+03 0.  0.
          5    1    3    3  501    0  0.60775671261E+02  0.17541429805E+02  0.49400590042E+02  0.80398335016E+02  0.47000000000E+01 0.  1.
         -5    1    3    3    0  501 -0.43199113911E+02  0.21712035026E+01 -0.24253164031E+02  0.49811479931E+02  0.47000000000E+01 0.  1.
          5    1    4    4  502    0 -0.64422152106E+02  0.17166412986E+02 -0.40575699755E+02  0.78188086224E+02  0.47000000000E+01 0. -1.
         -5    1    4    4    0  502  0.46845594755E+02 -0.36879046294E+02 -0.18597860264E+02  0.62630218025E+02  0.47000000000E+01 0. -1.
<mgrwt>
<rscale>  0 0.26888374E+03</rscale>
<asrwt>0</asrwt>
<pdfrwt beam="1">  1       21 0.18230922E-01 0.26888374E+03</pdfrwt>
<pdfrwt beam="2">  1       21 0.23465712E-01 0.26888374E+03</pdfrwt>
<totfact> 0.46153992E+05</totfact>
</mgrwt>
</event>
<event>
 8    1  0.9569852E-006  0.2541127E+03  0.7546771E-02  0.1110733E+00
         21   -1    0    0  504  503  0.00000000000E+00  0.00000000000E+00  0.99969780087E+03  0.99969780087E+03  0.00000000000E+00 0.  1.
         21   -1    0    0  503  504 -0.00000000000E+00 -0.00000000000E+00 -0.16148196927E+02  0.16148196927E+02  0.00000000000E+00 0.  1.
         25    2    1    2    0    0 -0.22544856151E+02  0.25335720512E+01  0.49915357224E+03  0.51506641229E+03  0.12499772344E+03 0.  0.
         25    2    1    2    0    0  0.22544856151E+02 -0.25335720512E+01  0.48439603171E+03  0.50077958551E+03  0.12500395274E+03 0.  0.
          5    1    3    3  501    0  0.18559984295E+02  0.28271245675E+02  0.36983313123E+02  0.50334797095E+02  0.47000000000E+01 0. -1.
         -5    1    3    3    0  501 -0.41104840446E+02 -0.25737673624E+02  0.46217025912E+03  0.46473161520E+03  0.47000000000E+01 0. -1.
          5    1    4    4  502    0 -0.25252167678E+02  0.10215173474E+02  0.20968609395E+02  0.34695739242E+02  0.47000000000E+01 0. -1.
         -5    1    4    4    0  502  0.47797023829E+02 -0.12748745526E+02  0.46342742231E+03  0.46608384627E+03  0.47000000000E+01 0. -1.
<mgrwt>
<rscale>  0 0.25411271E+03</rscale>
<asrwt>0</asrwt>
<pdfrwt beam="1">  1       21 0.15379961E+00 0.25411271E+03</pdfrwt>
<pdfrwt beam="2">  1       21 0.24843388E-02 0.25411271E+03</pdfrwt>
<totfact> 0.23617002E+05</totfact>
</mgrwt>
</event>
<event>
 8    1  0.9569852E-006  0.2980245E+03  0.7546771E-02  0.1086232E+00
         21   -1    0    0  504  503  0.00000000000E+00  0.00000000000E+00  0.23471177191E+02  0.23471177191E+02  0.00000000000E+00 0.  1.
         21   -1    0    0  503  504 -0.00000000000E+00 -0.00000000000E+00 -0.94603907594E+03  0.94603907594E+03  0.00000000000E+00 0.  1.
         25    2    1    2    0    0  0.70058300743E+02  0.15053378484E+02 -0.33758404085E+03  0.36704439097E+03  0.12499532231E+03 0.  0.
         25    2    1    2    0    0 -0.70058300743E+02 -0.15053378484E+02 -0.58498385790E+03  0.60246586216E+03  0.12499692540E+03 0.  0.
          5    1    3    3  501    0  0.42851869128E+02 -0.53503879385E+02 -0.13671422676E+03  0.15300920755E+03  0.47000000000E+01 0.  1.
         -5    1    3    3    0  501  0.27206431614E+02  0.68557257870E+02 -0.20086981409E+03  0.21403518342E+03  0.47000000000E+01 0.  1.
          5    1    4    4  502    0 -0.36907303537E+02 -0.45329480663E+02 -0.10420863971E+03  0.11957609068E+03  0.47000000000E+01 0. -1.
         -5    1    4    4    0  502 -0.33150997205E+02  0.30276102179E+02 -0.48077521819E+03  0.48288977148E+03  0.47000000000E+01 0. -1.
<mgrwt>
<rscale>  0 0.29802450E+03</rscale>
<asrwt>0</asrwt>
<pdfrwt beam="1">  1       21 0.36109505E-02 0.29802450E+03</pdfrwt>
<pdfrwt beam="2">  1       21 0.14554447E+00 0.29802450E+03</pdfrwt>
<totfact> 0.14462801E+05</totfact>
</mgrwt>
</event>
<event>
 8    1  0.9569852E-006  0.2923906E+03  0.7546771E-02  0.1089108E+00
         21   -1    0    0  504  503  0.00000000000E+00  0.00000000000E+00  0.95036359624E+03  0.95036359624E+03  0.00000000000E+00 0. -1.
         21   -1    0    0  503  504 -0.00000000000E+00 -0.00000000000E+00 -0.22489350864E+02  0.22489350864E+02  0.00000000000E+00 0. -1.
         25    2    1    2    0    0  0.48039905797E+02  0.47811765626E+02  0.35087341171E+03  0.37859065795E+03  0.12499975106E+03 0.  0.
         25    2    1    2    0    0 -0.48039905797E+02 -0.47811765626E+02  0.57700083367E+03  0.59426228915E+03  0.12499563500E+03 0.  0.
          5    1    3    3  501    0  0.72006887441E+02  0.18909617611E+02  0.99356098611E+02  0.12424286623E+03  0.47000000000E+01 0. -1.
         -5    1    3    3    0  501 -0.23966981644E+02  0.28902148015E+02  0.25151731310E+03  0.25434779173E+03  0.47000000000E+01 0. -1.
          5    1    4    4  502    0  0.32726324734E+02  0.18097221545E+02  0.16528910367E+03  0.16953200156E+03  0.47000000000E+01 0. -1.
         -5    1    4    4    0  502 -0.80766230531E+02 -0.65908987171E+02  0.41171172999E+03  0.42473028759E+03  0.47000000000E+01 0. -1.
<mgrwt>
<rscale>  0 0.29239056E+03</rscale>
<asrwt>0</asrwt>
<pdfrwt beam="1">  1       21 0.14620975E+00 0.29239056E+03</pdfrwt>
<pdfrwt beam="2">  1       21 0.34599009E-02 0.29239056E+03</pdfrwt>
<totfact> 0.15380048E+05</totfact>
</mgrwt>
</event>
<event>
 8    1  0.9569852E-006  0.5783594E+03  0.7546771E-02  0.9951349E-01
         21   -1    0    0  504  503  0.00000000000E+00  0.00000000000E+00  0.26330718202E+03  0.26330718202E+03  0.00000000000E+00 0. -1.
         21   -1    0    0  503  504 -0.00000000000E+00 -0.00000000000E+00 -0.31759441378E+03  0.31759441378E+03  0.00000000000E+00 0. -1.
         25    2    1    2    0    0  0.19885773141E+03 -0.10470578182E+03  0.10569331167E+03  0.27803661849E+03  0.12500234799E+03 0.  0.
         25    2    1    2    0    0 -0.19885773141E+03  0.10470578182E+03 -0.15998054343E+03  0.30286497731E+03  0.12500288844E+03 0.  0.
          5    1    3    3  501    0  0.39325200581E+02 -0.55916340398E+02  0.86039362755E+02  0.10999077447E+03  0.47000000000E+01 0. -1.
         -5    1    3    3    0  501  0.15953253083E+03 -0.48789441427E+02  0.19653948911E+02  0.16804584403E+03  0.47000000000E+01 0. -1.
          5    1    4    4  502    0 -0.29881108465E+02  0.30503974700E+02 -0.99865325658E+02  0.10871313805E+03  0.47000000000E+01 0. -1.
         -5    1    4    4    0  502 -0.16897662294E+03  0.74201807125E+02 -0.60115217768E+02  0.19415183926E+03  0.47000000000E+01 0. -1.
<mgrwt>
<rscale>  0 0.57835937E+03</rscale>
<asrwt>0</asrwt>
<pdfrwt beam="1">  1       21 0.40508797E-01 0.57835937E+03</pdfrwt>
<pdfrwt beam="2">  1       21 0.48860679E-01 0.57835937E+03</pdfrwt>
<totfact> 0.20658424E+04</totfact>
</mgrwt>
</event>
<event>
 8    1  0.9569852E-006  0.3338797E+03  0.7546771E-02  0.1069433E+00
         21   -1    0    0  504  503  0.00000000000E+00  0.00000000000E+00  0.43517937756E+03  0.43517937756E+03  0.00000000000E+00 0. -1.
         21   -1    0    0  503  504 -0.00000000000E+00 -0.00000000000E+00 -0.64040053867E+02  0.64040053867E+02  0.00000000000E+00 0. -1.
         25    2    1    2    0    0 -0.45146029758E+02  0.78975977346E+02  0.27977432684E+03  0.31964329875E+03  0.12499118159E+03 0.  0.
         25    2    1    2    0    0  0.45146029758E+02 -0.78975977346E+02  0.91364996856E+02  0.17957613268E+03  0.12499862311E+03 0.  0.
          5    1    3    3  501    0 -0.38702120416E+02  0.11283316563E+03  0.22616785887E+03  0.25574043046E+03  0.47000000000E+01 0. -1.
         -5    1    3    3    0  501 -0.64439093424E+01 -0.33857188282E+02  0.53606467975E+02  0.63902868283E+02  0.47000000000E+01 0. -1.
          5    1    4    4  502    0  0.48976682696E+02  0.17455717483E+02  0.97749978790E+01  0.53113633884E+02  0.47000000000E+01 0.  1.
         -5    1    4    4    0  502 -0.38306529379E+01 -0.96431694829E+02  0.81589998977E+02  0.12646249880E+03  0.47000000000E+01 0.  1.
<mgrwt>
<rscale>  0 0.33387968E+03</rscale>
<asrwt>0</asrwt>
<pdfrwt beam="1">  1       21 0.66950672E-01 0.33387968E+03</pdfrwt>
<pdfrwt beam="2">  1       21 0.98523162E-02 0.33387968E+03</pdfrwt>
<totfact> 0.16358286E+05</totfact>
</mgrwt>
</event>
<event>
 8    1  0.9569852E-006  0.2738732E+03  0.7546771E-02  0.1099083E+00
         21   -1    0    0  504  503  0.00000000000E+00  0.00000000000E+00  0.57433624312E+03  0.57433624312E+03  0.00000000000E+00 0. -1.
         21   -1    0    0  503  504 -0.00000000000E+00 -0.00000000000E+00 -0.32649223902E+02  0.32649223902E+02  0.00000000000E+00 0. -1.
         25    2    1    2    0    0  0.11484934771E+02  0.38936883721E+02  0.35604488645E+03  0.37952659091E+03  0.12499794959E+03 0.  0.
         25    2    1    2    0    0 -0.11484934771E+02 -0.38936883721E+02  0.18564213277E+03  0.22745887611E+03  0.12500621673E+03 0.  0.
          5    1    3    3  501    0  0.24831503679E+02 -0.22776028618E+02  0.27293471042E+03  0.27504690001E+03  0.47000000000E+01 0.  1.
         -5    1    3    3    0  501 -0.13346568908E+02  0.61712912339E+02  0.83110176028E+02  0.10447969090E+03  0.47000000000E+01 0.  1.
          5    1    4    4  502    0  0.14945700266E+02 -0.78369267542E+02  0.88559819331E+02  0.11928976340E+03  0.47000000000E+01 0.  1.
         -5    1    4    4    0  502 -0.26430635036E+02  0.39432383821E+02  0.97082313438E+02  0.10816911271E+03  0.47000000000E+01 0.  1.
<mgrwt>
<rscale>  0 0.27387320E+03</rscale>
<asrwt>0</asrwt>
<pdfrwt beam="1">  1       21 0.88359415E-01 0.27387320E+03</pdfrwt>
<pdfrwt beam="2">  1       21 0.50229579E-02 0.27387320E+03</pdfrwt>
<totfact> 0.28621428E+05</totfact>
</mgrwt>
</event>
<event>
 8    1  0.9569852E-006  0.2753182E+03  0.7546771E-02  0.1098274E+00
         21   -1    0    0  504  503  0.00000000000E+00  0.00000000000E+00  0.20135816177E+03  0.20135816177E+03  0.00000000000E+00 0. -1.
         21   -1    0    0  503  504 -0.00000000000E+00 -0.00000000000E+00 -0.94111051865E+02  0.94111051865E+02  0.00000000000E+00 0. -1.
         25    2    1    2    0    0 -0.35510219902E+02  0.28427331189E+02  0.15584211048E+02  0.13392831475E+03  0.12499934793E+03 0.  0.
         25    2    1    2    0    0  0.35510219902E+02 -0.28427331189E+02  0.91662898858E+02  0.16154089888E+03  0.12499714440E+03 0.  0.
          5    1    3    3  501    0  0.26669260827E+02  0.26324316939E+02 -0.36598529305E+02  0.52590507534E+02  0.47000000000E+01 0. -1.
         -5    1    3    3    0  501 -0.62179480729E+02  0.21030142498E+01  0.52182740353E+02  0.81337807220E+02  0.47000000000E+01 0. -1.
          5    1    4    4  502    0  0.40659431290E+02  0.36385833919E+02  0.77925191759E+01  0.55316648650E+02  0.47000000000E+01 0.  1.
         -5    1    4    4    0  502 -0.51492113884E+01 -0.64813165107E+02  0.83870379682E+02  0.10622425023E+03  0.47000000000E+01 0.  1.
<mgrwt>
<rscale>  0 0.27531820E+03</rscale>
<asrwt>0</asrwt>
<pdfrwt beam="1">  1       21 0.30978179E-01 0.27531820E+03</pdfrwt>
<pdfrwt beam="2">  1       21 0.14478623E-01 0.27531820E+03</pdfrwt>
<totfact> 0.41158142E+05</totfact>
</mgrwt>
</event>
<event>
 8    1  0.9569852E-006  0.3081058E+03  0.7546771E-02  0.1081257E+00
         21   -1    0    0  504  503  0.00000000000E+00  0.00000000000E+00  0.13580185016E+03  0.13580185016E+03  0.00000000000E+00 0. -1.
         21   -1    0    0  503  504 -0.00000000000E+00 -0.00000000000E+00 -0.17475681846E+03  0.17475681846E+03  0.00000000000E+00 0. -1.
         25    2    1    2    0    0  0.57387908536E+02 -0.34990754325E+02 -0.79878172606E+02  0.16285217077E+03  0.12499032816E+03 0.  0.
         25    2    1    2    0    0 -0.57387908536E+02  0.34990754325E+02  0.40923204310E+02  0.14770649785E+03  0.12499910368E+03 0.  0.
          5    1    3    3  501    0  0.28335768287E+02  0.10646885669E+02  0.28366599993E+02  0.41749562082E+02  0.47000000000E+01 0.  1.
         -5    1    3    3    0  501  0.29052140249E+02 -0.45637639994E+02 -0.10824477260E+03  0.12110260869E+03  0.47000000000E+01 0.  1.
          5    1    4    4  502    0  0.31491923150E+02  0.31004169565E+02  0.38149228941E+02  0.58570072758E+02  0.47000000000E+01 0.  1.
         -5    1    4    4    0  502 -0.88879831686E+02  0.39865847606E+01  0.27739753690E+01  0.89136425090E+02  0.47000000000E+01 0.  1.
<mgrwt>
<rscale>  0 0.30810582E+03</rscale>
<asrwt>0</asrwt>
<pdfrwt beam="1">  1       21 0.20892592E-01 0.30810582E+03</pdfrwt>
<pdfrwt beam="2">  1       21 0.26885664E-01 0.30810582E+03</pdfrwt>
<totfact> 0.27276872E+05</totfact>
</mgrwt>
</event>
<event>
 8    1  0.9569852E-006  0.3135368E+03  0.7546771E-02  0.1078663E+00
         21   -1    0    0  504  503  0.00000000000E+00  0.00000000000E+00  0.22833640524E+04  0.22833640524E+04  0.00000000000E+00 0.  1.
         21   -1    0    0  503  504 -0.00000000000E+00 -0.00000000000E+00 -0.10763214015E+02  0.10763214015E+02  0.00000000000E+00 0.  1.
         25    2    1    2    0    0  0.65038578975E+02 -0.22413315821E+02  0.16117448886E+04  0.16180440279E+04  0.12495005783E+03 0.  0.
         25    2    1    2    0    0 -0.65038578975E+02  0.22413315821E+02  0.66085594980E+03  0.67608323849E+03  0.12500234196E+03 0.  0.
          5    1    3    3  501    0 -0.30167827415E+02 -0.30239146555E+02  0.33942707351E+03  0.34213642313E+03  0.47000000000E+01 0.  1.
         -5    1    3    3    0  501  0.95206406391E+02  0.78258307333E+01  0.12723178151E+04  0.12759076048E+04  0.47000000000E+01 0.  1.
          5    1    4    4  502    0 -0.40896725418E+02  0.11464001891E+02  0.64150832441E+03  0.64293000068E+03  0.47000000000E+01 0.  1.
         -5    1    4    4    0  502 -0.24141853557E+02  0.10949313930E+02  0.19347625390E+02  0.33153237805E+02  0.47000000000E+01 0.  1.
<mgrwt>
<rscale>  0 0.31353683E+03</rscale>
<asrwt>0</asrwt>
<pdfrwt beam="1">  1       21 0.35128639E+00 0.31353683E+03</pdfrwt>
<pdfrwt beam="2">  1       21 0.16558809E-02 0.31353683E+03</pdfrwt>
<totfact> 0.25946609E+04</totfact>
</mgrwt>
</event>
<event>
 8    1  0.9569852E-006  0.2670985E+03  0.7546771E-02  0.1102952E+00
         21   -1    0    0  504  503  0.00000000000E+00  0.00000000000E+00  0.16625205346E+03  0.16625205346E+03  0.00000000000E+00 0. -1.
         21   -1    0    0  503  504 -0.00000000000E+00 -0.00000000000E+00 -0.10727928190E+03  0.10727928190E+03  0.00000000000E+00 0. -1.
         25    2    1    2    0    0  0.11317496413E+02  0.40813045422E+02  0.85628167887E+01  0.13225672853E+03  0.12499892003E+03 0.  0.
         25    2    1    2    0    0 -0.11317496413E+02 -0.40813045422E+02  0.50409954772E+02  0.14127460684E+03  0.12499424225E+03 0.  0.
          5    1    3    3  501    0  0.29479147707E+01 -0.44391843535E+02 -0.64776206045E+01  0.45203711602E+02  0.47000000000E+01 0. -1.
         -5    1    3    3    0  501  0.83695816427E+01  0.85204888957E+02  0.15040437393E+02  0.87053016927E+02  0.47000000000E+01 0. -1.
          5    1    4    4  502    0 -0.27249099345E+02  0.90482305102E+01  0.77044992529E+02  0.82355356621E+02  0.47000000000E+01 0.  1.
         -5    1    4    4    0  502  0.15931602931E+02 -0.49861275932E+02 -0.26635037756E+02  0.58919250214E+02  0.47000000000E+01 0.  1.
<mgrwt>
<rscale>  0 0.26709849E+03</rscale>
<asrwt>0</asrwt>
<pdfrwt beam="1">  1       21 0.25577239E-01 0.26709849E+03</pdfrwt>
<pdfrwt beam="2">  1       21 0.16504505E-01 0.26709849E+03</pdfrwt>
<totfact> 0.47068994E+05</totfact>
</mgrwt>
</event>
<event>
 8    1  0.9569852E-006  0.2802523E+03  0.7546771E-02  0.1095551E+00
         21   -1    0    0  504  503  0.00000000000E+00  0.00000000000E+00  0.24871837234E+03  0.24871837234E+03  0.00000000000E+00 0.  1.
         21   -1    0    0  503  504 -0.00000000000E+00 -0.00000000000E+00 -0.78946076823E+02  0.78946076823E+02  0.00000000000E+00 0.  1.
         25    2    1    2    0    0  0.44245979473E+02  0.42002754682E+02  0.65037819281E+02  0.15355006418E+03  0.12500306465E+03 0.  0.
         25    2    1    2    0    0 -0.44245979473E+02 -0.42002754682E+02  0.10473447624E+03  0.17411438499E+03  0.12499828177E+03 0.  0.
          5    1    3    3  501    0 -0.41643943257E+02  0.30848731332E+02  0.29460932356E+02  0.59798819137E+02  0.47000000000E+01 0. -1.
         -5    1    3    3    0  501  0.85889922730E+02  0.11154023350E+02  0.35576886924E+02  0.93751245041E+02  0.47000000000E+01 0. -1.
          5    1    4    4  502    0 -0.84978171444E+02 -0.26139257232E+02  0.44476127645E+02  0.99522692492E+02  0.47000000000E+01 0. -1.
         -5    1    4    4    0  502  0.40732191971E+02 -0.15863497450E+02  0.60258348595E+02  0.74591692497E+02  0.47000000000E+01 0. -1.
<mgrwt>
<rscale>  0 0.28025231E+03</rscale>
<asrwt>0</asrwt>
<pdfrwt beam="1">  1       21 0.38264365E-01 0.28025231E+03</pdfrwt>
<pdfrwt beam="2">  1       21 0.12145550E-01 0.28025231E+03</pdfrwt>
<totfact> 0.37108034E+05</totfact>
</mgrwt>
</event>
<event>
 8    1  0.9569852E-006  0.3743472E+03  0.7546771E-02  0.1053043E+00
         21   -1    0    0  504  503  0.00000000000E+00  0.00000000000E+00  0.22477361473E+03  0.22477361473E+03  0.00000000000E+00 0. -1.
         21   -1    0    0  503  504 -0.00000000000E+00 -0.00000000000E+00 -0.15586331864E+03  0.15586331864E+03  0.00000000000E+00 0. -1.
         25    2    1    2    0    0  0.69643165655E+02  0.10110280143E+03  0.10144906013E+03  0.20243610684E+03  0.12496606969E+03 0.  0.
         25    2    1    2    0    0 -0.69643165655E+02 -0.10110280143E+03 -0.32538764040E+02  0.17820082653E+03  0.12499926572E+03 0.  0.
          5    1    3    3  501    0  0.59439568209E+02  0.32496123569E+01 -0.18007358656E+01  0.59740730654E+02  0.47000000000E+01 0.  1.
         -5    1    3    3    0  501  0.10203597446E+02  0.97853189074E+02  0.10324979600E+03  0.14269537619E+03  0.47000000000E+01 0.  1.
          5    1    4    4  502    0 -0.37790777404E+02 -0.12361598589E+03 -0.35880980899E+01  0.12939868343E+03  0.47000000000E+01 0.  1.
         -5    1    4    4    0  502 -0.31852388251E+02  0.22513184463E+02 -0.28950665950E+02  0.48802143098E+02  0.47000000000E+01 0.  1.
<mgrwt>
<rscale>  0 0.37434723E+03</rscale>
<asrwt>0</asrwt>
<pdfrwt beam="1">  1       21 0.34580556E-01 0.37434723E+03</pdfrwt>
<pdfrwt beam="2">  1       21 0.23978972E-01 0.37434723E+03</pdfrwt>
<totfact> 0.12566134E+05</totfact>
</mgrwt>
</event>
<event>
 8    1  0.9569852E-006  0.3475561E+03  0.7546771E-02  0.1063623E+00
         21   -1    0    0  504  503  0.00000000000E+00  0.00000000000E+00  0.37302771778E+03  0.37302771778E+03  0.00000000000E+00 0. -1.
         21   -1    0    0  503  504 -0.00000000000E+00 -0.00000000000E+00 -0.80955951870E+02  0.80955951870E+02  0.00000000000E+00 0. -1.
         25    2    1    2    0    0 -0.12533918974E+02  0.51240210652E+02  0.41974905481E+01  0.13573914668E+03  0.12499935481E+03 0.  0.
         25    2    1    2    0    0  0.12533918974E+02 -0.51240210652E+02  0.28787427537E+03  0.31824452297E+03  0.12500127868E+03 0.  0.
          5    1    3    3  501    0 -0.67273365114E+01  0.91531589148E+02 -0.98385289723E+01  0.92423890422E+02  0.47000000000E+01 0. -1.
         -5    1    3    3    0  501 -0.58065824622E+01 -0.40291378496E+02  0.14036019520E+02  0.43315256261E+02  0.47000000000E+01 0. -1.
          5    1    4    4  502    0  0.40039827260E+02 -0.81420571154E+02  0.16085473911E+03  0.18473990979E+03  0.47000000000E+01 0. -1.
         -5    1    4    4    0  502 -0.27505908286E+02  0.30180360502E+02  0.12701953626E+03  0.13350461318E+03  0.47000000000E+01 0. -1.
<mgrwt>
<rscale>  0 0.34755612E+03</rscale>
<asrwt>0</asrwt>
<pdfrwt beam="1">  1       21 0.57388878E-01 0.34755612E+03</pdfrwt>
<pdfrwt beam="2">  1       21 0.12454762E-01 0.34755612E+03</pdfrwt>
<totfact> 0.14983340E+05</totfact>
</mgrwt>
</event>
<event>
 8    1  0.9569852E-006  0.4425014E+03  0.7546771E-02  0.1029982E+00
         21   -1    0    0  504  503  0.00000000000E+00  0.00000000000E+00  0.42900961836E+03  0.42900961836E+03  0.00000000000E+00 0.  1.
         21   -1    0    0  503  504 -0.00000000000E+00 -0.00000000000E+00 -0.11410435310E+03  0.11410435310E+03  0.00000000000E+00 0.  1.
         25    2    1    2    0    0 -0.15867350008E+03  0.62416858955E+02  0.77394994015E+02  0.22513856787E+03  0.12499698290E+03 0.  0.
         25    2    1    2    0    0  0.15867350008E+03 -0.62416858955E+02  0.23751027124E+03  0.31797540359E+03  0.12499633767E+03 0.  0.
          5    1    3    3  501    0 -0.70696325820E+02  0.90792686127E+02  0.63586849559E+02  0.13155477861E+03  0.47000000000E+01 0.  1.
         -5    1    3    3    0  501 -0.87977174258E+02 -0.28375827173E+02  0.13808144455E+02  0.93583789256E+02  0.47000000000E+01 0.  1.
          5    1    4    4  502    0  0.95002663610E+02 -0.98968137176E+02  0.14318447500E+03  0.19835342737E+03  0.47000000000E+01 0.  1.
         -5    1    4    4    0  502  0.63670836469E+02  0.36551278222E+02  0.94325796247E+02  0.11962197622E+03  0.47000000000E+01 0.  1.
<mgrwt>
<rscale>  0 0.44250137E+03</rscale>
<asrwt>0</asrwt>
<pdfrwt beam="1">  1       21 0.66001479E-01 0.44250137E+03</pdfrwt>
<pdfrwt beam="2">  1       21 0.17554516E-01 0.44250137E+03</pdfrwt>
<totfact> 0.57269496E+04</totfact>
</mgrwt>
</event>
<event>
 8    1  0.9569852E-006  0.5782735E+03  0.7546771E-02  0.9951536E-01
         21   -1    0    0  504  503  0.00000000000E+00  0.00000000000E+00  0.81525781913E+03  0.81525781913E+03  0.00000000000E+00 0.  1.
         21   -1    0    0  503  504 -0.00000000000E+00 -0.00000000000E+00 -0.10254432264E+03  0.10254432264E+03  0.00000000000E+00 0.  1.
         25    2    1    2    0    0  0.52910583155E+02  0.16405283059E+03  0.66681157943E+03  0.69998296030E+03  0.12500240484E+03 0.  0.
         25    2    1    2    0    0 -0.52910583155E+02 -0.16405283059E+03  0.45901917065E+02  0.21781918147E+03  0.12500139516E+03 0.  0.
          5    1    3    3  501    0  0.91074356119E+02  0.13421719305E+03  0.46923186768E+03  0.49649715900E+03  0.47000000000E+01 0. -1.
         -5    1    3    3    0  501 -0.38163772964E+02  0.29835637539E+02  0.19757971175E+03  0.20348580130E+03  0.47000000000E+01 0. -1.
          5    1    4    4  502    0 -0.18876646113E+02 -0.15557998799E+03 -0.37638471528E+01  0.15683659324E+03  0.47000000000E+01 0.  1.
         -5    1    4    4    0  502 -0.34033937042E+02 -0.84728425950E+01  0.49665764217E+02  0.60982588232E+02  0.47000000000E+01 0.  1.
<mgrwt>
<rscale>  0 0.57827350E+03</rscale>
<asrwt>0</asrwt>
<pdfrwt beam="1">  1       21 0.12542428E+00 0.57827350E+03</pdfrwt>
<pdfrwt beam="2">  1       21 0.15776050E-01 0.57827350E+03</pdfrwt>
<totfact> 0.14633953E+04</totfact>
</mgrwt>
</event>
<event>
 8    1  0.9569852E-006  0.2810768E+03  0.7546771E-02  0.1095102E+00
         21   -1    0    0  504  503  0.00000000000E+00  0.00000000000E+00  0.12269943980E+04  0.12269943980E+04  0.00000000000E+00 0.  1.
         21   -1    0    0  503  504 -0.00000000000E+00 -0.00000000000E+00 -0.16097090931E+02  0.16097090931E+02  0.00000000000E+00 0.  1.
         25    2    1    2    0    0 -0.45868301186E+02  0.39435944137E+02  0.51009110395E+03  0.52865924539E+03  0.12501427385E+03 0.  0.
         25    2    1    2    0    0  0.45868301186E+02 -0.39435944137E+02  0.70080620315E+03  0.71443224357E+03  0.12500000614E+03 0.  0.
          5    1    3    3  501    0 -0.75127075858E+02  0.40149107025E+02  0.20377993022E+03  0.22091712990E+03  0.47000000000E+01 0. -1.
         -5    1    3    3    0  501  0.29258774673E+02 -0.71316288783E+00  0.30631117372E+03  0.30774211549E+03  0.47000000000E+01 0. -1.
          5    1    4    4  502    0 -0.11955876507E+02  0.21156390771E+02  0.43498249339E+03  0.43568612029E+03  0.47000000000E+01 0.  1.
         -5    1    4    4    0  502  0.57824177693E+02 -0.60592334908E+02  0.26582370975E+03  0.27874612328E+03  0.47000000000E+01 0.  1.
<mgrwt>
<rscale>  0 0.28107679E+03</rscale>
<asrwt>0</asrwt>
<pdfrwt beam="1">  1       21 0.18876830E+00 0.28107679E+03</pdfrwt>
<pdfrwt beam="2">  1       21 0.24764765E-02 0.28107679E+03</pdfrwt>
<totfact> 0.13249553E+05</totfact>
</mgrwt>
</event>
<event>
 8    1  0.9569852E-006  0.2738002E+03  0.7546771E-02  0.1099124E+00
         21   -1    0    0  504  503  0.00000000000E+00  0.00000000000E+00  0.68353045600E+02  0.68353045600E+02  0.00000000000E+00 0.  1.
         21   -1    0    0  503  504 -0.00000000000E+00 -0.00000000000E+00 -0.27418867471E+03  0.27418867471E+03  0.00000000000E+00 0.  1.
         25    2    1    2    0    0 -0.49389969401E+02  0.48096504576E+01 -0.70886473683E+02  0.15202351023E+03  0.12499501469E+03 0.  0.
         25    2    1    2    0    0  0.49389969401E+02 -0.48096504576E+01 -0.13494915542E+03  0.19051821008E+03  0.12499364786E+03 0.  0.
          5    1    3    3  501    0 -0.49981139920E+02  0.22682208583E+02 -0.10194558216E+03  0.11587747260E+03  0.47000000000E+01 0. -1.
         -5    1    3    3    0  501  0.59117051807E+00 -0.17872558126E+02  0.31059108481E+02  0.36146037627E+02  0.47000000000E+01 0. -1.
          5    1    4    4  502    0  0.45238939103E+01  0.52762454551E+02 -0.90411472669E+02  0.10488406274E+03  0.47000000000E+01 0.  1.
         -5    1    4    4    0  502  0.44866075491E+02 -0.57572105009E+02 -0.44537682754E+02  0.85634147337E+02  0.47000000000E+01 0.  1.
<mgrwt>
<rscale>  0 0.27380015E+03</rscale>
<asrwt>0</asrwt>
<pdfrwt beam="1">  1       21 0.10515853E-01 0.27380015E+03</pdfrwt>
<pdfrwt beam="2">  1       21 0.42182874E-01 0.27380015E+03</pdfrwt>
<totfact> 0.39449288E+05</totfact>
</mgrwt>
</event>
<event>
 8    1  0.9569852E-006  0.3131478E+03  0.7546771E-02  0.1078847E+00
         21   -1    0    0  504  503  0.00000000000E+00  0.00000000000E+00  0.65590218854E+02  0.65590218854E+02  0.00000000000E+00 0.  1.
         21   -1    0    0  503  504 -0.00000000000E+00 -0.00000000000E+00 -0.37376578375E+03  0.37376578375E+03  0.00000000000E+00 0.  1.
         25    2    1    2    0    0  0.43729589472E+01  0.86557836508E+01 -0.28567967307E+03  0.31197628659E+03  0.12498912922E+03 0.  0.
         25    2    1    2    0    0 -0.43729589472E+01 -0.86557836508E+01 -0.22495891821E+02  0.12737971602E+03  0.12500192616E+03 0.  0.
          5    1    3    3  501    0 -0.18470256174E+02  0.59769627648E+02 -0.19923254073E+03  0.20887616915E+03  0.47000000000E+01 0.  1.
         -5    1    3    3    0  501  0.22843215122E+02 -0.51113843997E+02 -0.86447132344E+02  0.10310011744E+03  0.47000000000E+01 0.  1.
          5    1    4    4  502    0  0.34289487241E+02  0.16396962913E+02  0.36143263719E+02  0.52659802888E+02  0.47000000000E+01 0. -1.
         -5    1    4    4    0  502 -0.38662446188E+02 -0.25052746564E+02 -0.58639155540E+02  0.74719913129E+02  0.47000000000E+01 0. -1.
<mgrwt>
<rscale>  0 0.31314776E+03</rscale>
<asrwt>0</asrwt>
<pdfrwt beam="1">  1       21 0.10090803E-01 0.31314776E+03</pdfrwt>
<pdfrwt beam="2">  1       21 0.57502427E-01 0.31314776E+03</pdfrwt>
<totfact> 0.21962235E+05</totfact>
</mgrwt>
</event>
<event>
 8    1  0.9569852E-006  0.4192461E+03  0.7546771E-02  0.1037312E+00
         21   -1    0    0  504  503  0.00000000000E+00  0.00000000000E+00  0.11591965145E+04  0.11591965145E+04  0.00000000000E+00 0. -1.
         21   -1    0    0  503  504 -0.00000000000E+00 -0.00000000000E+00 -0.37907132107E+02  0.37907132107E+02  0.00000000000E+00 0. -1.
         25    2    1    2    0    0 -0.13291765293E+03 -0.10266549944E+03  0.59071830195E+03  0.62672094128E+03  0.12499487488E+03 0.  0.
         25    2    1    2    0    0  0.13291765293E+03  0.10266549944E+03  0.53057108042E+03  0.57038270531E+03  0.12499380744E+03 0.  0.
          5    1    3    3  501    0 -0.15724802256E+03 -0.88438701191E+02  0.49756629455E+03  0.52928503846E+03  0.47000000000E+01 0.  1.
         -5    1    3    3    0  501  0.24330369637E+02 -0.14226798246E+02  0.93152007405E+02  0.97435902821E+02  0.47000000000E+01 0.  1.
          5    1    4    4  502    0  0.65023472962E+02  0.11898527466E+03  0.39771777879E+03  0.42022264241E+03  0.47000000000E+01 0. -1.
         -5    1    4    4    0  502  0.67894179965E+02 -0.16319775226E+02  0.13285330163E+03  0.15016006290E+03  0.47000000000E+01 0. -1.
<mgrwt>
<rscale>  0 0.41924606E+03</rscale>
<asrwt>0</asrwt>
<pdfrwt beam="1">  1       21 0.17833790E+00 0.41924606E+03</pdfrwt>
<pdfrwt beam="2">  1       21 0.58318674E-02 0.41924606E+03</pdfrwt>
<totfact> 0.34960453E+04</totfact>
</mgrwt>
</event>
<event>
 8    1  0.9569852E-006  0.4691715E+03  0.7546771E-02  0.1022154E+00
         21   -1    0    0  504  503  0.00000000000E+00  0.00000000000E+00  0.99590116988E+02  0.99590116988E+02  0.00000000000E+00 0.  1.
         21   -1    0    0  503  504 -0.00000000000E+00 -0.00000000000E+00 -0.55256959432E+03  0.55256959432E+03  0.00000000000E+00 0.  1.
         25    2    1    2    0    0 -0.13797310843E+03 -0.37121685486E+02 -0.41804624632E+03  0.45913290419E+03  0.12500304582E+03 0.  0.
         25    2    1    2    0    0  0.13797310843E+03  0.37121685486E+02 -0.34933231013E+02  0.19302680712E+03  0.12499767780E+03 0.  0.
          5    1    3    3  501    0 -0.51429917382E+02  0.33155354440E+02 -0.24994294572E+03  0.25736720857E+03  0.47000000000E+01 0. -1.
         -5    1    3    3    0  501 -0.86543191046E+02 -0.70277039926E+02 -0.16810330060E+03  0.20176569562E+03  0.47000000000E+01 0. -1.
          5    1    4    4  502    0  0.50987220961E+02  0.67231535525E+02 -0.52090634298E+02  0.99273864899E+02  0.47000000000E+01 0. -1.
         -5    1    4    4    0  502  0.86985887467E+02 -0.30109850039E+02  0.17157403286E+02  0.93752942222E+02  0.47000000000E+01 0. -1.
<mgrwt>
<rscale>  0 0.46917148E+03</rscale>
<asrwt>0</asrwt>
<pdfrwt beam="1">  1       21 0.15321556E-01 0.46917148E+03</pdfrwt>
<pdfrwt beam="2">  1       21 0.85010707E-01 0.46917148E+03</pdfrwt>
<totfact> 0.41204800E+04</totfact>
</mgrwt>
</event>
<event>
 8    1  0.9569852E-006  0.2584309E+03  0.7546771E-02  0.1108090E+00
         21   -1    0    0  504  503  0.00000000000E+00  0.00000000000E+00  0.27470291177E+02  0.27470291177E+02  0.00000000000E+00 0.  1.
         21   -1    0    0  503  504 -0.00000000000E+00 -0.00000000000E+00 -0.60780690514E+03  0.60780690514E+03  0.00000000000E+00 0.  1.
         25    2    1    2    0    0 -0.23116770823E+02 -0.22655428402E+01 -0.34678650023E+03  0.36935949496E+03  0.12500416793E+03 0.  0.
         25    2    1    2    0    0  0.23116770823E+02  0.22655428402E+01 -0.23355011373E+03  0.26591770136E+03  0.12500820170E+03 0.  0.
          5    1    3    3  501    0 -0.47527343455E+02 -0.52468498790E+02 -0.20330181229E+03  0.21532651630E+03  0.47000000000E+01 0.  1.
         -5    1    3    3    0  501  0.24410572632E+02  0.50202955950E+02 -0.14348468794E+03  0.15403297866E+03  0.47000000000E+01 0.  1.
          5    1    4    4  502    0  0.65724805894E+01  0.34718586832E+02 -0.68964660836E+01  0.36307423719E+02  0.47000000000E+01 0.  1.
         -5    1    4    4    0  502  0.16544290234E+02 -0.32453043992E+02 -0.22665364765E+03  0.22961027764E+03  0.47000000000E+01 0.  1.
<mgrwt>
<rscale>  0 0.25843090E+03</rscale>
<asrwt>0</asrwt>
<pdfrwt beam="1">  1       21 0.42261987E-02 0.25843090E+03</pdfrwt>
<pdfrwt beam="2">  1       21 0.93508754E-01 0.25843090E+03</pdfrwt>
<totfact> 0.33747462E+05</totfact>
</mgrwt>
</event>
<event>
 8    1  0.9569852E-006  0.2863722E+03  0.7546771E-02  0.1092259E+00
         21   -1    0    0  504  503  0.00000000000E+00  0.00000000000E+00  0.50116573223E+02  0.50116573223E+02  0.00000000000E+00 0. -1.
         21   -1    0    0  503  504 -0.00000000000E+00 -0.00000000000E+00 -0.40909129994E+03  0.40909129994E+03  0.00000000000E+00 0. -1.
         25    2    1    2    0    0  0.37291142538E+02 -0.31841350241E+02 -0.99674421751E+02  0.16720602529E+03  0.12497345176E+03 0.  0.
         25    2    1    2    0    0 -0.37291142538E+02  0.31841350241E+02 -0.25930030497E+03  0.29200184787E+03  0.12499572036E+03 0.  0.
          5    1    3    3  501    0 -0.36813446986E+02 -0.16570784047E+02  0.16318593846E+01  0.40676451762E+02  0.47000000000E+01 0. -1.
         -5    1    3    3    0  501  0.74104589523E+02 -0.15270566194E+02 -0.10130628114E+03  0.12652957353E+03  0.47000000000E+01 0. -1.
          5    1    4    4  502    0 -0.64220270614E+02 -0.12424593469E+02 -0.21119951388E+03  0.22114687052E+03  0.47000000000E+01 0.  1.
         -5    1    4    4    0  502  0.26929128076E+02  0.44265943710E+02 -0.48100791090E+02  0.70854977348E+02  0.47000000000E+01 0.  1.
<mgrwt>
<rscale>  0 0.28637216E+03</rscale>
<asrwt>0</asrwt>
<pdfrwt beam="1">  1       21 0.77102423E-02 0.28637216E+03</pdfrwt>
<pdfrwt beam="2">  1       21 0.62937121E-01 0.28637216E+03</pdfrwt>
<totfact> 0.29220459E+05</totfact>
</mgrwt>
</event>
<event>
 8    1  0.9569852E-006  0.2735781E+03  0.7546771E-02  0.1099249E+00
         21   -1    0    0  504  503  0.00000000000E+00  0.00000000000E+00  0.13117313125E+03  0.13117313125E+03  0.00000000000E+00 0.  1.
         21   -1    0    0  503  504 -0.00000000000E+00 -0.00000000000E+00 -0.14264535113E+03  0.14264535113E+03  0.00000000000E+00 0.  1.
         25    2    1    2    0    0 -0.39401034839E+02 -0.22599397166E+01 -0.44855376931E+02  0.13854202006E+03  0.12499735041E+03 0.  0.
         25    2    1    2    0    0  0.39401034839E+02  0.22599397166E+01  0.33383157053E+02  0.13527646231E+03  0.12501094835E+03 0.  0.
          5    1    3    3  501    0  0.13166234231E+02  0.70510419368E+01 -0.75296968011E+02  0.76907673921E+02  0.47000000000E+01 0. -1.
         -5    1    3    3    0  501 -0.52567269070E+02 -0.93109816534E+01  0.30441591080E+02  0.61634346142E+02  0.47000000000E+01 0. -1.
          5    1    4    4  502    0  0.50008574214E+01  0.58008354803E+02  0.37594985041E+02  0.69465464096E+02  0.47000000000E+01 0.  1.
         -5    1    4    4    0  502  0.34400177418E+02 -0.55748415087E+02 -0.42118279878E+01  0.65810998215E+02  0.47000000000E+01 0.  1.
<mgrwt>
<rscale>  0 0.27357805E+03</rscale>
<asrwt>0</asrwt>
<pdfrwt beam="1">  1       21 0.20180482E-01 0.27357805E+03</pdfrwt>
<pdfrwt beam="2">  1       21 0.21945439E-01 0.27357805E+03</pdfrwt>
<totfact> 0.43306224E+05</totfact>
</mgrwt>
</event>
<event>
 8    1  0.9569852E-006  0.2784320E+03  0.7546771E-02  0.1096548E+00
         21   -1    0    0  504  503  0.00000000000E+00  0.00000000000E+00  0.11010232121E+03  0.11010232121E+03  0.00000000000E+00 0. -1.
         21   -1    0    0  503  504 -0.00000000000E+00 -0.00000000000E+00 -0.17602797223E+03  0.17602797223E+03  0.00000000000E+00 0. -1.
         25    2    1    2    0    0  0.34011661151E+02 -0.48897537415E+01  0.19190240744E+02  0.13104544968E+03  0.12499576696E+03 0.  0.
         25    2    1    2    0    0 -0.34011661151E+02  0.48897537415E+01 -0.85115891760E+02  0.15508484376E+03  0.12500356374E+03 0.  0.
          5    1    3    3  501    0  0.30601110258E+02  0.48972775180E+02 -0.23044367657E+02  0.62352975379E+02  0.47000000000E+01 0.  1.
         -5    1    3    3    0  501  0.34105508937E+01 -0.53862528922E+02  0.42234608401E+02  0.68692474304E+02  0.47000000000E+01 0.  1.
          5    1    4    4  502    0 -0.29998998009E+02 -0.88012287805E+01  0.27238722964E+02  0.41730558807E+02  0.47000000000E+01 0.  1.
         -5    1    4    4    0  502 -0.40126631417E+01  0.13690982522E+02 -0.11235461472E+03  0.11335428496E+03  0.47000000000E+01 0.  1.
<mgrwt>
<rscale>  0 0.27843195E+03</rscale>
<asrwt>0</asrwt>
<pdfrwt beam="1">  1       21 0.16938819E-01 0.27843195E+03</pdfrwt>
<pdfrwt beam="2">  1       21 0.27081226E-01 0.27843195E+03</pdfrwt>
<totfact> 0.40082307E+05</totfact>
</mgrwt>
</event>
<event>
 8    1  0.9569852E-006  0.4188158E+03  0.7546771E-02  0.1037452E+00
         21   -1    0    0  504  503  0.00000000000E+00  0.00000000000E+00  0.34688023734E+02  0.34688023734E+02  0.00000000000E+00 0.  1.
         21   -1    0    0  503  504 -0.00000000000E+00 -0.00000000000E+00 -0.12641733298E+04  0.12641733298E+04  0.00000000000E+00 0.  1.
         25    2    1    2    0    0 -0.11387160432E+03 -0.12169380770E+03 -0.54891856290E+03  0.58712263193E+03  0.12500108450E+03 0.  0.
         25    2    1    2    0    0  0.11387160432E+03  0.12169380770E+03 -0.68056674321E+03  0.71173872165E+03  0.12499916331E+03 0.  0.
          5    1    3    3  501    0 -0.33075005013E+02 -0.10184957007E+03 -0.18521782559E+03  0.21399771913E+03  0.47000000000E+01 0. -1.
         -5    1    3    3    0  501 -0.80796599302E+02 -0.19844237628E+02 -0.36370073731E+03  0.37312491279E+03  0.47000000000E+01 0. -1.
          5    1    4    4  502    0  0.34331643325E+02  0.71896055695E+02 -0.12516732739E+03  0.14844748029E+03  0.47000000000E+01 0. -1.
         -5    1    4    4    0  502  0.79539960990E+02  0.49797752002E+02 -0.55539941583E+03  0.56329124137E+03  0.47000000000E+01 0. -1.
<mgrwt>
<rscale>  0 0.41881583E+03</rscale>
<asrwt>0</asrwt>
<pdfrwt beam="1">  1       21 0.53366186E-02 0.41881583E+03</pdfrwt>
<pdfrwt beam="2">  1       21 0.19448822E+00 0.41881583E+03</pdfrwt>
<totfact> 0.31553420E+04</totfact>
</mgrwt>
</event>
<event>
 8    1  0.9569852E-006  0.2821300E+03  0.7546771E-02  0.1094531E+00
         21   -1    0    0  504  503  0.00000000000E+00  0.00000000000E+00  0.15606141220E+03  0.15606141220E+03  0.00000000000E+00 0. -1.
         21   -1    0    0  503  504 -0.00000000000E+00 -0.00000000000E+00 -0.12750961095E+03  0.12750961095E+03  0.00000000000E+00 0. -1.
         25    2    1    2    0    0  0.12604576463E+02 -0.33210780028E+02 -0.40901676592E+02  0.13623238354E+03  0.12499793566E+03 0.  0.
         25    2    1    2    0    0 -0.12604576463E+02  0.33210780028E+02  0.69453477836E+02  0.14733863961E+03  0.12499223128E+03 0.  0.
          5    1    3    3  501    0 -0.35117792879E+02 -0.26050401872E+02  0.27887161950E+02  0.52073665283E+02  0.47000000000E+01 0.  1.
         -5    1    3    3    0  501  0.47722369342E+02 -0.71603781568E+01 -0.68788838542E+02  0.84158718259E+02  0.47000000000E+01 0.  1.
          5    1    4    4  502    0 -0.20593526164E+02  0.66848089006E+02  0.55382719136E+00  0.70108181036E+02  0.47000000000E+01 0. -1.
         -5    1    4    4    0  502  0.79889497014E+01 -0.33637308977E+02  0.68899650644E+02  0.77230458574E+02  0.47000000000E+01 0. -1.
<mgrwt>
<rscale>  0 0.28212997E+03</rscale>
<asrwt>0</asrwt>
<pdfrwt beam="1">  1       21 0.24009448E-01 0.28212997E+03</pdfrwt>
<pdfrwt beam="2">  1       21 0.19616863E-01 0.28212997E+03</pdfrwt>
<totfact> 0.38417156E+05</totfact>
</mgrwt>
</event>
<event>
 8    1  0.9569852E-006  0.3337832E+03  0.7546771E-02  0.1069475E+00
         21   -1    0    0  504  503  0.00000000000E+00  0.00000000000E+00  0.29169049965E+03  0.29169049965E+03  0.00000000000E+00 0.  1.
         21   -1    0    0  503  504 -0.00000000000E+00 -0.00000000000E+00 -0.95487528372E+02  0.95487528372E+02  0.00000000000E+00 0.  1.
         25    2    1    2    0    0  0.45878080559E+02 -0.73806572775E+02  0.18789052975E+02  0.15339524475E+03  0.12499945656E+03 0.  0.
         25    2    1    2    0    0 -0.45878080559E+02  0.73806572775E+02  0.17741391831E+03  0.23378278328E+03  0.12500593141E+03 0.  0.
          5    1    3    3  501    0  0.16630337324E+02 -0.10507572682E+03  0.21365918078E+00  0.10648761495E+03  0.47000000000E+01 0. -1.
         -5    1    3    3    0  501  0.29247743235E+02  0.31269154047E+02  0.18575393794E+02  0.46907629803E+02  0.47000000000E+01 0. -1.
          5    1    4    4  502    0 -0.69589803469E+02  0.84504902518E+02  0.87973778957E+02  0.14051795288E+03  0.47000000000E+01 0.  1.
         -5    1    4    4    0  502  0.23711722910E+02 -0.10698329743E+02  0.89440139349E+02  0.93264830399E+02  0.47000000000E+01 0.  1.
<mgrwt>
<rscale>  0 0.33378319E+03</rscale>
<asrwt>0</asrwt>
<pdfrwt beam="1">  1       21 0.44875461E-01 0.33378319E+03</pdfrwt>
<pdfrwt beam="2">  1       21 0.14690389E-01 0.33378319E+03</pdfrwt>
<totfact> 0.18711494E+05</totfact>
</mgrwt>
</event>
<event>
 8    1  0.9569852E-006  0.2614377E+03  0.7546771E-02  0.1106283E+00
         21   -1    0    0  504  503  0.00000000000E+00  0.00000000000E+00  0.22582980063E+03  0.22582980063E+03  0.00000000000E+00 0. -1.
         21   -1    0    0  503  504 -0.00000000000E+00 -0.00000000000E+00 -0.75665020849E+02  0.75665020849E+02  0.00000000000E+00 0. -1.
         25    2    1    2    0    0  0.56668823004E+01  0.29042969457E+02  0.47152227413E+02  0.13683555367E+03  0.12500011427E+03 0.  0.
         25    2    1    2    0    0 -0.56668823004E+01 -0.29042969457E+02  0.10301255236E+03  0.16465926780E+03  0.12500192358E+03 0.  0.
          5    1    3    3  501    0  0.90465770966E+01  0.39607516580E+01 -0.42332196054E+02  0.43722224710E+02  0.47000000000E+01 0. -1.
         -5    1    3    3    0  501 -0.33796947962E+01  0.25082217799E+02  0.89484423467E+02  0.93113328959E+02  0.47000000000E+01 0. -1.
          5    1    4    4  502    0  0.16640944251E+02 -0.39180396162E+02 -0.13968591278E+02  0.45047042203E+02  0.47000000000E+01 0. -1.
         -5    1    4    4    0  502 -0.22307826551E+02  0.10137426705E+02  0.11698114364E+03  0.11961222560E+03  0.47000000000E+01 0. -1.
<mgrwt>
<rscale>  0 0.26143769E+03</rscale>
<asrwt>0</asrwt>
<pdfrwt beam="1">  1       21 0.34743046E-01 0.26143769E+03</pdfrwt>
<pdfrwt beam="2">  1       21 0.11640773E-01 0.26143769E+03</pdfrwt>
<totfact> 0.48808912E+05</totfact>
</mgrwt>
</event>
<event>
 8    1  0.9569852E-006  0.3669839E+03  0.7546771E-02  0.1055852E+00
         21   -1    0    0  504  503  0.00000000000E+00  0.00000000000E+00  0.70937699243E+02  0.70937699243E+02  0.00000000000E+00 0.  1.
         21   -1    0    0  503  504 -0.00000000000E+00 -0.00000000000E+00 -0.47463189868E+03  0.47463189868E+03  0.00000000000E+00 0.  1.
         25    2    1    2    0    0  0.60842850843E+02  0.45171941857E+02 -0.36676595711E+03  0.39482173363E+03  0.12499830887E+03 0.  0.
         25    2    1    2    0    0 -0.60842850843E+02 -0.45171941857E+02 -0.36928242328E+02  0.15074786429E+03  0.12497546430E+03 0.  0.
          5    1    3    3  501    0 -0.24642046001E+01 -0.22814946928E+02 -0.21878154972E+03  0.22003193087E+03  0.47000000000E+01 0. -1.
         -5    1    3    3    0  501  0.63307055443E+02  0.67986888786E+02 -0.14798440739E+03  0.17478980275E+03  0.47000000000E+01 0. -1.
          5    1    4    4  502    0 -0.49396311521E+01 -0.27411796629E+02  0.43028406067E+02  0.51471742529E+02  0.47000000000E+01 0. -1.
         -5    1    4    4    0  502 -0.55903219691E+02 -0.17760145228E+02 -0.79956648394E+02  0.99276121765E+02  0.47000000000E+01 0. -1.
<mgrwt>
<rscale>  0 0.36698390E+03</rscale>
<asrwt>0</asrwt>
<pdfrwt beam="1">  1       21 0.10913493E-01 0.36698390E+03</pdfrwt>
<pdfrwt beam="2">  1       21 0.73020290E-01 0.36698390E+03</pdfrwt>
<totfact> 0.11128786E+05</totfact>
</mgrwt>
</event>
<event>
 8    1  0.9569852E-006  0.2864759E+03  0.7546771E-02  0.1092204E+00
         21   -1    0    0  504  503  0.00000000000E+00  0.00000000000E+00  0.12992519560E+03  0.12992519560E+03  0.00000000000E+00 0. -1.
         21   -1    0    0  503  504 -0.00000000000E+00 -0.00000000000E+00 -0.15791474616E+03  0.15791474616E+03  0.00000000000E+00 0. -1.
         25    2    1    2    0    0 -0.76516947219E+01  0.86663891255E+01 -0.83250376923E+02  0.15062801876E+03  0.12499808016E+03 0.  0.
         25    2    1    2    0    0  0.76516947219E+01 -0.86663891255E+01  0.55260826371E+02  0.13721192300E+03  0.12505877878E+03 0.  0.
          5    1    3    3  501    0 -0.44903532267E+02  0.51538630645E+02 -0.46926638068E+02  0.83046715885E+02  0.47000000000E+01 0. -1.
         -5    1    3    3    0  501  0.37251837545E+02 -0.42872241519E+02 -0.36323738855E+02  0.67581302871E+02  0.47000000000E+01 0. -1.
          5    1    4    4  502    0 -0.11171596341E+02 -0.59167181883E+02  0.73284479267E+00  0.60400223826E+02  0.47000000000E+01 0. -1.
         -5    1    4    4    0  502  0.18823291063E+02  0.50500792757E+02  0.54527981578E+02  0.76811699177E+02  0.47000000000E+01 0. -1.
<mgrwt>
<rscale>  0 0.28647586E+03</rscale>
<asrwt>0</asrwt>
<pdfrwt beam="1">  1       21 0.19988492E-01 0.28647586E+03</pdfrwt>
<pdfrwt beam="2">  1       21 0.24294576E-01 0.28647586E+03</pdfrwt>
<totfact> 0.36222830E+05</totfact>
</mgrwt>
</event>
<event>
 8    1  0.9569852E-006  0.3648099E+03  0.7546771E-02  0.1056695E+00
         21   -1    0    0  504  503  0.00000000000E+00  0.00000000000E+00  0.12899431665E+03  0.12899431665E+03  0.00000000000E+00 0.  1.
         21   -1    0    0  503  504 -0.00000000000E+00 -0.00000000000E+00 -0.25793048771E+03  0.25793048771E+03  0.00000000000E+00 0.  1.
         25    2    1    2    0    0 -0.10535640133E+03 -0.73928102899E+02 -0.29589268710E+02  0.18184007469E+03  0.12499980897E+03 0.  0.
         25    2    1    2    0    0  0.10535640133E+03  0.73928102899E+02 -0.99346902347E+02  0.20508472967E+03  0.12499841455E+03 0.  0.
          5    1    3    3  501    0  0.62773270532E+01 -0.33183415000E+02  0.32995497009E+02  0.47448252748E+02  0.47000000000E+01 0. -1.
         -5    1    3    3    0  501 -0.11163372839E+03 -0.40744687899E+02 -0.62584765719E+02  0.13439182194E+03  0.47000000000E+01 0. -1.
          5    1    4    4  502    0 -0.15211517998E+02 -0.18633552867E+02 -0.27676586550E+02  0.36968676137E+02  0.47000000000E+01 0. -1.
         -5    1    4    4    0  502  0.12056791933E+03  0.92561655765E+02 -0.71670315798E+02  0.16811605354E+03  0.47000000000E+01 0. -1.
<mgrwt>
<rscale>  0 0.36480991E+03</rscale>
<asrwt>0</asrwt>
<pdfrwt beam="1">  1       21 0.19845280E-01 0.36480991E+03</pdfrwt>
<pdfrwt beam="2">  1       21 0.39681613E-01 0.36480991E+03</pdfrwt>
<totfact> 0.13672624E+05</totfact>
</mgrwt>
</event>
<event>
 8    1  0.9569852E-006  0.2725636E+03  0.7546771E-02  0.1099821E+00
         21   -1    0    0  504  503  0.00000000000E+00  0.00000000000E+00  0.58440933189E+02  0.58440933189E+02  0.00000000000E+00 0.  1.
         21   -1    0    0  503  504 -0.00000000000E+00 -0.00000000000E+00 -0.31780332371E+03  0.31780332371E+03  0.00000000000E+00 0.  1.
         25    2    1    2    0    0 -0.40009159054E+02  0.73687949492E+01 -0.17929992350E+03  0.22232547143E+03  0.12500048292E+03 0.  0.
         25    2    1    2    0    0  0.40009159054E+02 -0.73687949492E+01 -0.80062467013E+02  0.15391878546E+03  0.12500384773E+03 0.  0.
          5    1    3    3  501    0 -0.43336463953E+02 -0.33562077687E+00 -0.83331063563E+00  0.43599841237E+02  0.47000000000E+01 0.  1.
         -5    1    3    3    0  501  0.33273048996E+01  0.77044157261E+01 -0.17846661287E+03  0.17872563020E+03  0.47000000000E+01 0.  1.
          5    1    4    4  502    0  0.71546241838E+02  0.30762550068E+02 -0.66185002969E+02  0.10231199258E+03  0.47000000000E+01 0. -1.
         -5    1    4    4    0  502 -0.31537082784E+02 -0.38131345018E+02 -0.13877464044E+02  0.51606792883E+02  0.47000000000E+01 0. -1.
<mgrwt>
<rscale>  0 0.27256355E+03</rscale>
<asrwt>0</asrwt>
<pdfrwt beam="1">  1       21 0.89909125E-02 0.27256355E+03</pdfrwt>
<pdfrwt beam="2">  1       21 0.48892821E-01 0.27256355E+03</pdfrwt>
<totfact> 0.38379670E+05</totfact>
</mgrwt>
</event>
<event>
 8    1  0.9569852E-006  0.2549594E+03  0.7546771E-02  0.1110210E+00
         21   -1    0    0  504  503  0.00000000000E+00  0.00000000000E+00  0.16610882387E+02  0.16610882387E+02  0.00000000000E+00 0. -1.
         21   -1    0    0  503  504 -0.00000000000E+00 -0.00000000000E+00 -0.97833930705E+03  0.97833930705E+03  0.00000000000E+00 0. -1.
         25    2    1    2    0    0  0.69382548621E+00  0.13971069878E+02 -0.56163767341E+03  0.57554991672E+03  0.12500063303E+03 0.  0.
         25    2    1    2    0    0 -0.69382548621E+00 -0.13971069878E+02 -0.40009075125E+03  0.41940027272E+03  0.12501322861E+03 0.  0.
          5    1    3    3  501    0  0.24595510546E+02 -0.47018278826E+02 -0.16150659167E+03  0.17006506648E+03  0.47000000000E+01 0. -1.
         -5    1    3    3    0  501 -0.23901685059E+02  0.60989348704E+02 -0.40013108174E+03  0.40548485024E+03  0.47000000000E+01 0. -1.
          5    1    4    4  502    0  0.93802185425E+01 -0.61326993516E+02 -0.12055213288E+03  0.13566095745E+03  0.47000000000E+01 0.  1.
         -5    1    4    4    0  502 -0.10074044029E+02  0.47355923637E+02 -0.27953861837E+03  0.28373931527E+03  0.47000000000E+01 0.  1.
<mgrwt>
<rscale>  0 0.25495944E+03</rscale>
<asrwt>0</asrwt>
<pdfrwt beam="1">  1       21 0.25555197E-02 0.25495944E+03</pdfrwt>
<pdfrwt beam="2">  1       21 0.15051378E+00 0.25495944E+03</pdfrwt>
<totfact> 0.23871878E+05</totfact>
</mgrwt>
</event>
<event>
 8    1  0.9569852E-006  0.2749116E+03  0.7546771E-02  0.1098501E+00
         21   -1    0    0  504  503  0.00000000000E+00  0.00000000000E+00  0.11299621884E+03  0.11299621884E+03  0.00000000000E+00 0. -1.
         21   -1    0    0  503  504 -0.00000000000E+00 -0.00000000000E+00 -0.16720993933E+03  0.16720993933E+03  0.00000000000E+00 0. -1.
         25    2    1    2    0    0  0.19048139541E+02  0.42803098445E+02 -0.60523439936E+02  0.14657074747E+03  0.12499984150E+03 0.  0.
         25    2    1    2    0    0 -0.19048139541E+02 -0.42803098445E+02  0.63097194413E+01  0.13363541070E+03  0.12499469419E+03 0.  0.
          5    1    3    3  501    0  0.19981381009E+02 -0.42457116062E+02 -0.29962189675E+02  0.55872042217E+02  0.47000000000E+01 0.  1.
         -5    1    3    3    0  501 -0.93324146812E+00  0.85260214506E+02 -0.30561250261E+02  0.90698705254E+02  0.47000000000E+01 0.  1.
          5    1    4    4  502    0 -0.33491874505E+02  0.38120880377E+02 -0.10359201022E+01  0.50971269447E+02  0.47000000000E+01 0. -1.
         -5    1    4    4    0  502  0.14443734964E+02 -0.80923978822E+02  0.73456395435E+01  0.82664141248E+02  0.47000000000E+01 0. -1.
<mgrwt>
<rscale>  0 0.27491156E+03</rscale>
<asrwt>0</asrwt>
<pdfrwt beam="1">  1       21 0.17384034E-01 0.27491156E+03</pdfrwt>
<pdfrwt beam="2">  1       21 0.25724606E-01 0.27491156E+03</pdfrwt>
<totfact> 0.42220777E+05</totfact>
</mgrwt>
</event>
<event>
 8    1  0.9569852E-006  0.3717202E+03  0.7546771E-02  0.1054037E+00
         21   -1    0    0  504  503  0.00000000000E+00  0.00000000000E+00  0.10470387136E+04  0.10470387136E+04  0.00000000000E+00 0. -1.
         21   -1    0    0  503  504 -0.00000000000E+00 -0.00000000000E+00 -0.32992067026E+02  0.32992067026E+02  0.00000000000E+00 0. -1.
         25    2    1    2    0    0 -0.37080106050E+02  0.24755753067E+00  0.12217647485E+03  0.17868233789E+03  0.12500116526E+03 0.  0.
         25    2    1    2    0    0  0.37080106050E+02 -0.24755753067E+00  0.89187017174E+03  0.90134844276E+03  0.12498646517E+03 0.  0.
          5    1    3    3  501    0  0.40367849831E+02  0.30050529963E+01  0.94949794044E+01  0.41843019458E+02  0.47000000000E+01 0. -1.
         -5    1    3    3    0  501 -0.77447955881E+02 -0.27574954656E+01  0.11268149545E+03  0.13683931843E+03  0.47000000000E+01 0. -1.
          5    1    4    4  502    0  0.53475741554E+02  0.30057235924E+02  0.21618693110E+03  0.22477093127E+03  0.47000000000E+01 0. -1.
         -5    1    4    4    0  502 -0.16395635504E+02 -0.30304793455E+02  0.67568324064E+03  0.67657751149E+03  0.47000000000E+01 0. -1.
<mgrwt>
<rscale>  0 0.37172017E+03</rscale>
<asrwt>0</asrwt>
<pdfrwt beam="1">  1       21 0.16108285E+00 0.37172017E+03</pdfrwt>
<pdfrwt beam="2">  1       21 0.50757034E-02 0.37172017E+03</pdfrwt>
<totfact> 0.60175022E+04</totfact>
</mgrwt>
</event>
<event>
 8    1  0.9569852E-006  0.2556825E+03  0.7546771E-02  0.1109765E+00
         21   -1    0    0  504  503  0.00000000000E+00  0.00000000000E+00  0.33359848057E+02  0.33359848057E+02  0.00000000000E+00 0. -1.
         21   -1    0    0  503  504 -0.00000000000E+00 -0.00000000000E+00 -0.48991185652E+03  0.48991185652E+03  0.00000000000E+00 0. -1.
         25    2    1    2    0    0 -0.18762846176E+02  0.15958826450E+02 -0.24993665638E+03  0.28053377460E+03  0.12499655176E+03 0.  0.
         25    2    1    2    0    0  0.18762846176E+02 -0.15958826450E+02 -0.20661535209E+03  0.24273792998E+03  0.12500028158E+03 0.  0.
          5    1    3    3  501    0 -0.62096620386E+02  0.15684470494E+02 -0.21584683370E+03  0.22519755437E+03  0.47000000000E+01 0.  1.
         -5    1    3    3    0  501  0.43333774210E+02  0.27435595528E+00 -0.34089822676E+02  0.55336220222E+02  0.47000000000E+01 0.  1.
          5    1    4    4  502    0  0.66315438719E+02  0.11480074441E+02 -0.14591904790E+03  0.16076065458E+03  0.47000000000E+01 0.  1.
         -5    1    4    4    0  502 -0.47552592543E+02 -0.27438900891E+02 -0.60696304191E+02  0.81977275400E+02  0.47000000000E+01 0.  1.
<mgrwt>
<rscale>  0 0.25568250E+03</rscale>
<asrwt>0</asrwt>
<pdfrwt beam="1">  1       21 0.51322846E-02 0.25568250E+03</pdfrwt>
<pdfrwt beam="2">  1       21 0.75371051E-01 0.25568250E+03</pdfrwt>
<totfact> 0.39861548E+05</totfact>
</mgrwt>
</event>
<event>
 8    1  0.9569852E-006  0.4399808E+03  0.7546771E-02  0.1030753E+00
         21   -1    0    0  504  503  0.00000000000E+00  0.00000000000E+00  0.74971221248E+02  0.74971221248E+02  0.00000000000E+00 0.  1.
         21   -1    0    0  503  504 -0.00000000000E+00 -0.00000000000E+00 -0.64552464251E+03  0.64552464251E+03  0.00000000000E+00 0.  1.
         25    2    1    2    0    0 -0.89453420454E+01 -0.95925668213E+02 -0.53625216831E+03  0.55899394528E+03  0.12500435940E+03 0.  0.
         25    2    1    2    0    0  0.89453420454E+01  0.95925668213E+02 -0.34301252954E+02  0.16150191849E+03  0.12499816301E+03 0.  0.
          5    1    3    3  501    0 -0.75209422563E+01 -0.11800960425E+03 -0.31344790291E+03  0.33504404055E+03  0.47000000000E+01 0.  1.
         -5    1    3    3    0  501 -0.14243997891E+01  0.22083936039E+02 -0.22280426540E+03  0.22394990473E+03  0.47000000000E+01 0.  1.
          5    1    4    4  502    0  0.18665906501E+02  0.11603340920E+03 -0.55767189264E+02  0.13017003309E+03  0.47000000000E+01 0.  1.
         -5    1    4    4    0  502 -0.97205644551E+01 -0.20107740988E+02  0.21465936310E+02  0.31331885398E+02  0.47000000000E+01 0.  1.
<mgrwt>
<rscale>  0 0.43998078E+03</rscale>
<asrwt>0</asrwt>
<pdfrwt beam="1">  1       21 0.11534034E-01 0.43998078E+03</pdfrwt>
<pdfrwt beam="2">  1       21 0.99311480E-01 0.43998078E+03</pdfrwt>
<totfact> 0.48276379E+04</totfact>
</mgrwt>
</event>
<event>
 8    1  0.9569852E-006  0.8018929E+03  0.7546771E-02  0.9557281E-01
         21   -1    0    0  504  503  0.00000000000E+00  0.00000000000E+00  0.50548375672E+03  0.50548375672E+03  0.00000000000E+00 0.  1.
         21   -1    0    0  503  504 -0.00000000000E+00 -0.00000000000E+00 -0.31802815247E+03  0.31802815247E+03  0.00000000000E+00 0.  1.
         25    2    1    2    0    0  0.68153343085E+02  0.32932887490E+03  0.27751644971E+03  0.45358840065E+03  0.12499868532E+03 0.  0.
         25    2    1    2    0    0 -0.68153343085E+02 -0.32932887490E+03 -0.90060845454E+02  0.36992350854E+03  0.12502023944E+03 0.  0.
          5    1    3    3  501    0  0.10143233276E+02  0.28330762207E+03  0.23362646682E+03  0.36738196731E+03  0.47000000000E+01 0.  1.
         -5    1    3    3    0  501  0.58010109809E+02  0.46021252832E+02  0.43889982891E+02  0.86206433347E+02  0.47000000000E+01 0.  1.
          5    1    4    4  502    0 -0.94744829555E+02 -0.16705447073E+03 -0.68763262606E+02  0.20404473824E+03  0.47000000000E+01 0. -1.
         -5    1    4    4    0  502  0.26591486470E+02 -0.16227440417E+03 -0.21297582848E+02  0.16587877031E+03  0.47000000000E+01 0. -1.
<mgrwt>
<rscale>  0 0.80189292E+03</rscale>
<asrwt>0</asrwt>
<pdfrwt beam="1">  1       21 0.77766732E-01 0.80189292E+03</pdfrwt>
<pdfrwt beam="2">  1       21 0.48927408E-01 0.80189292E+03</pdfrwt>
<totfact> 0.47307407E+03</totfact>
</mgrwt>
</event>
<event>
 8    1  0.9569852E-006  0.4060703E+03  0.7546771E-02  0.1041698E+00
         21   -1    0    0  504  503  0.00000000000E+00  0.00000000000E+00  0.73845348705E+02  0.73845348705E+02  0.00000000000E+00 0.  1.
         21   -1    0    0  503  504 -0.00000000000E+00 -0.00000000000E+00 -0.55823788779E+03  0.55823788779E+03  0.00000000000E+00 0.  1.
         25    2    1    2    0    0 -0.13164707345E+03  0.47114188755E+02 -0.12122452037E+03  0.22334541709E+03  0.12504835970E+03 0.  0.
         25    2    1    2    0    0  0.13164707345E+03 -0.47114188755E+02 -0.36316801872E+03  0.40873781941E+03  0.12499958587E+03 0.  0.
          5    1    3    3  501    0 -0.35799622935E+02 -0.11082381474E+02  0.20174857772E+02  0.42819937734E+02  0.47000000000E+01 0.  1.
         -5    1    3    3    0  501 -0.95847450513E+02  0.58196570229E+02 -0.14139937814E+03  0.18052547935E+03  0.47000000000E+01 0.  1.
          5    1    4    4  502    0  0.13696740509E+03 -0.41923777560E+01 -0.31657268012E+03  0.34498985186E+03  0.47000000000E+01 0.  1.
         -5    1    4    4    0  502 -0.53203316379E+01 -0.42921810999E+02 -0.46595338600E+02  0.63747967556E+02  0.47000000000E+01 0.  1.
<mgrwt>
<rscale>  0 0.40607030E+03</rscale>
<asrwt>0</asrwt>
<pdfrwt beam="1">  1       21 0.11360822E-01 0.40607030E+03</pdfrwt>
<pdfrwt beam="2">  1       21 0.85882755E-01 0.40607030E+03</pdfrwt>
<totfact> 0.70654632E+04</totfact>
</mgrwt>
</event>
<event>
 8    1  0.9569852E-006  0.3828147E+03  0.7546771E-02  0.1049898E+00
         21   -1    0    0  504  503  0.00000000000E+00  0.00000000000E+00  0.18317624798E+03  0.18317624798E+03  0.00000000000E+00 0.  1.
         21   -1    0    0  503  504 -0.00000000000E+00 -0.00000000000E+00 -0.20000830679E+03  0.20000830679E+03  0.00000000000E+00 0.  1.
         25    2    1    2    0    0  0.52133422075E+02  0.76004009627E+02 -0.12041139019E+03  0.19650800500E+03  0.12498795929E+03 0.  0.
         25    2    1    2    0    0 -0.52133422075E+02 -0.76004009627E+02  0.10357933137E+03  0.18667654977E+03  0.12499981268E+03 0.  0.
          5    1    3    3  501    0  0.46728656383E+02 -0.72906462783E+01  0.28017412188E+01  0.47609459190E+02  0.47000000000E+01 0. -1.
         -5    1    3    3    0  501  0.54047656923E+01  0.83294655905E+02 -0.12321313141E+03  0.14889854581E+03  0.47000000000E+01 0. -1.
          5    1    4    4  502    0  0.31914010946E+01 -0.96061436829E+02  0.62150659988E+02  0.11455469970E+03  0.47000000000E+01 0. -1.
         -5    1    4    4    0  502 -0.55324823170E+02  0.20057427202E+02  0.41428671384E+02  0.72121850069E+02  0.47000000000E+01 0. -1.
<mgrwt>
<rscale>  0 0.38281469E+03</rscale>
<asrwt>0</asrwt>
<pdfrwt beam="1">  1       21 0.28180961E-01 0.38281469E+03</pdfrwt>
<pdfrwt beam="2">  1       21 0.30770509E-01 0.38281469E+03</pdfrwt>
<totfact> 0.11567579E+05</totfact>
</mgrwt>
</event>
<event>
 8    1  0.9569852E-006  0.2749462E+03  0.7546771E-02  0.1098482E+00
         21   -1    0    0  504  503  0.00000000000E+00  0.00000000000E+00  0.81418274547E+02  0.81418274547E+02  0.00000000000E+00 0. -1.
         21   -1    0    0  503  504 -0.00000000000E+00 -0.00000000000E+00 -0.23212055065E+03  0.23212055065E+03  0.00000000000E+00 0. -1.
         25    2    1    2    0    0 -0.85736217851E+01 -0.25070244513E+02 -0.17550080254E+02  0.12899316683E+03  0.12501682935E+03 0.  0.
         25    2    1    2    0    0  0.85736217851E+01  0.25070244513E+02 -0.13315219585E+03  0.18454565838E+03  0.12500227444E+03 0.  0.
          5    1    3    3  501    0  0.34596538335E+02 -0.53095130910E+02 -0.37277494030E+02  0.73673027305E+02  0.47000000000E+01 0.  1.
         -5    1    3    3    0  501 -0.43170160120E+02  0.28024886397E+02  0.19727413776E+02  0.55320139521E+02  0.47000000000E+01 0.  1.
          5    1    4    4  502    0  0.64526008161E+02  0.10942721773E+02 -0.46866881223E+02  0.80634629314E+02  0.47000000000E+01 0. -1.
         -5    1    4    4    0  502 -0.55952386376E+02  0.14127522740E+02 -0.86285314630E+02  0.10391102906E+03  0.47000000000E+01 0. -1.
<mgrwt>
<rscale>  0 0.27494621E+03</rscale>
<asrwt>0</asrwt>
<pdfrwt beam="1">  1       21 0.12525889E-01 0.27494621E+03</pdfrwt>
<pdfrwt beam="2">  1       21 0.35710853E-01 0.27494621E+03</pdfrwt>
<totfact> 0.40379310E+05</totfact>
</mgrwt>
</event>
<event>
 8    1  0.9569852E-006  0.3263887E+03  0.7546771E-02  0.1072746E+00
         21   -1    0    0  504  503  0.00000000000E+00  0.00000000000E+00  0.28475314609E+03  0.28475314609E+03  0.00000000000E+00 0.  1.
         21   -1    0    0  503  504 -0.00000000000E+00 -0.00000000000E+00 -0.93527985761E+02  0.93527985761E+02  0.00000000000E+00 0.  1.
         25    2    1    2    0    0  0.26517659170E+02 -0.27467310414E+02  0.20885375519E+03  0.24637551907E+03  0.12499346364E+03 0.  0.
         25    2    1    2    0    0 -0.26517659170E+02  0.27467310414E+02 -0.17628594861E+02  0.13190561278E+03  0.12502273368E+03 0.  0.
          5    1    3    3  501    0 -0.72550202336E+01 -0.35654802049E+02  0.21849663373E+01  0.36752745552E+02  0.47000000000E+01 0.  1.
         -5    1    3    3    0  501  0.33772679403E+02  0.81874916346E+01  0.20666878885E+03  0.20962277352E+03  0.47000000000E+01 0.  1.
          5    1    4    4  502    0 -0.19199499931E+02 -0.44487617622E+02  0.17020102206E+02  0.51570755263E+02  0.47000000000E+01 0. -1.
         -5    1    4    4    0  502 -0.73181592390E+01  0.71954928037E+02 -0.34648697066E+02  0.80334857514E+02  0.47000000000E+01 0. -1.
<mgrwt>
<rscale>  0 0.32638865E+03</rscale>
<asrwt>0</asrwt>
<pdfrwt beam="1">  1       21 0.43808176E-01 0.32638865E+03</pdfrwt>
<pdfrwt beam="2">  1       21 0.14388921E-01 0.32638865E+03</pdfrwt>
<totfact> 0.20465851E+05</totfact>
</mgrwt>
</event>
<event>
 8    1  0.9569852E-006  0.4933927E+03  0.7546771E-02  0.1015518E+00
         21   -1    0    0  504  503  0.00000000000E+00  0.00000000000E+00  0.75531833654E+02  0.75531833654E+02  0.00000000000E+00 0.  1.
         21   -1    0    0  503  504 -0.00000000000E+00 -0.00000000000E+00 -0.80574100344E+03  0.80574100344E+03  0.00000000000E+00 0.  1.
         25    2    1    2    0    0  0.19163025504E+02 -0.21168579224E+03 -0.37852250118E+03  0.45175337385E+03  0.12499492273E+03 0.  0.
         25    2    1    2    0    0 -0.19163025504E+02  0.21168579224E+03 -0.35168666860E+03  0.42951946324E+03  0.12500144097E+03 0.  0.
          5    1    3    3  501    0  0.81220908669E+00 -0.36232556388E+02 -0.19015618364E+03  0.19363605553E+03  0.47000000000E+01 0. -1.
         -5    1    3    3    0  501  0.18350816417E+02 -0.17545323585E+03 -0.18836631754E+03  0.25811731832E+03  0.47000000000E+01 0. -1.
          5    1    4    4  502    0 -0.27592939259E+02  0.32113743228E+01 -0.11525920269E+02  0.30440434623E+02  0.47000000000E+01 0.  1.
         -5    1    4    4    0  502  0.84299137556E+01  0.20847441792E+03 -0.34016074834E+03  0.39907902861E+03  0.47000000000E+01 0.  1.
<mgrwt>
<rscale>  0 0.49339273E+03</rscale>
<asrwt>0</asrwt>
<pdfrwt beam="1">  1       21 0.11620282E-01 0.49339273E+03</pdfrwt>
<pdfrwt beam="2">  1       21 0.12396015E+00 0.49339273E+03</pdfrwt>
<totfact> 0.27055182E+04</totfact>
</mgrwt>
</event>
<event>
 8    1  0.9569852E-006  0.2794168E+03  0.7546771E-02  0.1096008E+00
         21   -1    0    0  504  503  0.00000000000E+00  0.00000000000E+00  0.12301528228E+03  0.12301528228E+03  0.00000000000E+00 0. -1.
         21   -1    0    0  503  504 -0.00000000000E+00 -0.00000000000E+00 -0.15866679789E+03  0.15866679789E+03  0.00000000000E+00 0. -1.
         25    2    1    2    0    0  0.36620828213E+02  0.50250133855E+02 -0.24081126199E+02  0.14159587014E+03  0.12491328508E+03 0.  0.
         25    2    1    2    0    0 -0.36620828213E+02 -0.50250133855E+02 -0.11570389411E+02  0.14008621003E+03  0.12499644522E+03 0.  0.
          5    1    3    3  501    0 -0.17756529887E+02 -0.27589424885E+02  0.17901904716E+02  0.37670132885E+02  0.47000000000E+01 0.  1.
         -5    1    3    3    0  501  0.54377358100E+02  0.77839558740E+02 -0.41983030914E+02  0.10392573725E+03  0.47000000000E+01 0.  1.
          5    1    4    4  502    0 -0.37565998596E+02  0.20189215267E+01  0.47689421846E+02  0.60923322715E+02  0.47000000000E+01 0.  1.
         -5    1    4    4    0  502  0.94517038264E+00 -0.52269055381E+02 -0.59259811257E+02  0.79162887313E+02  0.47000000000E+01 0.  1.
<mgrwt>
<rscale>  0 0.27941683E+03</rscale>
<asrwt>0</asrwt>
<pdfrwt beam="1">  1       21 0.18925428E-01 0.27941683E+03</pdfrwt>
<pdfrwt beam="2">  1       21 0.24410276E-01 0.27941683E+03</pdfrwt>
<totfact> 0.39829016E+05</totfact>
</mgrwt>
</event>
<event>
 8    1  0.9569852E-006  0.2870095E+03  0.7546771E-02  0.1091921E+00
         21   -1    0    0  504  503  0.00000000000E+00  0.00000000000E+00  0.71300248534E+02  0.71300248534E+02  0.00000000000E+00 0. -1.
         21   -1    0    0  503  504 -0.00000000000E+00 -0.00000000000E+00 -0.28882949925E+03  0.28882949925E+03  0.00000000000E+00 0. -1.
         25    2    1    2    0    0 -0.52407370254E+02  0.44964298555E+02 -0.91005582963E+02  0.16933842940E+03  0.12500066776E+03 0.  0.
         25    2    1    2    0    0  0.52407370254E+02 -0.44964298555E+02 -0.12652366775E+03  0.19079131838E+03  0.12499907226E+03 0.  0.
          5    1    3    3  501    0  0.56801094601E+01  0.58704170469E+02  0.14559844991E+01  0.59183216918E+02  0.47000000000E+01 0.  1.
         -5    1    3    3    0  501 -0.58087479714E+02 -0.13739871914E+02 -0.92461567462E+02  0.11015521248E+03  0.47000000000E+01 0.  1.
          5    1    4    4  502    0 -0.14630841236E+02 -0.66175232227E+02 -0.38685757975E+02  0.78178646353E+02  0.47000000000E+01 0. -1.
         -5    1    4    4    0  502  0.67038211490E+02  0.21210933672E+02 -0.87837909780E+02  0.11261267203E+03  0.47000000000E+01 0. -1.
<mgrwt>
<rscale>  0 0.28700951E+03</rscale>
<asrwt>0</asrwt>
<pdfrwt beam="1">  1       21 0.10969269E-01 0.28700951E+03</pdfrwt>
<pdfrwt beam="2">  1       21 0.44435307E-01 0.28700951E+03</pdfrwt>
<totfact> 0.32775057E+05</totfact>
</mgrwt>
</event>
<event>
 8    1  0.9569852E-006  0.2709959E+03  0.7546771E-02  0.1100711E+00
         21   -1    0    0  504  503  0.00000000000E+00  0.00000000000E+00  0.10145485390E+03  0.10145485390E+03  0.00000000000E+00 0.  1.
         21   -1    0    0  503  504 -0.00000000000E+00 -0.00000000000E+00 -0.18096424546E+03  0.18096424546E+03  0.00000000000E+00 0.  1.
         25    2    1    2    0    0 -0.23775087593E+01  0.34470318043E+02  0.12427842674E+01  0.12965121149E+03  0.12495613932E+03 0.  0.
         25    2    1    2    0    0  0.23775087593E+01 -0.34470318043E+02 -0.80752175829E+02  0.15276788787E+03  0.12499303296E+03 0.  0.
          5    1    3    3  501    0  0.21970754150E+01 -0.14812568813E+02  0.54546840387E+02  0.56759907782E+02  0.47000000000E+01 0. -1.
         -5    1    3    3    0  501 -0.45745841742E+01  0.49282886855E+02 -0.53304056120E+02  0.72891303706E+02  0.47000000000E+01 0. -1.
          5    1    4    4  502    0 -0.16664319960E+01  0.45844584296E+02 -0.45681782760E+02  0.64910847946E+02  0.47000000000E+01 0. -1.
         -5    1    4    4    0  502  0.40439407553E+01 -0.80314902339E+02 -0.35070393069E+02  0.87857039926E+02  0.47000000000E+01 0. -1.
<mgrwt>
<rscale>  0 0.27099595E+03</rscale>
<asrwt>0</asrwt>
<pdfrwt beam="1">  1       21 0.15608439E-01 0.27099595E+03</pdfrwt>
<pdfrwt beam="2">  1       21 0.27840653E-01 0.27099595E+03</pdfrwt>
<totfact> 0.44238811E+05</totfact>
</mgrwt>
</event>
<event>
 8    1  0.9569852E-006  0.2917480E+03  0.7546771E-02  0.1089440E+00
         21   -1    0    0  504  503  0.00000000000E+00  0.00000000000E+00  0.52830729829E+02  0.52830729829E+02  0.00000000000E+00 0. -1.
         21   -1    0    0  503  504 -0.00000000000E+00 -0.00000000000E+00 -0.40278123009E+03  0.40278123009E+03  0.00000000000E+00 0. -1.
         25    2    1    2    0    0  0.31194016812E+02  0.68367634365E+02 -0.17060760662E+03  0.22445081820E+03  0.12499605690E+03 0.  0.
         25    2    1    2    0    0 -0.31194016812E+02 -0.68367634365E+02 -0.17934289363E+03  0.23116114171E+03  0.12499759928E+03 0.  0.
          5    1    3    3  501    0  0.44870392898E+02  0.59969576823E+02 -0.26819723793E+02  0.79693725522E+02  0.47000000000E+01 0.  1.
         -5    1    3    3    0  501 -0.13676376086E+02  0.83980575421E+01 -0.14378788283E+03  0.14475709268E+03  0.47000000000E+01 0.  1.
          5    1    4    4  502    0  0.38365348513E+02 -0.37395651751E+02 -0.12899311914E+03  0.13975567796E+03  0.47000000000E+01 0. -1.
         -5    1    4    4    0  502 -0.69559365326E+02 -0.30971982615E+02 -0.50349774490E+02  0.91405463747E+02  0.47000000000E+01 0. -1.
<mgrwt>
<rscale>  0 0.29174802E+03</rscale>
<asrwt>0</asrwt>
<pdfrwt beam="1">  1       21 0.81278048E-02 0.29174802E+03</pdfrwt>
<pdfrwt beam="2">  1       21 0.61966341E-01 0.29174802E+03</pdfrwt>
<totfact> 0.27525152E+05</totfact>
</mgrwt>
</event>
<event>
 8    1  0.9569852E-006  0.3226196E+03  0.7546771E-02  0.1074450E+00
         21   -1    0    0  504  503  0.00000000000E+00  0.00000000000E+00  0.18516113012E+03  0.18516113012E+03  0.00000000000E+00 0.  1.
         21   -1    0    0  503  504 -0.00000000000E+00 -0.00000000000E+00 -0.14053086047E+03  0.14053086047E+03  0.00000000000E+00 0.  1.
         25    2    1    2    0    0 -0.13138441217E+01 -0.55202281768E+02 -0.64213834965E+02  0.15098775783E+03  0.12499947326E+03 0.  0.
         25    2    1    2    0    0  0.13138441217E+01  0.55202281768E+02  0.10884410461E+03  0.17470423276E+03  0.12500204693E+03 0.  0.
          5    1    3    3  501    0  0.27817621396E+02 -0.86018174422E+02 -0.58879604527E+02  0.10799001908E+03  0.47000000000E+01 0. -1.
         -5    1    3    3    0  501 -0.29131465518E+02  0.30815892654E+02 -0.53342304373E+01  0.42997738751E+02  0.47000000000E+01 0. -1.
          5    1    4    4  502    0 -0.14492619662E+02  0.38949595321E+02 -0.18167971335E+02  0.45599037082E+02  0.47000000000E+01 0. -1.
         -5    1    4    4    0  502  0.15806463784E+02  0.16252686446E+02  0.12701207595E+03  0.12910519567E+03  0.47000000000E+01 0. -1.
<mgrwt>
<rscale>  0 0.32261961E+03</rscale>
<asrwt>0</asrwt>
<pdfrwt beam="1">  1       21 0.28486328E-01 0.32261961E+03</pdfrwt>
<pdfrwt beam="2">  1       21 0.21620132E-01 0.32261961E+03</pdfrwt>
<totfact> 0.22763918E+05</totfact>
</mgrwt>
</event>
<event>
 8    1  0.9569852E-006  0.2876630E+03  0.7546771E-02  0.1091576E+00
         21   -1    0    0  504  503  0.00000000000E+00  0.00000000000E+00  0.11285135573E+04  0.11285135573E+04  0.00000000000E+00 0. -1.
         21   -1    0    0  503  504 -0.00000000000E+00 -0.00000000000E+00 -0.18331631254E+02  0.18331631254E+02  0.00000000000E+00 0. -1.
         25    2    1    2    0    0  0.14620977223E+02 -0.69520135702E+02  0.57098082353E+03  0.58880714708E+03  0.12501173296E+03 0.  0.
         25    2    1    2    0    0 -0.14620977223E+02  0.69520135702E+02  0.53920110248E+03  0.55803804143E+03  0.12498721746E+03 0.  0.
          5    1    3    3  501    0  0.57769859525E+02 -0.60438629078E+02  0.22650166742E+03  0.24148556871E+03  0.47000000000E+01 0. -1.
         -5    1    3    3    0  501 -0.43148882301E+02 -0.90815066240E+01  0.34447915611E+03  0.34732157837E+03  0.47000000000E+01 0. -1.
          5    1    4    4  502    0 -0.16751752353E+02  0.60048313240E+02  0.54301139061E+03  0.54659846456E+03  0.47000000000E+01 0.  1.
         -5    1    4    4    0  502  0.21307751295E+01  0.94718224616E+01 -0.38102881280E+01  0.11439576872E+02  0.47000000000E+01 0.  1.
<mgrwt>
<rscale>  0 0.28766296E+03</rscale>
<asrwt>0</asrwt>
<pdfrwt beam="1">  1       21 0.17361742E+00 0.28766296E+03</pdfrwt>
<pdfrwt beam="2">  1       21 0.28202518E-02 0.28766296E+03</pdfrwt>
<totfact> 0.13551922E+05</totfact>
</mgrwt>
</event>
<event>
 8    1  0.9569852E-006  0.2764605E+03  0.7546771E-02  0.1097638E+00
         21   -1    0    0  504  503  0.00000000000E+00  0.00000000000E+00  0.16979255188E+03  0.16979255188E+03  0.00000000000E+00 0.  1.
         21   -1    0    0  503  504 -0.00000000000E+00 -0.00000000000E+00 -0.11253501577E+03  0.11253501577E+03  0.00000000000E+00 0.  1.
         25    2    1    2    0    0 -0.25389134848E+02  0.27124993393E+02 -0.18189715387E+02  0.13166871092E+03  0.12500164101E+03 0.  0.
         25    2    1    2    0    0  0.25389134848E+02 -0.27124993393E+02  0.75447251496E+02  0.15065885673E+03  0.12500171966E+03 0.  0.
          5    1    3    3  501    0  0.46880910399E+02 -0.18841912123E+01 -0.24972097796E+02  0.53357901052E+02  0.47000000000E+01 0. -1.
         -5    1    3    3    0  501 -0.72270045246E+02  0.29009184606E+02  0.67823824094E+01  0.78310809870E+02  0.47000000000E+01 0. -1.
          5    1    4    4  502    0  0.64299550252E+01  0.37814563520E+02  0.73239374261E+02  0.82809307919E+02  0.47000000000E+01 0.  1.
         -5    1    4    4    0  502  0.18959179822E+02 -0.64939556914E+02  0.22078772345E+01  0.67849548809E+02  0.47000000000E+01 0.  1.
<mgrwt>
<rscale>  0 0.27646054E+03</rscale>
<asrwt>0</asrwt>
<pdfrwt beam="1">  1       21 0.26121931E-01 0.27646054E+03</pdfrwt>
<pdfrwt beam="2">  1       21 0.17313079E-01 0.27646054E+03</pdfrwt>
<totfact> 0.41289831E+05</totfact>
</mgrwt>
</event>
<event>
 8    1  0.9569852E-006  0.9777301E+03  0.7546771E-02  0.9333313E-01
         21   -1    0    0  504  503  0.00000000000E+00  0.00000000000E+00  0.65703487334E+03  0.65703487334E+03  0.00000000000E+00 0. -1.
         21   -1    0    0  503  504 -0.00000000000E+00 -0.00000000000E+00 -0.36373874167E+03  0.36373874167E+03  0.00000000000E+00 0. -1.
         25    2    1    2    0    0  0.22447298487E+03  0.41407114325E+03  0.18739333504E+03  0.52209763865E+03  0.12500659845E+03 0.  0.
         25    2    1    2    0    0 -0.22447298487E+03 -0.41407114325E+03  0.10590279663E+03  0.49867597636E+03  0.12497717575E+03 0.  0.
          5    1    3    3  501    0  0.14242414331E+03  0.30794312119E+03  0.76132705015E+02  0.34775261502E+03  0.47000000000E+01 0. -1.
         -5    1    3    3    0  501  0.82048841565E+02  0.10612802206E+03  0.11126063003E+03  0.17434502363E+03  0.47000000000E+01 0. -1.
          5    1    4    4  502    0 -0.32262924368E+02 -0.18485643189E+03  0.30826361172E+02  0.19022395023E+03  0.47000000000E+01 0. -1.
         -5    1    4    4    0  502 -0.19221006050E+03 -0.22921471136E+03  0.75076435456E+02  0.30845202613E+03  0.47000000000E+01 0. -1.
<mgrwt>
<rscale>  0 0.97773010E+03</rscale>
<asrwt>0</asrwt>
<pdfrwt beam="1">  1       21 0.10108229E+00 0.97773010E+03</pdfrwt>
<pdfrwt beam="2">  1       21 0.55959807E-01 0.97773010E+03</pdfrwt>
<totfact> 0.18268011E+03</totfact>
</mgrwt>
</event>
<event>
 8    1  0.9569852E-006  0.3696079E+03  0.7546771E-02  0.1054843E+00
         21   -1    0    0  504  503  0.00000000000E+00  0.00000000000E+00  0.10835807134E+04  0.10835807134E+04  0.00000000000E+00 0.  1.
         21   -1    0    0  503  504 -0.00000000000E+00 -0.00000000000E+00 -0.31518182699E+02  0.31518182699E+02  0.00000000000E+00 0.  1.
         25    2    1    2    0    0 -0.23389085977E+02 -0.11438628476E+03  0.31490141660E+03  0.35835619381E+03  0.12499995194E+03 0.  0.
         25    2    1    2    0    0  0.23389085977E+02  0.11438628476E+03  0.73716111408E+03  0.75674270227E+03  0.12498695065E+03 0.  0.
          5    1    3    3  501    0  0.18202836830E+02 -0.65788125247E+02  0.47308865718E+02  0.83184370333E+02  0.47000000000E+01 0. -1.
         -5    1    3    3    0  501 -0.41591922807E+02 -0.48598159511E+02  0.26759255088E+03  0.27517182348E+03  0.47000000000E+01 0. -1.
          5    1    4    4  502    0  0.64283177511E+02  0.19686124816E+02  0.26676718628E+03  0.27514849100E+03  0.47000000000E+01 0.  1.
         -5    1    4    4    0  502 -0.40894091534E+02  0.94700159943E+02  0.47039392780E+03  0.48159421127E+03  0.47000000000E+01 0.  1.
<mgrwt>
<rscale>  0 0.36960787E+03</rscale>
<asrwt>0</asrwt>
<pdfrwt beam="1">  1       21 0.16670470E+00 0.36960787E+03</pdfrwt>
<pdfrwt beam="2">  1       21 0.48489520E-02 0.36960787E+03</pdfrwt>
<totfact> 0.59188709E+04</totfact>
</mgrwt>
</event>
<event>
 8    1  0.9569852E-006  0.4078099E+03  0.7546771E-02  0.1041108E+00
         21   -1    0    0  504  503  0.00000000000E+00  0.00000000000E+00  0.41386024654E+03  0.41386024654E+03  0.00000000000E+00 0. -1.
         21   -1    0    0  503  504 -0.00000000000E+00 -0.00000000000E+00 -0.10046197929E+03  0.10046197929E+03  0.00000000000E+00 0. -1.
         25    2    1    2    0    0  0.76877552312E+02 -0.58665114821E+02  0.31918944449E+03  0.35617709544E+03  0.12501387161E+03 0.  0.
         25    2    1    2    0    0 -0.76877552312E+02  0.58665114821E+02 -0.57911772376E+01  0.15814513039E+03  0.12499836313E+03 0.  0.
          5    1    3    3  501    0  0.30446514189E+02  0.35960428932E+02  0.60707943576E+02  0.76991474128E+02  0.47000000000E+01 0. -1.
         -5    1    3    3    0  501  0.46431038123E+02 -0.94625543753E+02  0.25848150092E+03  0.27918562132E+03  0.47000000000E+01 0. -1.
          5    1    4    4  502    0 -0.20191291440E+02  0.65745921337E+02 -0.50496683016E+02  0.85453024628E+02  0.47000000000E+01 0. -1.
         -5    1    4    4    0  502 -0.56686260873E+02 -0.70808065164E+01  0.44705505778E+02  0.72692105758E+02  0.47000000000E+01 0. -1.
<mgrwt>
<rscale>  0 0.40780986E+03</rscale>
<asrwt>0</asrwt>
<pdfrwt beam="1">  1       21 0.63670807E-01 0.40780986E+03</pdfrwt>
<pdfrwt beam="2">  1       21 0.15455689E-01 0.40780986E+03</pdfrwt>
<totfact> 0.79266974E+04</totfact>
</mgrwt>
</event>
<event>
 8    1  0.9569852E-006  0.2736577E+03  0.7546771E-02  0.1099204E+00
         21   -1    0    0  504  503  0.00000000000E+00  0.00000000000E+00  0.20477912612E+04  0.20477912612E+04  0.00000000000E+00 0.  1.
         21   -1    0    0  503  504 -0.00000000000E+00 -0.00000000000E+00 -0.91426001986E+01  0.91426001986E+01  0.00000000000E+00 0.  1.
         25    2    1    2    0    0  0.25657174434E+02 -0.30662388864E+02  0.72817695177E+03  0.73990714519E+03  0.12498975049E+03 0.  0.
         25    2    1    2    0    0 -0.25657174434E+02  0.30662388864E+02  0.13104717092E+04  0.13170267162E+04  0.12499919125E+03 0.  0.
          5    1    3    3  501    0  0.39068243238E+02 -0.54577185150E+02  0.20032133184E+03  0.21131900709E+03  0.47000000000E+01 0.  1.
         -5    1    3    3    0  501 -0.13411068804E+02  0.23914796286E+02  0.52785561993E+03  0.52858813810E+03  0.47000000000E+01 0.  1.
          5    1    4    4  502    0  0.16175162935E+02 -0.63329897947E+01  0.10684399260E+04  0.10685914599E+04  0.47000000000E+01 0.  1.
         -5    1    4    4    0  502 -0.41832337368E+02  0.36995378659E+02  0.24203178322E+03  0.24843525631E+03  0.47000000000E+01 0.  1.
<mgrwt>
<rscale>  0 0.27365772E+03</rscale>
<asrwt>0</asrwt>
<pdfrwt beam="1">  1       21 0.31504444E+00 0.27365772E+03</pdfrwt>
<pdfrwt beam="2">  1       21 0.14065555E-02 0.27365772E+03</pdfrwt>
<totfact> 0.57084955E+04</totfact>
</mgrwt>
</event>
<event>
 8    1  0.9569852E-006  0.4451922E+03  0.7546771E-02  0.1029166E+00
         21   -1    0    0  504  503  0.00000000000E+00  0.00000000000E+00  0.51012362594E+02  0.51012362594E+02  0.00000000000E+00 0. -1.
         21   -1    0    0  503  504 -0.00000000000E+00 -0.00000000000E+00 -0.97131387857E+03  0.97131387857E+03  0.00000000000E+00 0. -1.
         25    2    1    2    0    0 -0.14265645892E+03 -0.63626348616E+02 -0.68428725705E+03  0.71293351444E+03  0.12500387325E+03 0.  0.
         25    2    1    2    0    0  0.14265645892E+03  0.63626348616E+02 -0.23601425893E+03  0.30939272673E+03  0.12498780512E+03 0.  0.
          5    1    3    3  501    0 -0.33447301169E+02  0.32890997145E+02 -0.26122010104E+03  0.26544033385E+03  0.47000000000E+01 0. -1.
         -5    1    3    3    0  501 -0.10920915775E+03 -0.96517345761E+02 -0.42306715602E+03  0.44749318059E+03  0.47000000000E+01 0. -1.
          5    1    4    4  502    0  0.12209462201E+03  0.99513216752E+02 -0.19768968079E+03  0.25281075318E+03  0.47000000000E+01 0. -1.
         -5    1    4    4    0  502  0.20561836910E+02 -0.35886868137E+02 -0.38324578133E+02  0.56581973550E+02  0.47000000000E+01 0. -1.
<mgrwt>
<rscale>  0 0.44519216E+03</rscale>
<asrwt>0</asrwt>
<pdfrwt beam="1">  1       21 0.78480555E-02 0.44519216E+03</pdfrwt>
<pdfrwt beam="2">  1       21 0.14943291E+00 0.44519216E+03</pdfrwt>
<totfact> 0.33843016E+04</totfact>
</mgrwt>
</event>
<event>
 8    1  0.9569852E-006  0.2764918E+03  0.7546771E-02  0.1097621E+00
         21   -1    0    0  504  503  0.00000000000E+00  0.00000000000E+00  0.17580419087E+02  0.17580419087E+02  0.00000000000E+00 0. -1.
         21   -1    0    0  503  504 -0.00000000000E+00 -0.00000000000E+00 -0.10871142319E+04  0.10871142319E+04  0.00000000000E+00 0. -1.
         25    2    1    2    0    0 -0.45405019808E+01  0.22168209321E+02 -0.31687546753E+03  0.34139119072E+03  0.12500335003E+03 0.  0.
         25    2    1    2    0    0  0.45405019808E+01 -0.22168209321E+02 -0.75265834532E+03  0.76330346030E+03  0.12500216823E+03 0.  0.
          5    1    3    3  501    0  0.28862008924E+02  0.18218484947E+02 -0.30259315091E+03  0.30454824533E+03  0.47000000000E+01 0.  1.
         -5    1    3    3    0  501 -0.33402510905E+02  0.39497243747E+01 -0.14282316613E+02  0.36842945393E+02  0.47000000000E+01 0.  1.
          5    1    4    4  502    0  0.24251096300E+01  0.38966148386E+02 -0.95382428305E+02  0.10317043911E+03  0.47000000000E+01 0. -1.
         -5    1    4    4    0  502  0.21153923507E+01 -0.61134357707E+02 -0.65727591701E+03  0.66013302119E+03  0.47000000000E+01 0. -1.
<mgrwt>
<rscale>  0 0.27649176E+03</rscale>
<asrwt>0</asrwt>
<pdfrwt beam="1">  1       21 0.27046793E-02 0.27649176E+03</pdfrwt>
<pdfrwt beam="2">  1       21 0.16724838E+00 0.27649176E+03</pdfrwt>
<totfact> 0.16192607E+05</totfact>
</mgrwt>
</event>
<event>
 8    1  0.9569852E-006  0.3211195E+03  0.7546771E-02  0.1075135E+00
         21   -1    0    0  504  503  0.00000000000E+00  0.00000000000E+00  0.99507721515E+02  0.99507721515E+02  0.00000000000E+00 0. -1.
         21   -1    0    0  503  504 -0.00000000000E+00 -0.00000000000E+00 -0.25906964907E+03  0.25906964907E+03  0.00000000000E+00 0. -1.
         25    2    1    2    0    0  0.96584135257E+02 -0.35693134629E+01 -0.11168293317E+03  0.19349421898E+03  0.12500280010E+03 0.  0.
         25    2    1    2    0    0 -0.96584135257E+02  0.35693134629E+01 -0.47878994381E+02  0.16508315161E+03  0.12497525219E+03 0.  0.
          5    1    3    3  501    0  0.12294387342E+03 -0.22623458040E+02 -0.90398178515E+02  0.15434033025E+03  0.47000000000E+01 0.  1.
         -5    1    3    3    0  501 -0.26359738158E+02  0.19054144577E+02 -0.21284754659E+02  0.39153888724E+02  0.47000000000E+01 0.  1.
          5    1    4    4  502    0 -0.65493907383E+01  0.13542513927E+02  0.37398667184E+02  0.40583796146E+02  0.47000000000E+01 0.  1.
         -5    1    4    4    0  502 -0.90034744519E+02 -0.99732004639E+01 -0.85277661565E+02  0.12449935546E+03  0.47000000000E+01 0.  1.
<mgrwt>
<rscale>  0 0.32111948E+03</rscale>
<asrwt>0</asrwt>
<pdfrwt beam="1">  1       21 0.15308881E-01 0.32111948E+03</pdfrwt>
<pdfrwt beam="2">  1       21 0.39856868E-01 0.32111948E+03</pdfrwt>
<totfact> 0.22204455E+05</totfact>
</mgrwt>
</event>
<event>
 8    1  0.9569852E-006  0.3548554E+03  0.7546771E-02  0.1060640E+00
         21   -1    0    0  504  503  0.00000000000E+00  0.00000000000E+00  0.12704357644E+03  0.12704357644E+03  0.00000000000E+00 0.  1.
         21   -1    0    0  503  504 -0.00000000000E+00 -0.00000000000E+00 -0.24779364019E+03  0.24779364019E+03  0.00000000000E+00 0.  1.
         25    2    1    2    0    0  0.61522135361E+02 -0.40470421615E+02 -0.16825949476E+03  0.22217560940E+03  0.12501166213E+03 0.  0.
         25    2    1    2    0    0 -0.61522135361E+02  0.40470421615E+02  0.47509431015E+02  0.15266160723E+03  0.12500236846E+03 0.  0.
          5    1    3    3  501    0 -0.29793482122E+02 -0.39679392144E+02 -0.84861647505E+02  0.98415928361E+02  0.47000000000E+01 0.  1.
         -5    1    3    3    0  501  0.91315617483E+02 -0.79102947165E+00 -0.83397847256E+02  0.12375968104E+03  0.47000000000E+01 0.  1.
          5    1    4    4  502    0 -0.37141909594E+02 -0.33634129191E+02  0.54515895033E+02  0.74194668986E+02  0.47000000000E+01 0. -1.
         -5    1    4    4    0  502 -0.24380225767E+02  0.74104550806E+02 -0.70064640178E+01  0.78466938240E+02  0.47000000000E+01 0. -1.
<mgrwt>
<rscale>  0 0.35485541E+03</rscale>
<asrwt>0</asrwt>
<pdfrwt beam="1">  1       21 0.19545166E-01 0.35485541E+03</pdfrwt>
<pdfrwt beam="2">  1       21 0.38122099E-01 0.35485541E+03</pdfrwt>
<totfact> 0.15304417E+05</totfact>
</mgrwt>
</event>
<event>
 8    1  0.9569852E-006  0.3585524E+03  0.7546771E-02  0.1059159E+00
         21   -1    0    0  504  503  0.00000000000E+00  0.00000000000E+00  0.23843945621E+03  0.23843945621E+03  0.00000000000E+00 0. -1.
         21   -1    0    0  503  504 -0.00000000000E+00 -0.00000000000E+00 -0.13479291425E+03  0.13479291425E+03  0.00000000000E+00 0. -1.
         25    2    1    2    0    0 -0.63611115399E+02  0.10492459749E+03  0.12050411848E+02  0.17556979978E+03  0.12499598797E+03 0.  0.
         25    2    1    2    0    0  0.63611115399E+02 -0.10492459749E+03  0.91596130106E+02  0.19766257068E+03  0.12500038255E+03 0.  0.
          5    1    3    3  501    0  0.23473197064E+02 -0.70680667288E+01  0.22007167137E+02  0.33276928240E+02  0.47000000000E+01 0. -1.
         -5    1    3    3    0  501 -0.87084312463E+02  0.11199266422E+03 -0.99567552885E+01  0.14229287154E+03  0.47000000000E+01 0. -1.
          5    1    4    4  502    0  0.27968627739E+02 -0.69157369426E+02  0.11861453107E+03  0.14020157939E+03  0.47000000000E+01 0. -1.
         -5    1    4    4    0  502  0.35642487659E+02 -0.35767228062E+02 -0.27018400960E+02  0.57460991292E+02  0.47000000000E+01 0. -1.
<mgrwt>
<rscale>  0 0.35855236E+03</rscale>
<asrwt>0</asrwt>
<pdfrwt beam="1">  1       21 0.36682993E-01 0.35855236E+03</pdfrwt>
<pdfrwt beam="2">  1       21 0.20737371E-01 0.35855236E+03</pdfrwt>
<totfact> 0.14780068E+05</totfact>
</mgrwt>
</event>
<event>
 8    1  0.9569852E-006  0.2559812E+03  0.7546771E-02  0.1109582E+00
         21   -1    0    0  504  503  0.00000000000E+00  0.00000000000E+00  0.61139074823E+03  0.61139074823E+03  0.00000000000E+00 0.  1.
         21   -1    0    0  503  504 -0.00000000000E+00 -0.00000000000E+00 -0.26793979337E+02  0.26793979337E+02  0.00000000000E+00 0.  1.
         25    2    1    2    0    0 -0.15878226238E+02 -0.32032655584E+01  0.34793711042E+03  0.37006322525E+03  0.12499671553E+03 0.  0.
         25    2    1    2    0    0  0.15878226238E+02  0.32032655584E+01  0.23665965848E+03  0.26812150233E+03  0.12497586599E+03 0.  0.
          5    1    3    3  501    0  0.17443370405E+02 -0.58545229201E+02  0.17036473152E+03  0.18104708443E+03  0.47000000000E+01 0. -1.
         -5    1    3    3    0  501 -0.33321596643E+02  0.55341963642E+02  0.17757237890E+03  0.18901614082E+03  0.47000000000E+01 0. -1.
          5    1    4    4  502    0 -0.36567642594E+02 -0.39566050312E+02  0.72106361050E+02  0.90133690294E+02  0.47000000000E+01 0.  1.
         -5    1    4    4    0  502  0.52445868832E+02  0.42769315870E+02  0.16455329743E+03  0.17798781203E+03  0.47000000000E+01 0.  1.
<mgrwt>
<rscale>  0 0.25598118E+03</rscale>
<asrwt>0</asrwt>
<pdfrwt beam="1">  1       21 0.94060105E-01 0.25598118E+03</pdfrwt>
<pdfrwt beam="2">  1       21 0.41221511E-02 0.25598118E+03</pdfrwt>
<totfact> 0.34736148E+05</totfact>
</mgrwt>
</event>
<event>
 8    1  0.9569852E-006  0.3162424E+03  0.7546771E-02  0.1077392E+00
         21   -1    0    0  504  503  0.00000000000E+00  0.00000000000E+00  0.12157317298E+03  0.12157317298E+03  0.00000000000E+00 0.  1.
         21   -1    0    0  503  504 -0.00000000000E+00 -0.00000000000E+00 -0.20565654411E+03  0.20565654411E+03  0.00000000000E+00 0.  1.
         25    2    1    2    0    0  0.17252544436E+02 -0.77956342915E+02 -0.98753790636E+02  0.17818652700E+03  0.12499314201E+03 0.  0.
         25    2    1    2    0    0 -0.17252544436E+02  0.77956342915E+02  0.14670419506E+02  0.14904319010E+03  0.12499523838E+03 0.  0.
          5    1    3    3  501    0  0.18246380746E+01 -0.11075029152E+03 -0.82483302876E+02  0.13818300051E+03  0.47000000000E+01 0. -1.
         -5    1    3    3    0  501  0.15427906362E+02  0.32793948605E+02 -0.16270487760E+02  0.40003526491E+02  0.47000000000E+01 0. -1.
          5    1    4    4  502    0 -0.13693318882E+02  0.36793075075E+02  0.69661220421E+02  0.80100018639E+02  0.47000000000E+01 0.  1.
         -5    1    4    4    0  502 -0.35592255542E+01  0.41163267840E+02 -0.54990800915E+02  0.68943171461E+02  0.47000000000E+01 0.  1.
<mgrwt>
<rscale>  0 0.31624243E+03</rscale>
<asrwt>0</asrwt>
<pdfrwt beam="1">  1       21 0.18703565E-01 0.31624243E+03</pdfrwt>
<pdfrwt beam="2">  1       21 0.31639468E-01 0.31624243E+03</pdfrwt>
<totfact> 0.24370222E+05</totfact>
</mgrwt>
</event>
<event>
 8    1  0.9569852E-006  0.3844942E+03  0.7546771E-02  0.1049285E+00
         21   -1    0    0  504  503  0.00000000000E+00  0.00000000000E+00  0.23219228320E+03  0.23219228320E+03  0.00000000000E+00 0.  1.
         21   -1    0    0  503  504 -0.00000000000E+00 -0.00000000000E+00 -0.15917388963E+03  0.15917388963E+03  0.00000000000E+00 0.  1.
         25    2    1    2    0    0  0.17879543989E+02 -0.34525305556E+02  0.17981971802E+03  0.22242214121E+03  0.12499921237E+03 0.  0.
         25    2    1    2    0    0 -0.17879543989E+02  0.34525305556E+02 -0.10680132446E+03  0.16894403162E+03  0.12499555230E+03 0.  0.
          5    1    3    3  501    0  0.10281022917E+02 -0.81522469296E+02  0.12502363026E+03  0.14968169747E+03  0.47000000000E+01 0.  1.
         -5    1    3    3    0  501  0.75985210725E+01  0.46997163740E+02  0.54796087760E+02  0.72740443742E+02  0.47000000000E+01 0.  1.
          5    1    4    4  502    0 -0.46854230264E+01 -0.46543410634E+02 -0.51951094893E+02  0.70066029735E+02  0.47000000000E+01 0. -1.
         -5    1    4    4    0  502 -0.13194120963E+02  0.81068716189E+02 -0.54850229570E+02  0.98878001884E+02  0.47000000000E+01 0. -1.
<mgrwt>
<rscale>  0 0.38449421E+03</rscale>
<asrwt>0</asrwt>
<pdfrwt beam="1">  1       21 0.35721890E-01 0.38449421E+03</pdfrwt>
<pdfrwt beam="2">  1       21 0.24488291E-01 0.38449421E+03</pdfrwt>
<totfact> 0.11277056E+05</totfact>
</mgrwt>
</event>
<event>
 8    1  0.9569852E-006  0.4006858E+03  0.7546771E-02  0.1043542E+00
         21   -1    0    0  504  503  0.00000000000E+00  0.00000000000E+00  0.53299958056E+03  0.53299958056E+03  0.00000000000E+00 0. -1.
         21   -1    0    0  503  504 -0.00000000000E+00 -0.00000000000E+00 -0.75304514775E+02  0.75304514775E+02  0.00000000000E+00 0. -1.
         25    2    1    2    0    0  0.24292211325E+02  0.13041473468E+03  0.10260223403E+03  0.20916387979E+03  0.12499678248E+03 0.  0.
         25    2    1    2    0    0 -0.24292211325E+02 -0.13041473468E+03  0.35509283176E+03  0.39914021555E+03  0.12499551171E+03 0.  0.
          5    1    3    3  501    0  0.56884720048E+01 -0.13117318751E+02 -0.16013435969E+02  0.21975961788E+02  0.47000000000E+01 0. -1.
         -5    1    3    3    0  501  0.18603739320E+02  0.14353205343E+03  0.11861567000E+03  0.18718791800E+03  0.47000000000E+01 0. -1.
          5    1    4    4  502    0 -0.73609920714E+02 -0.80473421557E+02  0.24859659158E+03  0.27150828229E+03  0.47000000000E+01 0.  1.
         -5    1    4    4    0  502  0.49317709389E+02 -0.49941313119E+02  0.10649624018E+03  0.12763193326E+03  0.47000000000E+01 0.  1.
<mgrwt>
<rscale>  0 0.40068579E+03</rscale>
<asrwt>0</asrwt>
<pdfrwt beam="1">  1       21 0.81999933E-01 0.40068579E+03</pdfrwt>
<pdfrwt beam="2">  1       21 0.11585310E-01 0.40068579E+03</pdfrwt>
<totfact> 0.76039718E+04</totfact>
</mgrwt>
</event>
<event>
 8    1  0.9569852E-006  0.2935917E+03  0.7546771E-02  0.1088489E+00
         21   -1    0    0  504  503  0.00000000000E+00  0.00000000000E+00  0.19902318368E+03  0.19902318368E+03  0.00000000000E+00 0. -1.
         21   -1    0    0  503  504 -0.00000000000E+00 -0.00000000000E+00 -0.10827393994E+03  0.10827393994E+03  0.00000000000E+00 0. -1.
         25    2    1    2    0    0  0.67733616064E+02 -0.36308305882E+02  0.40982637243E+02  0.15235091484E+03  0.12500035550E+03 0.  0.
         25    2    1    2    0    0 -0.67733616064E+02  0.36308305882E+02  0.49766606503E+02  0.15494620878E+03  0.12500190668E+03 0.  0.
          5    1    3    3  501    0  0.15221732438E+02  0.34651142155E+02  0.50671538063E+02  0.63420009151E+02  0.47000000000E+01 0.  1.
         -5    1    3    3    0  501  0.52511883626E+02 -0.70959448037E+02 -0.96889008198E+01  0.88930905690E+02  0.47000000000E+01 0.  1.
          5    1    4    4  502    0 -0.13627835358E+02 -0.98541428053E+01  0.76765569678E+02  0.78726518499E+02  0.47000000000E+01 0.  1.
         -5    1    4    4    0  502 -0.54105780706E+02  0.46162448688E+02 -0.26998963175E+02  0.76219690285E+02  0.47000000000E+01 0.  1.
<mgrwt>
<rscale>  0 0.29359172E+03</rscale>
<asrwt>0</asrwt>
<pdfrwt beam="1">  1       21 0.30618951E-01 0.29359172E+03</pdfrwt>
<pdfrwt beam="2">  1       21 0.16657529E-01 0.29359172E+03</pdfrwt>
<totfact> 0.32418542E+05</totfact>
</mgrwt>
</event>
<event>
 8    1  0.9569852E-006  0.2644689E+03  0.7546771E-02  0.1104488E+00
         21   -1    0    0  504  503  0.00000000000E+00  0.00000000000E+00  0.26402716527E+03  0.26402716527E+03  0.00000000000E+00 0. -1.
         21   -1    0    0  503  504 -0.00000000000E+00 -0.00000000000E+00 -0.66227845230E+02  0.66227845230E+02  0.00000000000E+00 0. -1.
         25    2    1    2    0    0 -0.21709945966E+02  0.60111809970E+01  0.14483445303E+03  0.19264014968E+03  0.12500300970E+03 0.  0.
         25    2    1    2    0    0  0.21709945966E+02 -0.60111809970E+01  0.52964867004E+02  0.13761486082E+03  0.12500046692E+03 0.  0.
          5    1    3    3  501    0  0.45714691784E+02 -0.20064807200E+02  0.35328659982E+02  0.61340310963E+02  0.47000000000E+01 0.  1.
         -5    1    3    3    0  501 -0.67424637749E+02  0.26075988197E+02  0.10950579305E+03  0.13129983872E+03  0.47000000000E+01 0.  1.
          5    1    4    4  502    0  0.51561715146E+02  0.20680301647E+02  0.73591257855E+02  0.92325774178E+02  0.47000000000E+01 0. -1.
         -5    1    4    4    0  502 -0.29851769180E+02 -0.26691482644E+02 -0.20626390851E+02  0.45289086637E+02  0.47000000000E+01 0. -1.
<mgrwt>
<rscale>  0 0.26446890E+03</rscale>
<asrwt>0</asrwt>
<pdfrwt beam="1">  1       21 0.40619563E-01 0.26446890E+03</pdfrwt>
<pdfrwt beam="2">  1       21 0.10188899E-01 0.26446890E+03</pdfrwt>
<totfact> 0.45167790E+05</totfact>
</mgrwt>
</event>
<event>
 8    1  0.9569852E-006  0.2717454E+03  0.7546771E-02  0.1100285E+00
         21   -1    0    0  504  503  0.00000000000E+00  0.00000000000E+00  0.28664928288E+02  0.28664928288E+02  0.00000000000E+00 0.  1.
         21   -1    0    0  503  504 -0.00000000000E+00 -0.00000000000E+00 -0.64404084636E+03  0.64404084636E+03  0.00000000000E+00 0.  1.
         25    2    1    2    0    0 -0.23708905214E+02  0.47577486564E+02 -0.31569880532E+03  0.34368064592E+03  0.12499968513E+03 0.  0.
         25    2    1    2    0    0  0.23708905214E+02 -0.47577486564E+02 -0.29967711275E+03  0.32902512873E+03  0.12500173605E+03 0.  0.
          5    1    3    3  501    0  0.22621000543E+02  0.16626048172E+02 -0.61487574197E+01  0.29120995196E+02  0.47000000000E+01 0.  1.
         -5    1    3    3    0  501 -0.46329905757E+02  0.30951438392E+02 -0.30955004790E+03  0.31455965072E+03  0.47000000000E+01 0.  1.
          5    1    4    4  502    0 -0.19330797309E+02 -0.27467819471E+02 -0.98838180000E+01  0.35326204004E+02  0.47000000000E+01 0.  1.
         -5    1    4    4    0  502  0.43039702523E+02 -0.20109667093E+02 -0.28979329475E+03  0.29369892473E+03  0.47000000000E+01 0.  1.
<mgrwt>
<rscale>  0 0.27174536E+03</rscale>
<asrwt>0</asrwt>
<pdfrwt beam="1">  1       21 0.44099893E-02 0.27174536E+03</pdfrwt>
<pdfrwt beam="2">  1       21 0.99083200E-01 0.27174536E+03</pdfrwt>
<totfact> 0.27284254E+05</totfact>
</mgrwt>
</event>
<event>
 8    1  0.9569852E-006  0.3240917E+03  0.7546771E-02  0.1073781E+00
         21   -1    0    0  504  503  0.00000000000E+00  0.00000000000E+00  0.29685897459E+02  0.29685897459E+02  0.00000000000E+00 0.  1.
         21   -1    0    0  503  504 -0.00000000000E+00 -0.00000000000E+00 -0.88455668900E+03  0.88455668900E+03  0.00000000000E+00 0.  1.
         25    2    1    2    0    0  0.76686783171E+02  0.44186734216E+02 -0.27830956336E+03  0.31768484112E+03  0.12503645478E+03 0.  0.
         25    2    1    2    0    0 -0.76686783171E+02 -0.44186734216E+02 -0.57656122818E+03  0.59655774534E+03  0.12499985398E+03 0.  0.
          5    1    3    3  501    0  0.69088532598E+02  0.37087552515E+02 -0.59415871422E+02  0.98493896587E+02  0.47000000000E+01 0. -1.
         -5    1    3    3    0  501  0.75982505728E+01  0.70991817007E+01 -0.21889369194E+03  0.21919094453E+03  0.47000000000E+01 0. -1.
          5    1    4    4  502    0  0.26603473225E+02  0.17031916209E+02 -0.15206236255E+03  0.15537980262E+03  0.47000000000E+01 0.  1.
         -5    1    4    4    0  502 -0.10329025640E+03 -0.61218650425E+02 -0.42449886563E+03  0.44117794272E+03  0.47000000000E+01 0.  1.
<mgrwt>
<rscale>  0 0.32409171E+03</rscale>
<asrwt>0</asrwt>
<pdfrwt beam="1">  1       21 0.45670619E-02 0.32409171E+03</pdfrwt>
<pdfrwt beam="2">  1       21 0.13608562E+00 0.32409171E+03</pdfrwt>
<totfact> 0.11502223E+05</totfact>
</mgrwt>
</event>
<event>
 8    1  0.9569852E-006  0.3290658E+03  0.7546771E-02  0.1071551E+00
         21   -1    0    0  504  503  0.00000000000E+00  0.00000000000E+00  0.34100684600E+03  0.34100684600E+03  0.00000000000E+00 0. -1.
         21   -1    0    0  503  504 -0.00000000000E+00 -0.00000000000E+00 -0.79385717478E+02  0.79385717478E+02  0.00000000000E+00 0. -1.
         25    2    1    2    0    0  0.42165613226E+02 -0.34730202833E+02  0.13290275045E+02  0.13706147711E+03  0.12500036467E+03 0.  0.
         25    2    1    2    0    0 -0.42165613226E+02  0.34730202833E+02  0.24833085347E+03  0.28333108637E+03  0.12499666311E+03 0.  0.
          5    1    3    3  501    0 -0.40740945441E+02 -0.34147566492E+02  0.44981491175E+01  0.53555618550E+02  0.47000000000E+01 0.  1.
         -5    1    3    3    0  501  0.82906558667E+02 -0.58263634057E+00  0.87921259278E+01  0.83505858558E+02  0.47000000000E+01 0.  1.
          5    1    4    4  502    0 -0.66253326997E+02  0.67857294228E+02  0.18055926721E+03  0.20400454576E+03  0.47000000000E+01 0.  1.
         -5    1    4    4    0  502  0.24087713771E+02 -0.33127091395E+02  0.67771586266E+02  0.79326540603E+02  0.47000000000E+01 0.  1.
<mgrwt>
<rscale>  0 0.32906579E+03</rscale>
<asrwt>0</asrwt>
<pdfrwt beam="1">  1       21 0.52462591E-01 0.32906579E+03</pdfrwt>
<pdfrwt beam="2">  1       21 0.12213187E-01 0.32906579E+03</pdfrwt>
<totfact> 0.18894728E+05</totfact>
</mgrwt>
</event>
<event>
 8    1  0.9569852E-006  0.3123727E+03  0.7546771E-02  0.1079214E+00
         21   -1    0    0  504  503  0.00000000000E+00  0.00000000000E+00  0.10324475695E+04  0.10324475695E+04  0.00000000000E+00 0. -1.
         21   -1    0    0  503  504 -0.00000000000E+00 -0.00000000000E+00 -0.23627520192E+02  0.23627520192E+02  0.00000000000E+00 0. -1.
         25    2    1    2    0    0 -0.71424911805E+02 -0.37853515925E+02  0.66424785749E+03  0.68072354820E+03  0.12499970482E+03 0.  0.
         25    2    1    2    0    0  0.71424911805E+02  0.37853515925E+02  0.34457219180E+03  0.37535154147E+03  0.12499751049E+03 0.  0.
          5    1    3    3  501    0 -0.63753941560E+02  0.27499470085E+02  0.48006754529E+03  0.48508527494E+03  0.47000000000E+01 0. -1.
         -5    1    3    3    0  501 -0.76709702451E+01 -0.65352986009E+02  0.18418031220E+03  0.19563827326E+03  0.47000000000E+01 0. -1.
          5    1    4    4  502    0 -0.12213391960E+02 -0.12669104964E+01 -0.47668792808E+01  0.13985175847E+02  0.47000000000E+01 0.  1.
         -5    1    4    4    0  502  0.83638303766E+02  0.39120426421E+02  0.34933907108E+03  0.36136636563E+03  0.47000000000E+01 0.  1.
<mgrwt>
<rscale>  0 0.31237270E+03</rscale>
<asrwt>0</asrwt>
<pdfrwt beam="1">  1       21 0.15883805E+00 0.31237270E+03</pdfrwt>
<pdfrwt beam="2">  1       21 0.36350039E-02 0.31237270E+03</pdfrwt>
<totfact> 0.11251416E+05</totfact>
</mgrwt>
</event>
<event>
 8    1  0.9569852E-006  0.2779638E+03  0.7546771E-02  0.1096806E+00
         21   -1    0    0  504  503  0.00000000000E+00  0.00000000000E+00  0.63773923792E+02  0.63773923792E+02  0.00000000000E+00 0. -1.
         21   -1    0    0  503  504 -0.00000000000E+00 -0.00000000000E+00 -0.30288196157E+03  0.30288196157E+03  0.00000000000E+00 0. -1.
         25    2    1    2    0    0  0.46945444789E+02  0.33443111234E+02 -0.94212818331E+02  0.16680023018E+03  0.12499578063E+03 0.  0.
         25    2    1    2    0    0 -0.46945444789E+02 -0.33443111234E+02 -0.14489521945E+03  0.19985565519E+03  0.12500136725E+03 0.  0.
          5    1    3    3  501    0  0.48229627427E+02  0.36069452169E+02  0.11033976970E+02  0.61407987993E+02  0.47000000000E+01 0.  1.
         -5    1    3    3    0  501 -0.12841826383E+01 -0.26263409355E+01 -0.10524679530E+03  0.10539224219E+03  0.47000000000E+01 0.  1.
          5    1    4    4  502    0 -0.13700436758E+02  0.33024325685E+02 -0.11341267891E+03  0.11900770476E+03  0.47000000000E+01 0. -1.
         -5    1    4    4    0  502 -0.33245008031E+02 -0.66467436919E+02 -0.31482540540E+02  0.80847950428E+02  0.47000000000E+01 0. -1.
<mgrwt>
<rscale>  0 0.27796382E+03</rscale>
<asrwt>0</asrwt>
<pdfrwt beam="1">  1       21 0.98113728E-02 0.27796382E+03</pdfrwt>
<pdfrwt beam="2">  1       21 0.46597225E-01 0.27796382E+03</pdfrwt>
<totfact> 0.36309536E+05</totfact>
</mgrwt>
</event>
<event>
 8    1  0.9569852E-006  0.2582022E+03  0.7546771E-02  0.1108228E+00
         21   -1    0    0  504  503  0.00000000000E+00  0.00000000000E+00  0.12684557069E+03  0.12684557069E+03  0.00000000000E+00 0.  1.
         21   -1    0    0  503  504 -0.00000000000E+00 -0.00000000000E+00 -0.13139671657E+03  0.13139671657E+03  0.00000000000E+00 0.  1.
         25    2    1    2    0    0  0.30364511006E+02  0.22844248715E+00  0.86904542692E+01  0.12892476462E+03  0.12499606083E+03 0.  0.
         25    2    1    2    0    0 -0.30364511006E+02 -0.22844248715E+00 -0.13241600152E+02  0.12931752263E+03  0.12500250386E+03 0.  0.
          5    1    3    3  501    0 -0.11551084614E+02  0.10672113514E+02  0.59700952310E+02  0.61916195533E+02  0.47000000000E+01 0. -1.
         -5    1    3    3    0  501  0.41915595620E+02 -0.10443671027E+02 -0.51010498041E+02  0.67008569086E+02  0.47000000000E+01 0. -1.
          5    1    4    4  502    0 -0.31828064378E+02 -0.35742728534E+02  0.41740387151E+02  0.63678239962E+02  0.47000000000E+01 0.  1.
         -5    1    4    4    0  502  0.14635533726E+01  0.35514286047E+02 -0.54981987303E+02  0.65639282672E+02  0.47000000000E+01 0.  1.
<mgrwt>
<rscale>  0 0.25820218E+03</rscale>
<asrwt>0</asrwt>
<pdfrwt beam="1">  1       21 0.19514703E-01 0.25820218E+03</pdfrwt>
<pdfrwt beam="2">  1       21 0.20214880E-01 0.25820218E+03</pdfrwt>
<totfact> 0.54020945E+05</totfact>
</mgrwt>
</event>
<event>
 8    1  0.9569852E-006  0.2709114E+03  0.7546771E-02  0.1100759E+00
         21   -1    0    0  504  503  0.00000000000E+00  0.00000000000E+00  0.51092978856E+02  0.51092978856E+02  0.00000000000E+00 0. -1.
         21   -1    0    0  503  504 -0.00000000000E+00 -0.00000000000E+00 -0.35911483897E+03  0.35911483897E+03  0.00000000000E+00 0. -1.
         25    2    1    2    0    0  0.42198006473E+01 -0.31675053769E+02 -0.21640801217E+03  0.25196932315E+03  0.12503997892E+03 0.  0.
         25    2    1    2    0    0 -0.42198006473E+01  0.31675053769E+02 -0.91613847941E+02  0.15823849467E+03  0.12500083325E+03 0.  0.
          5    1    3    3  501    0  0.14485216493E+02 -0.50573450173E+02 -0.23498844869E+02  0.57808140165E+02  0.47000000000E+01 0.  1.
         -5    1    3    3    0  501 -0.10265415845E+02  0.18898396404E+02 -0.19290916730E+03  0.19416118298E+03  0.47000000000E+01 0.  1.
          5    1    4    4  502    0  0.34709929241E+02  0.67036290493E+02 -0.46480825648E+02  0.88776126205E+02  0.47000000000E+01 0. -1.
         -5    1    4    4    0  502 -0.38929729888E+02 -0.35361236725E+02 -0.45133022293E+02  0.69462368468E+02  0.47000000000E+01 0. -1.
<mgrwt>
<rscale>  0 0.27091140E+03</rscale>
<asrwt>0</asrwt>
<pdfrwt beam="1">  1       21 0.78604582E-02 0.27091140E+03</pdfrwt>
<pdfrwt beam="2">  1       21 0.55248437E-01 0.27091140E+03</pdfrwt>
<totfact> 0.37553846E+05</totfact>
</mgrwt>
</event>
<event>
 8    1  0.9569852E-006  0.3584153E+03  0.7546771E-02  0.1059213E+00
         21   -1    0    0  504  503  0.00000000000E+00  0.00000000000E+00  0.22513342153E+03  0.22513342153E+03  0.00000000000E+00 0.  1.
         21   -1    0    0  503  504 -0.00000000000E+00 -0.00000000000E+00 -0.14265043344E+03  0.14265043344E+03  0.00000000000E+00 0.  1.
         25    2    1    2    0    0  0.95526820339E+02  0.19824682518E+02 -0.44448933470E+02  0.16467860810E+03  0.12499977935E+03 0.  0.
         25    2    1    2    0    0 -0.95526820339E+02 -0.19824682518E+02  0.12693192155E+03  0.20310524687E+03  0.12498654790E+03 0.  0.
          5    1    3    3  501    0 -0.12337796247E+02 -0.25006665142E+02  0.16603267409E+02  0.32791965577E+02  0.47000000000E+01 0.  1.
         -5    1    3    3    0  501  0.10786461659E+03  0.44831347660E+02 -0.61052200879E+02  0.13188664252E+03  0.47000000000E+01 0.  1.
          5    1    4    4  502    0 -0.78490011039E+02 -0.20684675958E+02  0.67033623329E+01  0.81581632240E+02  0.47000000000E+01 0.  1.
         -5    1    4    4    0  502 -0.17036809300E+02  0.85999344002E+00  0.12022855922E+03  0.12152361463E+03  0.47000000000E+01 0.  1.
<mgrwt>
<rscale>  0 0.35841529E+03</rscale>
<asrwt>0</asrwt>
<pdfrwt beam="1">  1       21 0.34635911E-01 0.35841529E+03</pdfrwt>
<pdfrwt beam="2">  1       21 0.21946221E-01 0.35841529E+03</pdfrwt>
<totfact> 0.14897785E+05</totfact>
</mgrwt>
</event>
<event>
 8    1  0.9569852E-006  0.5471478E+03  0.7546771E-02  0.1002156E+00
         21   -1    0    0  504  503  0.00000000000E+00  0.00000000000E+00  0.55776780979E+02  0.55776780979E+02  0.00000000000E+00 0. -1.
         21   -1    0    0  503  504 -0.00000000000E+00 -0.00000000000E+00 -0.13418251626E+04  0.13418251626E+04  0.00000000000E+00 0. -1.
         25    2    1    2    0    0  0.58903515994E+02 -0.23568248256E+03 -0.60657973339E+03  0.66526363256E+03  0.12498348318E+03 0.  0.
         25    2    1    2    0    0 -0.58903515994E+02  0.23568248256E+03 -0.67946864825E+03  0.73233831104E+03  0.12500360425E+03 0.  0.
          5    1    3    3  501    0  0.27067551725E+02 -0.23916877463E+03 -0.52912905005E+03  0.58132090683E+03  0.47000000000E+01 0.  1.
         -5    1    3    3    0  501  0.31835964269E+02  0.34862920653E+01 -0.77450683344E+02  0.83942725735E+02  0.47000000000E+01 0.  1.
          5    1    4    4  502    0 -0.80984197255E+02  0.10002040894E+03 -0.24741470241E+03  0.27892408891E+03  0.47000000000E+01 0. -1.
         -5    1    4    4    0  502  0.22080681262E+02  0.13566207362E+03 -0.43205394585E+03  0.45341422212E+03  0.47000000000E+01 0. -1.
<mgrwt>
<rscale>  0 0.54714783E+03</rscale>
<asrwt>0</asrwt>
<pdfrwt beam="1">  1       21 0.85810438E-02 0.54714783E+03</pdfrwt>
<pdfrwt beam="2">  1       21 0.20643463E+00 0.54714783E+03</pdfrwt>
<totfact> 0.10958165E+04</totfact>
</mgrwt>
</event>
<event>
 8    1  0.9569852E-006  0.3333855E+03  0.7546771E-02  0.1069649E+00
         21   -1    0    0  504  503  0.00000000000E+00  0.00000000000E+00  0.32041798824E+03  0.32041798824E+03  0.00000000000E+00 0.  1.
         21   -1    0    0  503  504 -0.00000000000E+00 -0.00000000000E+00 -0.86719454929E+02  0.86719454929E+02  0.00000000000E+00 0.  1.
         25    2    1    2    0    0 -0.38384855273E+02 -0.68707835043E+02  0.21113935351E+03  0.25769784309E+03  0.12503674667E+03 0.  0.
         25    2    1    2    0    0  0.38384855273E+02  0.68707835043E+02  0.22559179803E+02  0.14943960009E+03  0.12501645400E+03 0.  0.
          5    1    3    3  501    0  0.96686395530E+01  0.28389303157E+02  0.15666156859E+02  0.34160702500E+02  0.47000000000E+01 0. -1.
         -5    1    3    3    0  501 -0.48053494826E+02 -0.97097138200E+02  0.19547319665E+03  0.22353714059E+03  0.47000000000E+01 0. -1.
          5    1    4    4  502    0  0.62986729486E+02  0.45942673732E+02 -0.32672596137E+02  0.84661950718E+02  0.47000000000E+01 0.  1.
         -5    1    4    4    0  502 -0.24601874213E+02  0.22765161312E+02  0.55231775940E+02  0.64777649370E+02  0.47000000000E+01 0.  1.
<mgrwt>
<rscale>  0 0.33338550E+03</rscale>
<asrwt>0</asrwt>
<pdfrwt beam="1">  1       21 0.49295074E-01 0.33338550E+03</pdfrwt>
<pdfrwt beam="2">  1       21 0.13341455E-01 0.33338550E+03</pdfrwt>
<totfact> 0.18340448E+05</totfact>
</mgrwt>
</event>
<event>
 8    1  0.9569852E-006  0.3415446E+03  0.7546771E-02  0.1066140E+00
         21   -1    0    0  504  503  0.00000000000E+00  0.00000000000E+00  0.63731129726E+02  0.63731129726E+02  0.00000000000E+00 0.  1.
         21   -1    0    0  503  504 -0.00000000000E+00 -0.00000000000E+00 -0.45759697991E+03  0.45759697991E+03  0.00000000000E+00 0.  1.
         25    2    1    2    0    0 -0.37063668369E+01  0.53032102314E+02 -0.38950905310E+02  0.14130885224E+03  0.12499951067E+03 0.  0.
         25    2    1    2    0    0  0.37063668369E+01 -0.53032102314E+02 -0.35491494487E+03  0.38001925739E+03  0.12499550737E+03 0.  0.
          5    1    3    3  501    0  0.16537945710E+02  0.32134846494E+01  0.41152389991E+02  0.44715090673E+02  0.47000000000E+01 0. -1.
         -5    1    3    3    0  501 -0.20244312547E+02  0.49818617664E+02 -0.80103295301E+02  0.96593761572E+02  0.47000000000E+01 0. -1.
          5    1    4    4  502    0 -0.26741224191E+02 -0.68389414099E+01 -0.86125457440E+01  0.29293858316E+02  0.47000000000E+01 0.  1.
         -5    1    4    4    0  502  0.30447591028E+02 -0.46193160904E+02 -0.34630239913E+03  0.35072539907E+03  0.47000000000E+01 0.  1.
<mgrwt>
<rscale>  0 0.34154457E+03</rscale>
<asrwt>0</asrwt>
<pdfrwt beam="1">  1       21 0.98047889E-02 0.34154457E+03</pdfrwt>
<pdfrwt beam="2">  1       21 0.70399537E-01 0.34154457E+03</pdfrwt>
<totfact> 0.14727338E+05</totfact>
</mgrwt>
</event>
<event>
 8    1  0.9569852E-006  0.3338250E+03  0.7546771E-02  0.1069457E+00
         21   -1    0    0  504  503  0.00000000000E+00  0.00000000000E+00  0.22622056485E+04  0.22622056485E+04  0.00000000000E+00 0. -1.
         21   -1    0    0  503  504 -0.00000000000E+00 -0.00000000000E+00 -0.12315317442E+02  0.12315317442E+02  0.00000000000E+00 0. -1.
         25    2    1    2    0    0  0.27840512282E+02 -0.10044322575E+03  0.87270097160E+03  0.88774823124E+03  0.12500400195E+03 0.  0.
         25    2    1    2    0    0 -0.27840512282E+02  0.10044322575E+03  0.13771893595E+04  0.13867727347E+04  0.12499660079E+03 0.  0.
          5    1    3    3  501    0 -0.24194392371E+02 -0.58068488794E+01  0.47329429055E+03  0.47397116324E+03  0.47000000000E+01 0. -1.
         -5    1    3    3    0  501  0.52034904653E+02 -0.94636376867E+02  0.39940668105E+03  0.41377706799E+03  0.47000000000E+01 0. -1.
          5    1    4    4  502    0 -0.71604129176E+02  0.34487067353E+02  0.83969541213E+03  0.84346131167E+03  0.47000000000E+01 0.  1.
         -5    1    4    4    0  502  0.43763616894E+02  0.65956158393E+02  0.53749394735E+03  0.54331142306E+03  0.47000000000E+01 0.  1.
<mgrwt>
<rscale>  0 0.33382499E+03</rscale>
<asrwt>0</asrwt>
<pdfrwt beam="1">  1       21 0.34803131E+00 0.33382499E+03</pdfrwt>
<pdfrwt beam="2">  1       21 0.18946660E-02 0.33382499E+03</pdfrwt>
<totfact> 0.21490626E+04</totfact>
</mgrwt>
</event>
<event>
 8    1  0.9569852E-006  0.3965413E+03  0.7546771E-02  0.1044984E+00
         21   -1    0    0  504  503  0.00000000000E+00  0.00000000000E+00  0.55166622575E+02  0.55166622575E+02  0.00000000000E+00 0. -1.
         21   -1    0    0  503  504 -0.00000000000E+00 -0.00000000000E+00 -0.71259130317E+03  0.71259130317E+03  0.00000000000E+00 0. -1.
         25    2    1    2    0    0  0.25290247585E+02 -0.93185551752E+02 -0.96669475292E+02  0.18518252438E+03  0.12499774479E+03 0.  0.
         25    2    1    2    0    0 -0.25290247585E+02  0.93185551752E+02 -0.56075520530E+03  0.58257540137E+03  0.12499821730E+03 0.  0.
          5    1    3    3  501    0  0.20375540438E+02 -0.12370187988E+03 -0.67691149706E+02  0.14255349691E+03  0.47000000000E+01 0.  1.
         -5    1    3    3    0  501  0.49147071466E+01  0.30516328127E+02 -0.28978325586E+02  0.42629027463E+02  0.47000000000E+01 0.  1.
          5    1    4    4  502    0  0.30615161207E+01  0.70940064793E+02 -0.11428955972E+03  0.13463305365E+03  0.47000000000E+01 0. -1.
         -5    1    4    4    0  502 -0.28351763706E+02  0.22245486959E+02 -0.44646564558E+03  0.44794234771E+03  0.47000000000E+01 0. -1.
<mgrwt>
<rscale>  0 0.39654132E+03</rscale>
<asrwt>0</asrwt>
<pdfrwt beam="1">  1       21 0.84871736E-02 0.39654132E+03</pdfrwt>
<pdfrwt beam="2">  1       21 0.10962942E+00 0.39654132E+03</pdfrwt>
<totfact> 0.66404161E+04</totfact>
</mgrwt>
</event>
<event>
 8    1  0.9569852E-006  0.2895708E+03  0.7546771E-02  0.1090573E+00
         21   -1    0    0  504  503  0.00000000000E+00  0.00000000000E+00  0.19369810472E+02  0.19369810472E+02  0.00000000000E+00 0. -1.
         21   -1    0    0  503  504 -0.00000000000E+00 -0.00000000000E+00 -0.10822410968E+04  0.10822410968E+04  0.00000000000E+00 0. -1.
         25    2    1    2    0    0  0.49649660414E+02  0.53377999726E+02 -0.54903553022E+03  0.56778676573E+03  0.12500999262E+03 0.  0.
         25    2    1    2    0    0 -0.49649660414E+02 -0.53377999726E+02 -0.51383575615E+03  0.53382414159E+03  0.12500692064E+03 0.  0.
          5    1    3    3  501    0  0.15289771284E+02 -0.39834160206E+02 -0.21574425704E+03  0.21997320717E+03  0.47000000000E+01 0. -1.
         -5    1    3    3    0  501  0.34359889130E+02  0.93212159932E+02 -0.33329127318E+03  0.34781355856E+03  0.47000000000E+01 0. -1.
          5    1    4    4  502    0 -0.13244423198E+02 -0.90805569283E+02 -0.30771315430E+03  0.32113944243E+03  0.47000000000E+01 0.  1.
         -5    1    4    4    0  502 -0.36405237216E+02  0.37427569557E+02 -0.20612260185E+03  0.21268469915E+03  0.47000000000E+01 0.  1.
<mgrwt>
<rscale>  0 0.28957075E+03</rscale>
<asrwt>0</asrwt>
<pdfrwt beam="1">  1       21 0.29799712E-02 0.28957075E+03</pdfrwt>
<pdfrwt beam="2">  1       21 0.16649861E+00 0.28957075E+03</pdfrwt>
<totfact> 0.13891259E+05</totfact>
</mgrwt>
</event>
<event>
 8    1  0.9569852E-006  0.3081647E+03  0.7546771E-02  0.1081229E+00
         21   -1    0    0  504  503  0.00000000000E+00  0.00000000000E+00  0.59398409487E+02  0.59398409487E+02  0.00000000000E+00 0. -1.
         21   -1    0    0  503  504 -0.00000000000E+00 -0.00000000000E+00 -0.39969711655E+03  0.39969711655E+03  0.00000000000E+00 0. -1.
         25    2    1    2    0    0  0.23576412734E+02 -0.70807817387E+02 -0.94974285954E+02  0.17382697848E+03  0.12500443678E+03 0.  0.
         25    2    1    2    0    0 -0.23576412734E+02  0.70807817387E+02 -0.24532442111E+03  0.28526854755E+03  0.12499791354E+03 0.  0.
          5    1    3    3  501    0  0.13746754779E+02 -0.10457063225E+03 -0.88504086760E+02  0.13776448660E+03  0.47000000000E+01 0. -1.
         -5    1    3    3    0  501  0.98296579548E+01  0.33762814863E+02 -0.64701991944E+01  0.36062491880E+02  0.47000000000E+01 0. -1.
          5    1    4    4  502    0 -0.61904464300E+02  0.60938792193E+02 -0.22348839895E+03  0.23982254598E+03  0.47000000000E+01 0. -1.
         -5    1    4    4    0  502  0.38328051567E+02  0.98690251941E+01 -0.21836022152E+02  0.45446001569E+02  0.47000000000E+01 0. -1.
<mgrwt>
<rscale>  0 0.30816472E+03</rscale>
<asrwt>0</asrwt>
<pdfrwt beam="1">  1       21 0.91382170E-02 0.30816472E+03</pdfrwt>
<pdfrwt beam="2">  1       21 0.61491863E-01 0.30816472E+03</pdfrwt>
<totfact> 0.22678404E+05</totfact>
</mgrwt>
</event>
<event>
 8    1  0.9569852E-006  0.3789586E+03  0.7546771E-02  0.1051319E+00
         21   -1    0    0  504  503  0.00000000000E+00  0.00000000000E+00  0.23642013409E+03  0.23642013409E+03  0.00000000000E+00 0.  1.
         21   -1    0    0  503  504 -0.00000000000E+00 -0.00000000000E+00 -0.15185851728E+03  0.15185851728E+03  0.00000000000E+00 0.  1.
         25    2    1    2    0    0 -0.78877692451E+02 -0.10539488964E+03 -0.13331443204E+02  0.18203124064E+03  0.12501148771E+03 0.  0.
         25    2    1    2    0    0  0.78877692451E+02  0.10539488964E+03  0.97893060008E+02  0.20624741073E+03  0.12500068042E+03 0.  0.
          5    1    3    3  501    0 -0.11199471157E+03 -0.91610645030E+02 -0.47250887167E+01  0.14484385443E+03  0.47000000000E+01 0.  1.
         -5    1    3    3    0  501  0.33117019123E+02 -0.13784244611E+02 -0.86063544869E+01  0.37187386204E+02  0.47000000000E+01 0.  1.
          5    1    4    4  502    0  0.72901760192E+01 -0.26481846398E+02  0.31607414142E+02  0.42137316997E+02  0.47000000000E+01 0.  1.
         -5    1    4    4    0  502  0.71587516432E+02  0.13187673604E+03  0.66285645866E+02  0.16411009373E+03  0.47000000000E+01 0.  1.
<mgrwt>
<rscale>  0 0.37895863E+03</rscale>
<asrwt>0</asrwt>
<pdfrwt beam="1">  1       21 0.36372329E-01 0.37895863E+03</pdfrwt>
<pdfrwt beam="2">  1       21 0.23362849E-01 0.37895863E+03</pdfrwt>
<totfact> 0.11919998E+05</totfact>
</mgrwt>
</event>
<event>
 8    1  0.9569852E-006  0.2621752E+03  0.7546771E-02  0.1105843E+00
         21   -1    0    0  504  503  0.00000000000E+00  0.00000000000E+00  0.19604836033E+04  0.19604836033E+04  0.00000000000E+00 0. -1.
         21   -1    0    0  503  504 -0.00000000000E+00 -0.00000000000E+00 -0.87651633197E+01  0.87651633197E+01  0.00000000000E+00 0. -1.
         25    2    1    2    0    0  0.22472054026E+02  0.30878703048E+02  0.10500581135E+04  0.10581641047E+04  0.12502297070E+03 0.  0.
         25    2    1    2    0    0 -0.22472054026E+02 -0.30878703048E+02  0.90166032648E+03  0.91108466193E+03  0.12500171739E+03 0.  0.
          5    1    3    3  501    0  0.38468781566E+02  0.32522584275E+02  0.15703350936E+03  0.16498235877E+03  0.47000000000E+01 0.  1.
         -5    1    3    3    0  501 -0.15996727540E+02 -0.16438812272E+01  0.89302460418E+03  0.89318174595E+03  0.47000000000E+01 0.  1.
          5    1    4    4  502    0 -0.62735252728E+02  0.19665704984E+02  0.45620247341E+03  0.46093951732E+03  0.47000000000E+01 0. -1.
         -5    1    4    4    0  502  0.40263198702E+02 -0.50544408032E+02  0.44545785307E+03  0.45014514461E+03  0.47000000000E+01 0. -1.
<mgrwt>
<rscale>  0 0.26217520E+03</rscale>
<asrwt>0</asrwt>
<pdfrwt beam="1">  1       21 0.30161251E+00 0.26217520E+03</pdfrwt>
<pdfrwt beam="2">  1       21 0.13484882E-02 0.26217520E+03</pdfrwt>
<totfact> 0.73833812E+04</totfact>
</mgrwt>
</event>
<event>
 8    1  0.9569852E-006  0.3004979E+03  0.7546771E-02  0.1084992E+00
         21   -1    0    0  504  503  0.00000000000E+00  0.00000000000E+00  0.14318786244E+02  0.14318786244E+02  0.00000000000E+00 0.  1.
         21   -1    0    0  503  504 -0.00000000000E+00 -0.00000000000E+00 -0.15765824382E+04  0.15765824382E+04  0.00000000000E+00 0.  1.
         25    2    1    2    0    0 -0.17874680836E+02  0.39914360506E+02 -0.40538913846E+03  0.42647161156E+03  0.12500008597E+03 0.  0.
         25    2    1    2    0    0  0.17874680836E+02 -0.39914360506E+02 -0.11568745135E+04  0.11644296129E+04  0.12500009203E+03 0.  0.
          5    1    3    3  501    0  0.26765977391E+02  0.70504228143E+02 -0.19347391820E+03  0.20770534600E+03  0.47000000000E+01 0.  1.
         -5    1    3    3    0  501 -0.44640658227E+02 -0.30589867636E+02 -0.21191522026E+03  0.21876626556E+03  0.47000000000E+01 0.  1.
          5    1    4    4  502    0 -0.26134073870E+02  0.18891500706E+02 -0.10400775191E+03  0.10899349097E+03  0.47000000000E+01 0. -1.
         -5    1    4    4    0  502  0.44008754706E+02 -0.58805861212E+02 -0.10528667616E+04  0.10554361219E+04  0.47000000000E+01 0. -1.
<mgrwt>
<rscale>  0 0.30049790E+03</rscale>
<asrwt>0</asrwt>
<pdfrwt beam="1">  1       21 0.22028887E-02 0.30049790E+03</pdfrwt>
<pdfrwt beam="2">  1       21 0.24255131E+00 0.30049790E+03</pdfrwt>
<totfact> 0.72659953E+04</totfact>
</mgrwt>
</event>
<event>
 8    1  0.9569852E-006  0.2715071E+03  0.7546771E-02  0.1100420E+00
         21   -1    0    0  504  503  0.00000000000E+00  0.00000000000E+00  0.24911236649E+02  0.24911236649E+02  0.00000000000E+00 0.  1.
         21   -1    0    0  503  504 -0.00000000000E+00 -0.00000000000E+00 -0.73978773587E+03  0.73978773587E+03  0.00000000000E+00 0.  1.
         25    2    1    2    0    0 -0.98503387314E+01 -0.25178657627E+02 -0.22919692525E+03  0.26246236596E+03  0.12499707609E+03 0.  0.
         25    2    1    2    0    0  0.98503387314E+01  0.25178657627E+02 -0.48567957397E+03  0.50223660655E+03  0.12500386561E+03 0.  0.
          5    1    3    3  501    0 -0.16994479094E+02  0.39329653749E+02 -0.16690550733E+03  0.17238089326E+03  0.47000000000E+01 0. -1.
         -5    1    3    3    0  501  0.71441403630E+01 -0.64508311377E+02 -0.62291417915E+02  0.90081472702E+02  0.47000000000E+01 0. -1.
          5    1    4    4  502    0  0.13934841728E+02 -0.44938684201E+02 -0.29919912135E+03  0.30291231301E+03  0.47000000000E+01 0. -1.
         -5    1    4    4    0  502 -0.40845029964E+01  0.70117341828E+02 -0.18648045262E+03  0.19932429355E+03  0.47000000000E+01 0. -1.
<mgrwt>
<rscale>  0 0.27150711E+03</rscale>
<asrwt>0</asrwt>
<pdfrwt beam="1">  1       21 0.38324980E-02 0.27150711E+03</pdfrwt>
<pdfrwt beam="2">  1       21 0.11381350E+00 0.27150711E+03</pdfrwt>
<totfact> 0.24704872E+05</totfact>
</mgrwt>
</event>
<event>
 8    1  0.9569852E-006  0.3036276E+03  0.7546771E-02  0.1083441E+00
         21   -1    0    0  504  503  0.00000000000E+00  0.00000000000E+00  0.83555004652E+03  0.83555004652E+03  0.00000000000E+00 0.  1.
         21   -1    0    0  503  504 -0.00000000000E+00 -0.00000000000E+00 -0.27583540775E+02  0.27583540775E+02  0.00000000000E+00 0.  1.
         25    2    1    2    0    0 -0.57780484327E+02  0.40456536274E+02  0.26319568325E+03  0.29978796436E+03  0.12500216079E+03 0.  0.
         25    2    1    2    0    0  0.57780484327E+02 -0.40456536274E+02  0.54477082249E+03  0.56334562293E+03  0.12493088542E+03 0.  0.
          5    1    3    3  501    0  0.35835372188E+02 -0.48115784478E+01  0.97660286266E+02  0.10424464831E+03  0.47000000000E+01 0.  1.
         -5    1    3    3    0  501 -0.93615856515E+02  0.45268114722E+02  0.16553539698E+03  0.19554331606E+03  0.47000000000E+01 0.  1.
          5    1    4    4  502    0 -0.21040532443E+02 -0.42829702195E+02  0.92108930650E+02  0.10384234445E+03  0.47000000000E+01 0. -1.
         -5    1    4    4    0  502  0.78821016770E+02  0.23731659204E+01  0.45266189184E+03  0.45950327848E+03  0.47000000000E+01 0. -1.
<mgrwt>
<rscale>  0 0.30362759E+03</rscale>
<asrwt>0</asrwt>
<pdfrwt beam="1">  1       21 0.12854614E+00 0.30362759E+03</pdfrwt>
<pdfrwt beam="2">  1       21 0.42436223E-02 0.30362759E+03</pdfrwt>
<totfact> 0.15183694E+05</totfact>
</mgrwt>
</event>
<event>
 8    1  0.9569852E-006  0.2947886E+03  0.7546771E-02  0.1087875E+00
         21   -1    0    0  504  503  0.00000000000E+00  0.00000000000E+00  0.56651126856E+03  0.56651126856E+03  0.00000000000E+00 0.  1.
         21   -1    0    0  503  504 -0.00000000000E+00 -0.00000000000E+00 -0.38348886796E+02  0.38348886796E+02  0.00000000000E+00 0.  1.
         25    2    1    2    0    0  0.75720743074E+02  0.69068040023E+01  0.22744358299E+03  0.27043826361E+03  0.12499974444E+03 0.  0.
         25    2    1    2    0    0 -0.75720743074E+02 -0.69068040023E+01  0.30071879878E+03  0.33442189174E+03  0.12499948346E+03 0.  0.
          5    1    3    3  501    0  0.89769252152E+02  0.17521093795E+02  0.79202211570E+02  0.12108091376E+03  0.47000000000E+01 0.  1.
         -5    1    3    3    0  501 -0.14048509078E+02 -0.10614289792E+02  0.14824137142E+03  0.14935734985E+03  0.47000000000E+01 0.  1.
          5    1    4    4  502    0 -0.92882734224E+02  0.21789606213E+02  0.27740454951E+03  0.29338943973E+03  0.47000000000E+01 0.  1.
         -5    1    4    4    0  502  0.17161991149E+02 -0.28696410216E+02  0.23314249272E+02  0.41032452018E+02  0.47000000000E+01 0.  1.
<mgrwt>
<rscale>  0 0.29478858E+03</rscale>
<asrwt>0</asrwt>
<pdfrwt beam="1">  1       21 0.87155574E-01 0.29478858E+03</pdfrwt>
<pdfrwt beam="2">  1       21 0.58998291E-02 0.29478858E+03</pdfrwt>
<totfact> 0.22306026E+05</totfact>
</mgrwt>
</event>
<event>
 8    1  0.9569852E-006  0.2771172E+03  0.7546771E-02  0.1097274E+00
         21   -1    0    0  504  503  0.00000000000E+00  0.00000000000E+00  0.37041687374E+02  0.37041687374E+02  0.00000000000E+00 0. -1.
         21   -1    0    0  503  504 -0.00000000000E+00 -0.00000000000E+00 -0.51829407504E+03  0.51829407504E+03  0.00000000000E+00 0. -1.
         25    2    1    2    0    0  0.38745561390E+02 -0.44665246458E+02 -0.22258138960E+03  0.26202980811E+03  0.12498376923E+03 0.  0.
         25    2    1    2    0    0 -0.38745561390E+02  0.44665246458E+02 -0.25867099806E+03  0.29330595431E+03  0.12498597851E+03 0.  0.
          5    1    3    3  501    0 -0.17967003179E+01 -0.81696992191E+02 -0.15021765118E+03  0.17107033463E+03  0.47000000000E+01 0. -1.
         -5    1    3    3    0  501  0.40542261708E+02  0.37031745734E+02 -0.72363738427E+02  0.90959473479E+02  0.47000000000E+01 0. -1.
          5    1    4    4  502    0  0.36240701123E+02 -0.33635328623E+01 -0.14080068121E+03  0.14550472020E+03  0.47000000000E+01 0.  1.
         -5    1    4    4    0  502 -0.74986262513E+02  0.48028779320E+02 -0.11787031686E+03  0.14780123411E+03  0.47000000000E+01 0.  1.
<mgrwt>
<rscale>  0 0.27711721E+03</rscale>
<asrwt>0</asrwt>
<pdfrwt beam="1">  1       21 0.56987212E-02 0.27711721E+03</pdfrwt>
<pdfrwt beam="2">  1       21 0.79737549E-01 0.27711721E+03</pdfrwt>
<totfact> 0.29183447E+05</totfact>
</mgrwt>
</event>
<event>
 8    1  0.9569852E-006  0.2898465E+03  0.7546771E-02  0.1090429E+00
         21   -1    0    0  504  503  0.00000000000E+00  0.00000000000E+00  0.28502220570E+03  0.28502220570E+03  0.00000000000E+00 0. -1.
         21   -1    0    0  503  504 -0.00000000000E+00 -0.00000000000E+00 -0.73688093968E+02  0.73688093968E+02  0.00000000000E+00 0. -1.
         25    2    1    2    0    0 -0.35732228013E+02 -0.32476616596E+02  0.37295136044E+02  0.13908283659E+03  0.12498634132E+03 0.  0.
         25    2    1    2    0    0  0.35732228013E+02  0.32476616596E+02  0.17403897569E+03  0.21962746309E+03  0.12496053272E+03 0.  0.
          5    1    3    3  501    0 -0.45917507143E+02  0.16790365624E+02 -0.27987318490E+02  0.56530645108E+02  0.47000000000E+01 0. -1.
         -5    1    3    3    0  501  0.10185279131E+02 -0.49266982220E+02  0.65282454534E+02  0.82552191479E+02  0.47000000000E+01 0. -1.
          5    1    4    4  502    0  0.17688773576E+01 -0.18884721677E+01 -0.19432084405E+02  0.20159145780E+02  0.47000000000E+01 0. -1.
         -5    1    4    4    0  502  0.33963350655E+02  0.34365088764E+02  0.19347106010E+03  0.19946831731E+03  0.47000000000E+01 0. -1.
<mgrwt>
<rscale>  0 0.28984646E+03</rscale>
<asrwt>0</asrwt>
<pdfrwt beam="1">  1       21 0.43849570E-01 0.28984646E+03</pdfrwt>
<pdfrwt beam="2">  1       21 0.11336630E-01 0.28984646E+03</pdfrwt>
<totfact> 0.31733993E+05</totfact>
</mgrwt>
</event>
<event>
 8    1  0.9569852E-006  0.3204819E+03  0.7546771E-02  0.1075428E+00
         21   -1    0    0  504  503  0.00000000000E+00  0.00000000000E+00  0.37491529594E+02  0.37491529594E+02  0.00000000000E+00 0.  1.
         21   -1    0    0  503  504 -0.00000000000E+00 -0.00000000000E+00 -0.68487923268E+03  0.68487923268E+03  0.00000000000E+00 0.  1.
         25    2    1    2    0    0  0.23597744398E+02 -0.81971823942E+02 -0.44235755142E+03  0.46754062197E+03  0.12505117528E+03 0.  0.
         25    2    1    2    0    0 -0.23597744398E+02  0.81971823942E+02 -0.20503015167E+03  0.25483014031E+03  0.12499921541E+03 0.  0.
          5    1    3    3  501    0  0.35122699716E+01 -0.11061619319E+03 -0.38075960650E+03  0.39654538981E+03  0.47000000000E+01 0.  1.
         -5    1    3    3    0  501  0.20085474427E+02  0.28644369243E+02 -0.61597944918E+02  0.70995232167E+02  0.47000000000E+01 0.  1.
          5    1    4    4  502    0  0.46024905638E+02  0.46358880026E+02 -0.54788389796E+02  0.85389082163E+02  0.47000000000E+01 0. -1.
         -5    1    4    4    0  502 -0.69622650037E+02  0.35612943916E+02 -0.15024176188E+03  0.16944105814E+03  0.47000000000E+01 0. -1.
<mgrwt>
<rscale>  0 0.32048195E+03</rscale>
<asrwt>0</asrwt>
<pdfrwt beam="1">  1       21 0.57679282E-02 0.32048195E+03</pdfrwt>
<pdfrwt beam="2">  1       21 0.10536603E+00 0.32048195E+03</pdfrwt>
<totfact> 0.14670917E+05</totfact>
</mgrwt>
</event>
<event>
 8    1  0.9569852E-006  0.2852607E+03  0.7546771E-02  0.1092850E+00
         21   -1    0    0  504  503  0.00000000000E+00  0.00000000000E+00  0.14507860328E+03  0.14507860328E+03  0.00000000000E+00 0.  1.
         21   -1    0    0  503  504 -0.00000000000E+00 -0.00000000000E+00 -0.14022344165E+03  0.14022344165E+03  0.00000000000E+00 0.  1.
         25    2    1    2    0    0 -0.33630709478E+02 -0.57488917446E+02  0.19120040449E+02  0.14292258158E+03  0.12500115252E+03 0.  0.
         25    2    1    2    0    0  0.33630709478E+02  0.57488917446E+02 -0.14264878817E+02  0.14237946334E+03  0.12502969473E+03 0.  0.
          5    1    3    3  501    0  0.46118895401E+02 -0.68935892542E+01  0.26973098510E+01  0.46945069669E+02  0.47000000000E+01 0. -1.
         -5    1    3    3    0  501 -0.79749604879E+02 -0.50595328192E+02  0.16422730598E+02  0.95977511915E+02  0.47000000000E+01 0. -1.
          5    1    4    4  502    0 -0.67998986252E-01 -0.13817510774E+02 -0.52582001362E+02  0.54570001788E+02  0.47000000000E+01 0.  1.
         -5    1    4    4    0  502  0.33698708464E+02  0.71306428220E+02  0.38317122545E+02  0.87809461551E+02  0.47000000000E+01 0.  1.
<mgrwt>
<rscale>  0 0.28526073E+03</rscale>
<asrwt>0</asrwt>
<pdfrwt beam="1">  1       21 0.22319785E-01 0.28526073E+03</pdfrwt>
<pdfrwt beam="2">  1       21 0.21572837E-01 0.28526073E+03</pdfrwt>
<totfact> 0.36884679E+05</totfact>
</mgrwt>
</event>
<event>
 8    1  0.9569852E-006  0.2866766E+03  0.7546771E-02  0.1092097E+00
         21   -1    0    0  504  503  0.00000000000E+00  0.00000000000E+00  0.19518650519E+03  0.19518650519E+03  0.00000000000E+00 0.  1.
         21   -1    0    0  503  504 -0.00000000000E+00 -0.00000000000E+00 -0.10526277100E+03  0.10526277100E+03  0.00000000000E+00 0.  1.
         25    2    1    2    0    0 -0.53376516339E+02  0.39015477696E+02  0.20417261715E+02  0.14287937248E+03  0.12500556191E+03 0.  0.
         25    2    1    2    0    0  0.53376516339E+02 -0.39015477696E+02  0.69506472469E+02  0.15756990371E+03  0.12500345933E+03 0.  0.
          5    1    3    3  501    0 -0.23609412491E+02 -0.16857491995E+02 -0.43693043876E+02  0.52656922410E+02  0.47000000000E+01 0. -1.
         -5    1    3    3    0  501 -0.29767103848E+02  0.55872969691E+02  0.64110305591E+02  0.90222450069E+02  0.47000000000E+01 0. -1.
          5    1    4    4  502    0  0.82472968212E+02 -0.57162399444E+02  0.29561506504E+02  0.10471534301E+03  0.47000000000E+01 0.  1.
         -5    1    4    4    0  502 -0.29096451874E+02  0.18146921748E+02  0.39944965966E+02  0.52854560698E+02  0.47000000000E+01 0.  1.
<mgrwt>
<rscale>  0 0.28667663E+03</rscale>
<asrwt>0</asrwt>
<pdfrwt beam="1">  1       21 0.30028693E-01 0.28667663E+03</pdfrwt>
<pdfrwt beam="2">  1       21 0.16194272E-01 0.28667663E+03</pdfrwt>
<totfact> 0.35538912E+05</totfact>
</mgrwt>
</event>
<event>
 8    1  0.9569852E-006  0.3981271E+03  0.7546771E-02  0.1044430E+00
         21   -1    0    0  504  503  0.00000000000E+00  0.00000000000E+00  0.13223416515E+03  0.13223416515E+03  0.00000000000E+00 0. -1.
         21   -1    0    0  503  504 -0.00000000000E+00 -0.00000000000E+00 -0.29966756423E+03  0.29966756423E+03  0.00000000000E+00 0. -1.
         25    2    1    2    0    0  0.13347005242E+03  0.75743425030E+02 -0.10670643077E+03  0.22485921112E+03  0.12499632446E+03 0.  0.
         25    2    1    2    0    0 -0.13347005242E+03 -0.75743425030E+02 -0.60726968305E+02  0.20704251827E+03  0.12501007305E+03 0.  0.
          5    1    3    3  501    0  0.12447922741E+03  0.31470208934E+01 -0.65707807027E+02  0.14087081920E+03  0.47000000000E+01 0. -1.
         -5    1    3    3    0  501  0.89908250067E+01  0.72596404137E+02 -0.40998623747E+02  0.83988391919E+02  0.47000000000E+01 0. -1.
          5    1    4    4  502    0 -0.69571824038E+02  0.12680159431E+02 -0.67182710594E+02  0.97655679538E+02  0.47000000000E+01 0.  1.
         -5    1    4    4    0  502 -0.63898228378E+02 -0.88423584462E+02  0.64557422898E+01  0.10938683873E+03  0.47000000000E+01 0.  1.
<mgrwt>
<rscale>  0 0.39812707E+03</rscale>
<asrwt>0</asrwt>
<pdfrwt beam="1">  1       21 0.20343718E-01 0.39812707E+03</pdfrwt>
<pdfrwt beam="2">  1       21 0.46102701E-01 0.39812707E+03</pdfrwt>
<totfact> 0.94923669E+04</totfact>
</mgrwt>
</event>
<event>
 8    1  0.9569852E-006  0.2869803E+03  0.7546771E-02  0.1091936E+00
         21   -1    0    0  504  503  0.00000000000E+00  0.00000000000E+00  0.29547453290E+02  0.29547453290E+02  0.00000000000E+00 0. -1.
         21   -1    0    0  503  504 -0.00000000000E+00 -0.00000000000E+00 -0.69682553604E+03  0.69682553604E+03  0.00000000000E+00 0. -1.
         25    2    1    2    0    0 -0.70290258198E+02  0.11931345258E+01 -0.32219332387E+03  0.35267219368E+03  0.12500797686E+03 0.  0.
         25    2    1    2    0    0  0.70290258198E+02 -0.11931345258E+01 -0.34508475888E+03  0.37370079566E+03  0.12500659940E+03 0.  0.
          5    1    3    3  501    0 -0.83809851452E+02 -0.44696021614E+02 -0.20399207146E+03  0.22507039069E+03  0.47000000000E+01 0. -1.
         -5    1    3    3    0  501  0.13519593254E+02  0.45889156140E+02 -0.11820125242E+03  0.12760180299E+03  0.47000000000E+01 0. -1.
          5    1    4    4  502    0 -0.25339164418E+01  0.11122179960E+02 -0.26256906199E+03  0.26285875663E+03  0.47000000000E+01 0.  1.
         -5    1    4    4    0  502  0.72824174640E+02 -0.12315314486E+02 -0.82515696888E+02  0.11084203903E+03  0.47000000000E+01 0.  1.
<mgrwt>
<rscale>  0 0.28698028E+03</rscale>
<asrwt>0</asrwt>
<pdfrwt beam="1">  1       21 0.45457627E-02 0.28698028E+03</pdfrwt>
<pdfrwt beam="2">  1       21 0.10720391E+00 0.28698028E+03</pdfrwt>
<totfact> 0.21337065E+05</totfact>
</mgrwt>
</event>
<event>
 8    1  0.9569852E-006  0.3280463E+03  0.7546771E-02  0.1072005E+00
         21   -1    0    0  504  503  0.00000000000E+00  0.00000000000E+00  0.35392555482E+03  0.35392555482E+03  0.00000000000E+00 0.  1.
         21   -1    0    0  503  504 -0.00000000000E+00 -0.00000000000E+00 -0.76014817577E+02  0.76014817577E+02  0.00000000000E+00 0.  1.
         25    2    1    2    0    0 -0.84294401685E+02  0.63696955445E+02  0.15309158049E+03  0.22410473754E+03  0.12499221209E+03 0.  0.
         25    2    1    2    0    0  0.84294401685E+02 -0.63696955445E+02  0.12481915676E+03  0.20583563486E+03  0.12500255356E+03 0.  0.
          5    1    3    3  501    0  0.20536918443E+02  0.53585268143E+02  0.44622334600E+02  0.72844963629E+02  0.47000000000E+01 0.  1.
         -5    1    3    3    0  501 -0.10483132013E+03  0.10111687303E+02  0.10846924589E+03  0.15125977391E+03  0.47000000000E+01 0.  1.
          5    1    4    4  502    0  0.51224929752E+02  0.19134804906E+02  0.32428113345E+01  0.54979450818E+02  0.47000000000E+01 0.  1.
         -5    1    4    4    0  502  0.33069471933E+02 -0.82831760351E+02  0.12157634542E+03  0.15085618404E+03  0.47000000000E+01 0.  1.
<mgrwt>
<rscale>  0 0.32804626E+03</rscale>
<asrwt>0</asrwt>
<pdfrwt beam="1">  1       21 0.54450084E-01 0.32804626E+03</pdfrwt>
<pdfrwt beam="2">  1       21 0.11694588E-01 0.32804626E+03</pdfrwt>
<totfact> 0.18883500E+05</totfact>
</mgrwt>
</event>
<event>
 8    1  0.9569852E-006  0.2847567E+03  0.7546771E-02  0.1093119E+00
         21   -1    0    0  504  503  0.00000000000E+00  0.00000000000E+00  0.33987222672E+03  0.33987222672E+03  0.00000000000E+00 0.  1.
         21   -1    0    0  503  504 -0.00000000000E+00 -0.00000000000E+00 -0.59644757097E+02  0.59644757097E+02  0.00000000000E+00 0.  1.
         25    2    1    2    0    0  0.99832329786E+01  0.54215665301E+02  0.83836745268E+02  0.16028879838E+03  0.12499958290E+03 0.  0.
         25    2    1    2    0    0 -0.99832329786E+01 -0.54215665301E+02  0.19639072435E+03  0.23922818543E+03  0.12498721850E+03 0.  0.
          5    1    3    3  501    0 -0.99253944649E+01  0.42775991505E+02 -0.23773756736E+02  0.50155562143E+02  0.47000000000E+01 0. -1.
         -5    1    3    3    0  501  0.19908627443E+02  0.11439673796E+02  0.10761050200E+03  0.11013323624E+03  0.47000000000E+01 0. -1.
          5    1    4    4  502    0 -0.53627015307E+02  0.96738480773E+01  0.52649017330E+02  0.75917383603E+02  0.47000000000E+01 0. -1.
         -5    1    4    4    0  502  0.43643782329E+02 -0.63889513378E+02  0.14374170702E+03  0.16331080183E+03  0.47000000000E+01 0. -1.
<mgrwt>
<rscale>  0 0.28475671E+03</rscale>
<asrwt>0</asrwt>
<pdfrwt beam="1">  1       21 0.52288034E-01 0.28475671E+03</pdfrwt>
<pdfrwt beam="2">  1       21 0.91761167E-02 0.28475671E+03</pdfrwt>
<totfact> 0.32057232E+05</totfact>
</mgrwt>
</event>
<event>
 8    1  0.9569852E-006  0.2927963E+03  0.7546771E-02  0.1088898E+00
         21   -1    0    0  504  503  0.00000000000E+00  0.00000000000E+00  0.35624289624E+03  0.35624289624E+03  0.00000000000E+00 0.  1.
         21   -1    0    0  503  504 -0.00000000000E+00 -0.00000000000E+00 -0.60162383197E+02  0.60162383197E+02  0.00000000000E+00 0.  1.
         25    2    1    2    0    0  0.33545045057E+02  0.27675643775E+02  0.23704381698E+03  0.27148765788E+03  0.12499826361E+03 0.  0.
         25    2    1    2    0    0 -0.33545045057E+02 -0.27675643775E+02  0.59036696060E+02  0.14491762155E+03  0.12499829698E+03 0.  0.
          5    1    3    3  501    0 -0.24235113908E+02  0.17683258664E+02  0.34048491273E+01  0.30556854889E+02  0.47000000000E+01 0.  1.
         -5    1    3    3    0  501  0.57780158965E+02  0.99923851107E+01  0.23363896785E+03  0.24093080299E+03  0.47000000000E+01 0.  1.
          5    1    4    4  502    0 -0.77167362350E+02 -0.72309146313E+01  0.57265866230E+02  0.96480865324E+02  0.47000000000E+01 0. -1.
         -5    1    4    4    0  502  0.43622317294E+02 -0.20444729143E+02  0.17708298296E+01  0.48436756230E+02  0.47000000000E+01 0. -1.
<mgrwt>
<rscale>  0 0.29279632E+03</rscale>
<asrwt>0</asrwt>
<pdfrwt beam="1">  1       21 0.54806598E-01 0.29279632E+03</pdfrwt>
<pdfrwt beam="2">  1       21 0.92557515E-02 0.29279632E+03</pdfrwt>
<totfact> 0.28515653E+05</totfact>
</mgrwt>
</event>
<event>
 8    1  0.9569852E-006  0.3707361E+03  0.7546771E-02  0.1054412E+00
         21   -1    0    0  504  503  0.00000000000E+00  0.00000000000E+00  0.20976293478E+03  0.20976293478E+03  0.00000000000E+00 0. -1.
         21   -1    0    0  503  504 -0.00000000000E+00 -0.00000000000E+00 -0.16381020930E+03  0.16381020930E+03  0.00000000000E+00 0. -1.
         25    2    1    2    0    0  0.58627035379E+02 -0.95503260016E+02 -0.56237103674E+02  0.17704575866E+03  0.12499834750E+03 0.  0.
         25    2    1    2    0    0 -0.58627035379E+02  0.95503260016E+02  0.10218982916E+03  0.19652738541E+03  0.12498899985E+03 0.  0.
          5    1    3    3  501    0  0.29862983153E+02 -0.91429913755E+02 -0.90312518852E+02  0.13202146777E+03  0.47000000000E+01 0. -1.
         -5    1    3    3    0  501  0.28764052225E+02 -0.40733462610E+01  0.34075415178E+02  0.45024290885E+02  0.47000000000E+01 0. -1.
          5    1    4    4  502    0  0.18147682667E+02  0.24217120931E+02  0.84880578776E+02  0.90236411641E+02  0.47000000000E+01 0. -1.
         -5    1    4    4    0  502 -0.76774718046E+02  0.71286139084E+02  0.17309250379E+02  0.10629097377E+03  0.47000000000E+01 0. -1.
<mgrwt>
<rscale>  0 0.37073608E+03</rscale>
<asrwt>0</asrwt>
<pdfrwt beam="1">  1       21 0.32271221E-01 0.37073608E+03</pdfrwt>
<pdfrwt beam="2">  1       21 0.25201571E-01 0.37073608E+03</pdfrwt>
<totfact> 0.13118959E+05</totfact>
</mgrwt>
</event>
<event>
 8    1  0.9569852E-006  0.2871868E+03  0.7546771E-02  0.1091827E+00
         21   -1    0    0  504  503  0.00000000000E+00  0.00000000000E+00  0.27627407392E+03  0.27627407392E+03  0.00000000000E+00 0.  1.
         21   -1    0    0  503  504 -0.00000000000E+00 -0.00000000000E+00 -0.74632662419E+02  0.74632662419E+02  0.00000000000E+00 0.  1.
         25    2    1    2    0    0  0.37426563395E+02  0.20877294567E+02  0.32129730894E+02  0.13598357697E+03  0.12499041772E+03 0.  0.
         25    2    1    2    0    0 -0.37426563395E+02 -0.20877294567E+02  0.16951168061E+03  0.21492315937E+03  0.12498458103E+03 0.  0.
          5    1    3    3  501    0  0.18001126345E+02  0.67214888064E+01  0.79893892765E+02  0.82306397459E+02  0.47000000000E+01 0.  1.
         -5    1    3    3    0  501  0.19425437050E+02  0.14155805761E+02 -0.47764161871E+02  0.53677179514E+02  0.47000000000E+01 0.  1.
          5    1    4    4  502    0 -0.34650237564E+02 -0.24082889989E+02  0.18937458715E+03  0.19407588416E+03  0.47000000000E+01 0. -1.
         -5    1    4    4    0  502 -0.27763258304E+01  0.32055954220E+01 -0.19862906545E+02  0.20847275206E+02  0.47000000000E+01 0. -1.
<mgrwt>
<rscale>  0 0.28718684E+03</rscale>
<asrwt>0</asrwt>
<pdfrwt beam="1">  1       21 0.42503703E-01 0.28718684E+03</pdfrwt>
<pdfrwt beam="2">  1       21 0.11481948E-01 0.28718684E+03</pdfrwt>
<totfact> 0.33091498E+05</totfact>
</mgrwt>
</event>
<event>
 8    1  0.9569852E-006  0.2831941E+03  0.7546771E-02  0.1093957E+00
         21   -1    0    0  504  503  0.00000000000E+00  0.00000000000E+00  0.97067748730E+03  0.97067748730E+03  0.00000000000E+00 0. -1.
         21   -1    0    0  503  504 -0.00000000000E+00 -0.00000000000E+00 -0.20655385805E+02  0.20655385805E+02  0.00000000000E+00 0. -1.
         25    2    1    2    0    0 -0.40793540541E+02  0.51588918017E+02  0.44024415923E+03  0.46234850751E+03  0.12500277298E+03 0.  0.
         25    2    1    2    0    0  0.40793540541E+02 -0.51588918017E+02  0.50977794227E+03  0.52898436559E+03  0.12500151681E+03 0.  0.
          5    1    3    3  501    0 -0.25646046107E+02 -0.34481695989E+02  0.73179221526E+02  0.84994090985E+02  0.47000000000E+01 0.  1.
         -5    1    3    3    0  501 -0.15147494433E+02  0.86070614007E+02  0.36706493770E+03  0.37735441653E+03  0.47000000000E+01 0.  1.
          5    1    4    4  502    0  0.55854936476E+01 -0.87999628151E+02  0.36504360379E+03  0.37557163759E+03  0.47000000000E+01 0.  1.
         -5    1    4    4    0  502  0.35208046893E+02  0.36410710133E+02  0.14473433848E+03  0.15341272800E+03  0.47000000000E+01 0.  1.
<mgrwt>
<rscale>  0 0.28319405E+03</rscale>
<asrwt>0</asrwt>
<pdfrwt beam="1">  1       21 0.14933496E+00 0.28319405E+03</pdfrwt>
<pdfrwt beam="2">  1       21 0.31777524E-02 0.28319405E+03</pdfrwt>
<totfact> 0.16814250E+05</totfact>
</mgrwt>
</event>
<event>
 8    1  0.9569852E-006  0.2740530E+03  0.7546771E-02  0.1098982E+00
         21   -1    0    0  504  503  0.00000000000E+00  0.00000000000E+00  0.53647646550E+03  0.53647646550E+03  0.00000000000E+00 0. -1.
         21   -1    0    0  503  504 -0.00000000000E+00 -0.00000000000E+00 -0.34999217192E+02  0.34999217192E+02  0.00000000000E+00 0. -1.
         25    2    1    2    0    0  0.11748601584E+02 -0.55096193765E+01  0.36464383473E+03  0.38569160337E+03  0.12499800461E+03 0.  0.
         25    2    1    2    0    0 -0.11748601584E+02  0.55096193765E+01  0.13683341357E+03  0.18578407932E+03  0.12499582199E+03 0.  0.
          5    1    3    3  501    0  0.12386334898E+00 -0.61417989661E+02  0.25065161699E+03  0.25810948819E+03  0.47000000000E+01 0. -1.
         -5    1    3    3    0  501  0.11624738235E+02  0.55908370284E+02  0.11399221774E+03  0.12758211518E+03  0.47000000000E+01 0. -1.
          5    1    4    4  502    0  0.13266126971E+02 -0.43208291191E+02  0.11997204695E+03  0.12829001755E+03  0.47000000000E+01 0.  1.
         -5    1    4    4    0  502 -0.25014728555E+02  0.48717910567E+02  0.16861366620E+02  0.57494061771E+02  0.47000000000E+01 0.  1.
<mgrwt>
<rscale>  0 0.27405296E+03</rscale>
<asrwt>0</asrwt>
<pdfrwt beam="1">  1       21 0.82534835E-01 0.27405296E+03</pdfrwt>
<pdfrwt beam="2">  1       21 0.53844953E-02 0.27405296E+03</pdfrwt>
<totfact> 0.29749685E+05</totfact>
</mgrwt>
</event>
<event>
 8    1  0.9569852E-006  0.3435534E+03  0.7546771E-02  0.1065293E+00
         21   -1    0    0  504  503  0.00000000000E+00  0.00000000000E+00  0.44835718293E+03  0.44835718293E+03  0.00000000000E+00 0.  1.
         21   -1    0    0  503  504 -0.00000000000E+00 -0.00000000000E+00 -0.65811891678E+02  0.65811891678E+02  0.00000000000E+00 0.  1.
         25    2    1    2    0    0 -0.20271581936E+02 -0.23781625411E+02  0.36137514636E+03  0.38366145611E+03  0.12501045457E+03 0.  0.
         25    2    1    2    0    0  0.20271581936E+02  0.23781625411E+02  0.21170144894E+02  0.13050761851E+03  0.12493022337E+03 0.  0.
          5    1    3    3  501    0  0.25343748996E+01 -0.51568412674E+02  0.33459951370E+03  0.33859215705E+03  0.47000000000E+01 0.  1.
         -5    1    3    3    0  501 -0.22805956835E+02  0.27786787262E+02  0.26775632656E+02  0.45069299059E+02  0.47000000000E+01 0.  1.
          5    1    4    4  502    0  0.13949099865E+02  0.68965171479E+02 -0.14999975637E+02  0.72096196386E+02  0.47000000000E+01 0. -1.
         -5    1    4    4    0  502  0.63224820711E+01 -0.45183546068E+02  0.36170120531E+02  0.58411422120E+02  0.47000000000E+01 0. -1.
<mgrwt>
<rscale>  0 0.34355340E+03</rscale>
<asrwt>0</asrwt>
<pdfrwt beam="1">  1       21 0.68978026E-01 0.34355340E+03</pdfrwt>
<pdfrwt beam="2">  1       21 0.10124907E-01 0.34355340E+03</pdfrwt>
<totfact> 0.14547116E+05</totfact>
</mgrwt>
</event>
<event>
 8    1  0.9569852E-006  0.2798329E+03  0.7546771E-02  0.1095780E+00
         21   -1    0    0  504  503  0.00000000000E+00  0.00000000000E+00  0.19145876062E+03  0.19145876062E+03  0.00000000000E+00 0. -1.
         21   -1    0    0  503  504 -0.00000000000E+00 -0.00000000000E+00 -0.10224974044E+03  0.10224974044E+03  0.00000000000E+00 0. -1.
         25    2    1    2    0    0 -0.36507768692E+02  0.22543340258E+02 -0.36113208499E+01  0.13220802603E+03  0.12499960458E+03 0.  0.
         25    2    1    2    0    0  0.36507768692E+02 -0.22543340258E+02  0.92820341025E+02  0.16150047503E+03  0.12500307341E+03 0.  0.
          5    1    3    3  501    0 -0.49470405556E+02 -0.37132938889E+02 -0.25631963318E+02  0.67121261311E+02  0.47000000000E+01 0.  1.
         -5    1    3    3    0  501  0.12962636864E+02  0.59676279147E+02  0.22020642469E+02  0.65086764722E+02  0.47000000000E+01 0.  1.
          5    1    4    4  502    0  0.28519866679E+02  0.46105132858E+02  0.69797734740E+02  0.88503558381E+02  0.47000000000E+01 0.  1.
         -5    1    4    4    0  502  0.79879020121E+01 -0.68648473116E+02  0.23022606284E+02  0.72996916646E+02  0.47000000000E+01 0.  1.
<mgrwt>
<rscale>  0 0.27983287E+03</rscale>
<asrwt>0</asrwt>
<pdfrwt beam="1">  1       21 0.29455194E-01 0.27983287E+03</pdfrwt>
<pdfrwt beam="2">  1       21 0.15730729E-01 0.27983287E+03</pdfrwt>
<totfact> 0.38994362E+05</totfact>
</mgrwt>
</event>
<event>
 8    1  0.9569852E-006  0.3781656E+03  0.7546771E-02  0.1051614E+00
         21   -1    0    0  504  503  0.00000000000E+00  0.00000000000E+00  0.29737203015E+03  0.29737203015E+03  0.00000000000E+00 0.  1.
         21   -1    0    0  503  504 -0.00000000000E+00 -0.00000000000E+00 -0.12022754717E+03  0.12022754717E+03  0.00000000000E+00 0.  1.
         25    2    1    2    0    0 -0.11738579038E+03  0.66724466672E+02  0.13665141287E+03  0.22919487105E+03  0.12500040816E+03 0.  0.
         25    2    1    2    0    0  0.11738579038E+03 -0.66724466672E+02  0.40493070109E+02  0.18840470627E+03  0.12500026553E+03 0.  0.
          5    1    3    3  501    0 -0.91101837982E+02  0.10195851342E+03  0.84396064340E+02  0.16074784296E+03  0.47000000000E+01 0.  1.
         -5    1    3    3    0  501 -0.26283952393E+02 -0.35234046744E+02  0.52255348531E+02  0.68447028083E+02  0.47000000000E+01 0.  1.
          5    1    4    4  502    0  0.41254603576E+02  0.29476747798E+02  0.41405624432E+02  0.65630303302E+02  0.47000000000E+01 0.  1.
         -5    1    4    4    0  502  0.76131186799E+02 -0.96201214470E+02 -0.91255432293E+00  0.12277440297E+03  0.47000000000E+01 0.  1.
<mgrwt>
<rscale>  0 0.37816562E+03</rscale>
<asrwt>0</asrwt>
<pdfrwt beam="1">  1       21 0.45749543E-01 0.37816562E+03</pdfrwt>
<pdfrwt beam="2">  1       21 0.18496546E-01 0.37816562E+03</pdfrwt>
<totfact> 0.11598977E+05</totfact>
</mgrwt>
</event>
<event>
 8    1  0.9569852E-006  0.2986223E+03  0.7546771E-02  0.1085931E+00
         21   -1    0    0  504  503  0.00000000000E+00  0.00000000000E+00  0.18069876296E+03  0.18069876296E+03  0.00000000000E+00 0.  1.
         21   -1    0    0  503  504 -0.00000000000E+00 -0.00000000000E+00 -0.12337564402E+03  0.12337564402E+03  0.00000000000E+00 0.  1.
         25    2    1    2    0    0 -0.32361798132E+02 -0.73892527047E+02  0.15728201020E+02  0.14959950909E+03  0.12500098112E+03 0.  0.
         25    2    1    2    0    0  0.32361798132E+02  0.73892527047E+02  0.41594917921E+02  0.15447489790E+03  0.12499986141E+03 0.  0.
          5    1    3    3  501    0 -0.60613911164E+02 -0.24458607362E+02  0.50487963559E+02  0.82724809852E+02  0.47000000000E+01 0. -1.
         -5    1    3    3    0  501  0.28252113032E+02 -0.49433919685E+02 -0.34759762538E+02  0.66874699236E+02  0.47000000000E+01 0. -1.
          5    1    4    4  502    0  0.28031529624E+02  0.72894934628E+02 -0.29106047052E+02  0.83478680646E+02  0.47000000000E+01 0.  1.
         -5    1    4    4    0  502  0.43302685077E+01  0.99759241942E+00  0.70700964974E+02  0.70996217253E+02  0.47000000000E+01 0.  1.
<mgrwt>
<rscale>  0 0.29862235E+03</rscale>
<asrwt>0</asrwt>
<pdfrwt beam="1">  1       21 0.27799810E-01 0.29862235E+03</pdfrwt>
<pdfrwt beam="2">  1       21 0.18980868E-01 0.29862235E+03</pdfrwt>
<totfact> 0.30685059E+05</totfact>
</mgrwt>
</event>
<event>
 8    1  0.9569852E-006  0.2711200E+03  0.7546771E-02  0.1100640E+00
         21   -1    0    0  504  503  0.00000000000E+00  0.00000000000E+00  0.37881674572E+03  0.37881674572E+03  0.00000000000E+00 0.  1.
         21   -1    0    0  503  504 -0.00000000000E+00 -0.00000000000E+00 -0.48510313255E+02  0.48510313255E+02  0.00000000000E+00 0.  1.
         25    2    1    2    0    0  0.14588003688E+02 -0.48661702341E+02  0.18572948700E+03  0.22957033721E+03  0.12500530492E+03 0.  0.
         25    2    1    2    0    0 -0.14588003688E+02  0.48661702341E+02  0.14457694547E+03  0.19775672177E+03  0.12499782685E+03 0.  0.
          5    1    3    3  501    0  0.58534139900E+02 -0.62869145930E+02  0.98673858830E+02  0.13090987534E+03  0.47000000000E+01 0. -1.
         -5    1    3    3    0  501 -0.43946136212E+02  0.14207443589E+02  0.87055628167E+02  0.98660461872E+02  0.47000000000E+01 0. -1.
          5    1    4    4  502    0 -0.28603295530E+02 -0.55481800407E+01 -0.11652402335E+02  0.31730100806E+02  0.47000000000E+01 0. -1.
         -5    1    4    4    0  502  0.14015291842E+02  0.54209882382E+02  0.15622934781E+03  0.16602662097E+03  0.47000000000E+01 0. -1.
<mgrwt>
<rscale>  0 0.27112004E+03</rscale>
<asrwt>0</asrwt>
<pdfrwt beam="1">  1       21 0.58279498E-01 0.27112004E+03</pdfrwt>
<pdfrwt beam="2">  1       21 0.74631254E-02 0.27112004E+03</pdfrwt>
<totfact> 0.36668518E+05</totfact>
</mgrwt>
</event>
<event>
 8    1  0.9569852E-006  0.3043566E+03  0.7546771E-02  0.1083083E+00
         21   -1    0    0  504  503  0.00000000000E+00  0.00000000000E+00  0.25840223507E+03  0.25840223507E+03  0.00000000000E+00 0. -1.
         21   -1    0    0  503  504 -0.00000000000E+00 -0.00000000000E+00 -0.89620883123E+02  0.89620883123E+02  0.00000000000E+00 0. -1.
         25    2    1    2    0    0 -0.17786884435E+02 -0.62504637329E+02  0.15017795221E+03  0.20591729230E+03  0.12500124396E+03 0.  0.
         25    2    1    2    0    0  0.17786884435E+02  0.62504637329E+02  0.18603399741E+02  0.14210582590E+03  0.12499910531E+03 0.  0.
          5    1    3    3  501    0  0.52354534802E+02 -0.26366149190E+02  0.85567657987E+02  0.10382718927E+03  0.47000000000E+01 0.  1.
         -5    1    3    3    0  501 -0.70141419237E+02 -0.36138488139E+02  0.64610294223E+02  0.10209010303E+03  0.47000000000E+01 0.  1.
          5    1    4    4  502    0 -0.12008681476E+01 -0.33730690727E+02 -0.16441787857E+02  0.37836807069E+02  0.47000000000E+01 0. -1.
         -5    1    4    4    0  502  0.18987752583E+02  0.96235328056E+02  0.35045187598E+02  0.10426901883E+03  0.47000000000E+01 0. -1.
<mgrwt>
<rscale>  0 0.30435661E+03</rscale>
<asrwt>0</asrwt>
<pdfrwt beam="1">  1       21 0.39754190E-01 0.30435661E+03</pdfrwt>
<pdfrwt beam="2">  1       21 0.13787828E-01 0.30435661E+03</pdfrwt>
<totfact> 0.27142291E+05</totfact>
</mgrwt>
</event>
<event>
 8    1  0.9569852E-006  0.3400629E+03  0.7546771E-02  0.1066769E+00
         21   -1    0    0  504  503  0.00000000000E+00  0.00000000000E+00  0.34192164219E+03  0.34192164219E+03  0.00000000000E+00 0. -1.
         21   -1    0    0  503  504 -0.00000000000E+00 -0.00000000000E+00 -0.84553588898E+02  0.84553588898E+02  0.00000000000E+00 0. -1.
         25    2    1    2    0    0  0.11284768287E+03 -0.15497562938E+02  0.15081095060E+03  0.22659170714E+03  0.12500033974E+03 0.  0.
         25    2    1    2    0    0 -0.11284768287E+03  0.15497562938E+02  0.10655710269E+03  0.19988352395E+03  0.12499693207E+03 0.  0.
          5    1    3    3  501    0  0.15972406200E+02  0.44812247865E+02  0.76910287650E+02  0.90556820091E+02  0.47000000000E+01 0. -1.
         -5    1    3    3    0  501  0.96875276672E+02 -0.60309810803E+02  0.73900662953E+02  0.13603488705E+03  0.47000000000E+01 0. -1.
          5    1    4    4  502    0 -0.59685769115E+02  0.67229049098E+02  0.34635212941E+02  0.96456332363E+02  0.47000000000E+01 0.  1.
         -5    1    4    4    0  502 -0.53161913757E+02 -0.51731486160E+02  0.71921889750E+02  0.10342719159E+03  0.47000000000E+01 0.  1.
<mgrwt>
<rscale>  0 0.34006295E+03</rscale>
<asrwt>0</asrwt>
<pdfrwt beam="1">  1       21 0.52603329E-01 0.34006295E+03</pdfrwt>
<pdfrwt beam="2">  1       21 0.13008245E-01 0.34006295E+03</pdfrwt>
<totfact> 0.16713268E+05</totfact>
</mgrwt>
</event>
<event>
 8    1  0.9569852E-006  0.3119867E+03  0.7546771E-02  0.1079397E+00
         21   -1    0    0  504  503  0.00000000000E+00  0.00000000000E+00  0.47224881975E+03  0.47224881975E+03  0.00000000000E+00 0. -1.
         21   -1    0    0  503  504 -0.00000000000E+00 -0.00000000000E+00 -0.51527778731E+02  0.51527778731E+02  0.00000000000E+00 0. -1.
         25    2    1    2    0    0  0.54855617816E+02  0.63245425068E+02  0.27958177418E+03  0.31749041232E+03  0.12500028344E+03 0.  0.
         25    2    1    2    0    0 -0.54855617816E+02 -0.63245425068E+02  0.14113926684E+03  0.20628618617E+03  0.12499830143E+03 0.  0.
          5    1    3    3  501    0  0.45118143811E+01 -0.37124934781E+02  0.60929964641E+02  0.71646129292E+02  0.47000000000E+01 0.  1.
         -5    1    3    3    0  501  0.50343803435E+02  0.10037035985E+03  0.21865180954E+03  0.24584428302E+03  0.47000000000E+01 0.  1.
          5    1    4    4  502    0 -0.53335695528E+02 -0.71873925232E+02  0.29719973681E+02  0.94424172654E+02  0.47000000000E+01 0. -1.
         -5    1    4    4    0  502 -0.15199222885E+01  0.86285001646E+01  0.11141929316E+03  0.11186201352E+03  0.47000000000E+01 0. -1.
<mgrwt>
<rscale>  0 0.31198675E+03</rscale>
<asrwt>0</asrwt>
<pdfrwt beam="1">  1       21 0.72653662E-01 0.31198675E+03</pdfrwt>
<pdfrwt beam="2">  1       21 0.79273509E-02 0.31198675E+03</pdfrwt>
<totfact> 0.20132274E+05</totfact>
</mgrwt>
</event>
<event>
 8    1  0.9569852E-006  0.3906530E+03  0.7546771E-02  0.1047065E+00
         21   -1    0    0  504  503  0.00000000000E+00  0.00000000000E+00  0.45503704667E+03  0.45503704667E+03  0.00000000000E+00 0. -1.
         21   -1    0    0  503  504 -0.00000000000E+00 -0.00000000000E+00 -0.83844709488E+02  0.83844709488E+02  0.00000000000E+00 0. -1.
         25    2    1    2    0    0 -0.14439243506E+03  0.36912260667E+02  0.16104325571E+03  0.25253057803E+03  0.12500028935E+03 0.  0.
         25    2    1    2    0    0  0.14439243506E+03 -0.36912260667E+02  0.21014908148E+03  0.28635117814E+03  0.12499068159E+03 0.  0.
          5    1    3    3  501    0  0.13077357648E+02 -0.22213765106E+02  0.19876057355E+02  0.32887935466E+02  0.47000000000E+01 0.  1.
         -5    1    3    3    0  501 -0.15746979271E+03  0.59126025773E+02  0.14116719835E+03  0.21964264256E+03  0.47000000000E+01 0.  1.
          5    1    4    4  502    0  0.15580082541E+03 -0.36177115765E+02  0.13257965446E+03  0.20780311759E+03  0.47000000000E+01 0. -1.
         -5    1    4    4    0  502 -0.11408390346E+02 -0.73514490206E+00  0.77569427016E+02  0.78548060549E+02  0.47000000000E+01 0. -1.
<mgrwt>
<rscale>  0 0.39065304E+03</rscale>
<asrwt>0</asrwt>
<pdfrwt beam="1">  1       21 0.70005698E-01 0.39065304E+03</pdfrwt>
<pdfrwt beam="2">  1       21 0.12899186E-01 0.39065304E+03</pdfrwt>
<totfact> 0.89875547E+04</totfact>
</mgrwt>
</event>
<event>
 8    1  0.9569852E-006  0.5290968E+03  0.7546771E-02  0.1006451E+00
         21   -1    0    0  504  503  0.00000000000E+00  0.00000000000E+00  0.77627881990E+02  0.77627881990E+02  0.00000000000E+00 0. -1.
         21   -1    0    0  503  504 -0.00000000000E+00 -0.00000000000E+00 -0.90155560832E+03  0.90155560832E+03  0.00000000000E+00 0. -1.
         25    2    1    2    0    0  0.22817986524E+03  0.35121853107E+02 -0.47229035662E+03  0.54035176384E+03  0.12498900855E+03 0.  0.
         25    2    1    2    0    0 -0.22817986524E+03 -0.35121853107E+02 -0.35163736971E+03  0.43883172647E+03  0.12499939565E+03 0.  0.
          5    1    3    3  501    0  0.51135240312E+02  0.35354900465E+02 -0.24161367484E+03  0.24952763306E+03  0.47000000000E+01 0.  1.
         -5    1    3    3    0  501  0.17704462493E+03 -0.23304735824E+00 -0.23067668178E+03  0.29082413078E+03  0.47000000000E+01 0.  1.
          5    1    4    4  502    0 -0.48773146123E+02  0.29897526027E+02 -0.15268190887E+03  0.16311510397E+03  0.47000000000E+01 0. -1.
         -5    1    4    4    0  502 -0.17940671912E+03 -0.65019379133E+02 -0.19895546084E+03  0.27571662250E+03  0.47000000000E+01 0. -1.
<mgrwt>
<rscale>  0 0.52909679E+03</rscale>
<asrwt>0</asrwt>
<pdfrwt beam="1">  1       21 0.11942750E-01 0.52909679E+03</pdfrwt>
<pdfrwt beam="2">  1       21 0.13870087E+00 0.52909679E+03</pdfrwt>
<totfact> 0.19026050E+04</totfact>
</mgrwt>
</event>
<event>
 8    1  0.9569852E-006  0.3077994E+03  0.7546771E-02  0.1081406E+00
         21   -1    0    0  504  503  0.00000000000E+00  0.00000000000E+00  0.24899725957E+03  0.24899725957E+03  0.00000000000E+00 0. -1.
         21   -1    0    0  503  504 -0.00000000000E+00 -0.00000000000E+00 -0.95121980257E+02  0.95121980257E+02  0.00000000000E+00 0. -1.
         25    2    1    2    0    0  0.36207132125E+01 -0.71744351660E+02  0.13714323209E+03  0.19898152014E+03  0.12500007077E+03 0.  0.
         25    2    1    2    0    0 -0.36207132125E+01  0.71744351660E+02  0.16732047224E+02  0.14513771968E+03  0.12499853884E+03 0.  0.
          5    1    3    3  501    0  0.13667651544E+02  0.19157973192E+02 -0.97315006371E+01  0.25896423309E+02  0.47000000000E+01 0.  1.
         -5    1    3    3    0  501 -0.10046938331E+02 -0.90902324852E+02  0.14687473272E+03  0.17308509683E+03  0.47000000000E+01 0.  1.
          5    1    4    4  502    0  0.18834290169E-01 -0.80914084591E+01 -0.43789825377E+02  0.44778455222E+02  0.47000000000E+01 0. -1.
         -5    1    4    4    0  502 -0.36395475026E+01  0.79835760119E+02  0.60521872601E+02  0.10035926446E+03  0.47000000000E+01 0. -1.
<mgrwt>
<rscale>  0 0.30779937E+03</rscale>
<asrwt>0</asrwt>
<pdfrwt beam="1">  1       21 0.38307270E-01 0.30779937E+03</pdfrwt>
<pdfrwt beam="2">  1       21 0.14634151E-01 0.30779937E+03</pdfrwt>
<totfact> 0.26225002E+05</totfact>
</mgrwt>
</event>
<event>
 8    1  0.9569852E-006  0.6750733E+03  0.7546771E-02  0.9760836E-01
         21   -1    0    0  504  503  0.00000000000E+00  0.00000000000E+00  0.10808775303E+04  0.10808775303E+04  0.00000000000E+00 0. -1.
         21   -1    0    0  503  504 -0.00000000000E+00 -0.00000000000E+00 -0.10540602523E+03  0.10540602523E+03  0.00000000000E+00 0. -1.
         25    2    1    2    0    0  0.30907729048E+03  0.48570306139E+02  0.52368928565E+03  0.62270564703E+03  0.12499603521E+03 0.  0.
         25    2    1    2    0    0 -0.30907729048E+03 -0.48570306139E+02  0.45178221944E+03  0.56357790852E+03  0.12500015617E+03 0.  0.
          5    1    3    3  501    0  0.49480488989E+02 -0.42407775225E+01  0.19097119432E+03  0.19737879837E+03  0.47000000000E+01 0.  1.
         -5    1    3    3    0  501  0.25959680149E+03  0.52811083662E+02  0.33271809133E+03  0.42532684867E+03  0.47000000000E+01 0.  1.
          5    1    4    4  502    0 -0.31469525533E+02 -0.29148719210E+02  0.15057110004E+02  0.45703232167E+02  0.47000000000E+01 0. -1.
         -5    1    4    4    0  502 -0.27760776494E+03 -0.19421586929E+02  0.43672510944E+03  0.51787467635E+03  0.47000000000E+01 0. -1.
<mgrwt>
<rscale>  0 0.67507334E+03</rscale>
<asrwt>0</asrwt>
<pdfrwt beam="1">  1       21 0.16628884E+00 0.67507334E+03</pdfrwt>
<pdfrwt beam="2">  1       21 0.16216312E-01 0.67507334E+03</pdfrwt>
<totfact> 0.63186648E+03</totfact>
</mgrwt>
</event>
<event>
 8    1  0.9569852E-006  0.2764151E+03  0.7546771E-02  0.1097663E+00
         21   -1    0    0  504  503  0.00000000000E+00  0.00000000000E+00  0.46982057245E+02  0.46982057245E+02  0.00000000000E+00 0.  1.
         21   -1    0    0  503  504 -0.00000000000E+00 -0.00000000000E+00 -0.40656651285E+03  0.40656651285E+03  0.00000000000E+00 0.  1.
         25    2    1    2    0    0  0.57659067405E+02  0.99300111418E+01 -0.16812054249E+03  0.21752357697E+03  0.12501526528E+03 0.  0.
         25    2    1    2    0    0 -0.57659067405E+02 -0.99300111418E+01 -0.19146391311E+03  0.23602499313E+03  0.12500477663E+03 0.  0.
          5    1    3    3  501    0  0.78249246837E+02  0.44548749032E+01 -0.17725819993E+03  0.19386941477E+03  0.47000000000E+01 0. -1.
         -5    1    3    3    0  501 -0.20590179433E+02  0.54751362386E+01  0.91376574353E+01  0.23654162198E+02  0.47000000000E+01 0. -1.
          5    1    4    4  502    0 -0.65759591560E+02 -0.28999064596E+02 -0.20042094714E+03  0.21296928343E+03  0.47000000000E+01 0. -1.
         -5    1    4    4    0  502  0.81005241553E+01  0.19069053455E+02  0.89570340296E+01  0.23055709702E+02  0.47000000000E+01 0. -1.
<mgrwt>
<rscale>  0 0.27641513E+03</rscale>
<asrwt>0</asrwt>
<pdfrwt beam="1">  1       21 0.72280085E-02 0.27641513E+03</pdfrwt>
<pdfrwt beam="2">  1       21 0.62548697E-01 0.27641513E+03</pdfrwt>
<totfact> 0.33227933E+05</totfact>
</mgrwt>
</event>
<event>
 8    1  0.9569852E-006  0.3671688E+03  0.7546771E-02  0.1055781E+00
         21   -1    0    0  504  503  0.00000000000E+00  0.00000000000E+00  0.23361366546E+04  0.23361366546E+04  0.00000000000E+00 0. -1.
         21   -1    0    0  503  504 -0.00000000000E+00 -0.00000000000E+00 -0.14426909170E+02  0.14426909170E+02  0.00000000000E+00 0. -1.
         25    2    1    2    0    0 -0.11199641965E+03  0.44709736996E+02  0.78013270848E+03  0.79923363615E+03  0.12500081492E+03 0.  0.
         25    2    1    2    0    0  0.11199641965E+03 -0.44709736996E+02  0.15415770370E+04  0.15513299277E+04  0.12499049907E+03 0.  0.
          5    1    3    3  501    0 -0.88242318127E+02  0.73066477441E+02  0.71538671505E+03  0.72451753526E+03  0.47000000000E+01 0. -1.
         -5    1    3    3    0  501 -0.23754101521E+02 -0.28356740445E+02  0.64745993427E+02  0.74716100893E+02  0.47000000000E+01 0. -1.
          5    1    4    4  502    0  0.82333874423E+02 -0.17493813203E+02  0.14323017898E+04  0.14347806130E+04  0.47000000000E+01 0. -1.
         -5    1    4    4    0  502  0.29662545225E+02 -0.27215923794E+02  0.10927524718E+03  0.11654931464E+03  0.47000000000E+01 0. -1.
<mgrwt>
<rscale>  0 0.36716880E+03</rscale>
<asrwt>0</asrwt>
<pdfrwt beam="1">  1       21 0.35940534E+00 0.36716880E+03</pdfrwt>
<pdfrwt beam="2">  1       21 0.22195263E-02 0.36716880E+03</pdfrwt>
<totfact> 0.13836031E+04</totfact>
</mgrwt>
</event>
<event>
 8    1  0.9569852E-006  0.2796138E+03  0.7546771E-02  0.1095900E+00
         21   -1    0    0  504  503  0.00000000000E+00  0.00000000000E+00  0.21410540396E+02  0.21410540396E+02  0.00000000000E+00 0.  1.
         21   -1    0    0  503  504 -0.00000000000E+00 -0.00000000000E+00 -0.91291321974E+03  0.91291321974E+03  0.00000000000E+00 0.  1.
         25    2    1    2    0    0 -0.13027885965E+02 -0.76777823381E+01 -0.64880517542E+03  0.66090948998E+03  0.12499809655E+03 0.  0.
         25    2    1    2    0    0  0.13027885965E+02  0.76777823381E+01 -0.24269750393E+03  0.27341427016E+03  0.12499844223E+03 0.  0.
          5    1    3    3  501    0 -0.57789563565E+02  0.30412083984E+02 -0.29061234776E+03  0.29789621545E+03  0.47000000000E+01 0. -1.
         -5    1    3    3    0  501  0.44761677601E+02 -0.38089866322E+02 -0.35819282766E+03  0.36301327453E+03  0.47000000000E+01 0. -1.
          5    1    4    4  502    0 -0.30919945280E+02 -0.31165085652E+02 -0.31667138466E+02  0.54334181124E+02  0.47000000000E+01 0.  1.
         -5    1    4    4    0  502  0.43947831245E+02  0.38842867990E+02 -0.21103036546E+03  0.21908008904E+03  0.47000000000E+01 0.  1.
<mgrwt>
<rscale>  0 0.27961377E+03</rscale>
<asrwt>0</asrwt>
<pdfrwt beam="1">  1       21 0.32939290E-02 0.27961377E+03</pdfrwt>
<pdfrwt beam="2">  1       21 0.14044820E+00 0.27961377E+03</pdfrwt>
<totfact> 0.18643349E+05</totfact>
</mgrwt>
</event>
<event>
 8    1  0.9569852E-006  0.2629727E+03  0.7546771E-02  0.1105370E+00
         21   -1    0    0  504  503  0.00000000000E+00  0.00000000000E+00  0.58016675299E+02  0.58016675299E+02  0.00000000000E+00 0. -1.
         21   -1    0    0  503  504 -0.00000000000E+00 -0.00000000000E+00 -0.29799461165E+03  0.29799461165E+03  0.00000000000E+00 0. -1.
         25    2    1    2    0    0  0.61522726012E+01 -0.37258672392E+02 -0.14083020592E+03  0.19205251567E+03  0.12499985101E+03 0.  0.
         25    2    1    2    0    0 -0.61522726012E+01  0.37258672392E+02 -0.99147730429E+02  0.16395877127E+03  0.12500458832E+03 0.  0.
          5    1    3    3  501    0 -0.57361153164E+02 -0.40614904845E+01 -0.50704156050E+02  0.76810149316E+02  0.47000000000E+01 0. -1.
         -5    1    3    3    0  501  0.63513425765E+02 -0.33197181907E+02 -0.90126049868E+02  0.11524236636E+03  0.47000000000E+01 0. -1.
          5    1    4    4  502    0  0.38634394601E+02 -0.38975487952E+01  0.86835908798E+01  0.40066221226E+02  0.47000000000E+01 0.  1.
         -5    1    4    4    0  502 -0.44786667202E+02  0.41156221187E+02 -0.10783132131E+03  0.12389255005E+03  0.47000000000E+01 0.  1.
<mgrwt>
<rscale>  0 0.26297267E+03</rscale>
<asrwt>0</asrwt>
<pdfrwt beam="1">  1       21 0.89256422E-02 0.26297267E+03</pdfrwt>
<pdfrwt beam="2">  1       21 0.45845326E-01 0.26297267E+03</pdfrwt>
<totfact> 0.44541922E+05</totfact>
</mgrwt>
</event>
<event>
 8    1  0.9569852E-006  0.3025937E+03  0.7546771E-02  0.1083951E+00
         21   -1    0    0  504  503  0.00000000000E+00  0.00000000000E+00  0.13663054572E+03  0.13663054572E+03  0.00000000000E+00 0.  1.
         21   -1    0    0  503  504 -0.00000000000E+00 -0.00000000000E+00 -0.16753752357E+03  0.16753752357E+03  0.00000000000E+00 0.  1.
         25    2    1    2    0    0  0.44813675911E+01  0.37764923396E+02 -0.92136534874E+02  0.15987599984E+03  0.12499968869E+03 0.  0.
         25    2    1    2    0    0 -0.44813675911E+01 -0.37764923396E+02  0.61229557020E+02  0.14429206945E+03  0.12499948223E+03 0.  0.
          5    1    3    3  501    0 -0.34522731013E+02  0.70811083434E+02 -0.61885291448E+02  0.10028912100E+03  0.47000000000E+01 0.  1.
         -5    1    3    3    0  501  0.39004098604E+02 -0.33046160038E+02 -0.30251243426E+02  0.59586878840E+02  0.47000000000E+01 0.  1.
          5    1    4    4  502    0 -0.53090228748E+02 -0.23726782923E+02  0.71674210576E+02  0.92416530329E+02  0.47000000000E+01 0.  1.
         -5    1    4    4    0  502  0.48608861157E+02 -0.14038140474E+02 -0.10444653556E+02  0.51875539118E+02  0.47000000000E+01 0.  1.
<mgrwt>
<rscale>  0 0.30259374E+03</rscale>
<asrwt>0</asrwt>
<pdfrwt beam="1">  1       21 0.21020084E-01 0.30259374E+03</pdfrwt>
<pdfrwt beam="2">  1       21 0.25775004E-01 0.30259374E+03</pdfrwt>
<totfact> 0.29295131E+05</totfact>
</mgrwt>
</event>
<event>
 8    1  0.9569852E-006  0.3538508E+03  0.7546771E-02  0.1061046E+00
         21   -1    0    0  504  503  0.00000000000E+00  0.00000000000E+00  0.67006462020E+02  0.67006462020E+02  0.00000000000E+00 0. -1.
         21   -1    0    0  503  504 -0.00000000000E+00 -0.00000000000E+00 -0.46715778700E+03  0.46715778700E+03  0.00000000000E+00 0. -1.
         25    2    1    2    0    0 -0.13181116609E+02 -0.12371170935E+03 -0.17875301675E+03  0.25111115960E+03  0.12500337840E+03 0.  0.
         25    2    1    2    0    0  0.13181116609E+02  0.12371170935E+03 -0.22139830823E+03  0.28305308942E+03  0.12499404657E+03 0.  0.
          5    1    3    3  501    0 -0.48450394089E+02 -0.67523724184E+02 -0.16260435447E+03  0.18267227515E+03  0.47000000000E+01 0. -1.
         -5    1    3    3    0  501  0.35269277480E+02 -0.56187985166E+02 -0.16148662275E+02  0.68438884446E+02  0.47000000000E+01 0. -1.
          5    1    4    4  502    0 -0.14110729390E+02 -0.22806652371E+02 -0.35614463661E+02  0.44830080283E+02  0.47000000000E+01 0. -1.
         -5    1    4    4    0  502  0.27291845999E+02  0.14651836172E+03 -0.18578384457E+03  0.23822300914E+03  0.47000000000E+01 0. -1.
<mgrwt>
<rscale>  0 0.35385076E+03</rscale>
<asrwt>0</asrwt>
<pdfrwt beam="1">  1       21 0.10308686E-01 0.35385076E+03</pdfrwt>
<pdfrwt beam="2">  1       21 0.71870429E-01 0.35385076E+03</pdfrwt>
<totfact> 0.12817346E+05</totfact>
</mgrwt>
</event>
<event>
 8    1  0.9569852E-006  0.3156556E+03  0.7546771E-02  0.1077666E+00
         21   -1    0    0  504  503  0.00000000000E+00  0.00000000000E+00  0.30073369006E+03  0.30073369006E+03  0.00000000000E+00 0. -1.
         21   -1    0    0  503  504 -0.00000000000E+00 -0.00000000000E+00 -0.82829496341E+02  0.82829496341E+02  0.00000000000E+00 0. -1.
         25    2    1    2    0    0 -0.91377087236E+02 -0.24329761140E+02  0.86445631275E+02  0.17899604308E+03  0.12500010769E+03 0.  0.
         25    2    1    2    0    0  0.91377087236E+02  0.24329761140E+02  0.13145856244E+03  0.20456714332E+03  0.12499861255E+03 0.  0.
          5    1    3    3  501    0 -0.93100910719E+02 -0.54334462355E+02  0.98670463162E+02  0.14621205038E+03  0.47000000000E+01 0.  1.
         -5    1    3    3    0  501  0.17238234830E+01  0.30004701215E+02 -0.12224831887E+02  0.32783992696E+02  0.47000000000E+01 0.  1.
          5    1    4    4  502    0  0.78528176937E+02  0.72085068084E+02  0.96037268959E+02  0.14355548977E+03  0.47000000000E+01 0.  1.
         -5    1    4    4    0  502  0.12848910299E+02 -0.47755306944E+02  0.35421293482E+02  0.61011653552E+02  0.47000000000E+01 0.  1.
<mgrwt>
<rscale>  0 0.31565564E+03</rscale>
<asrwt>0</asrwt>
<pdfrwt beam="1">  1       21 0.46266721E-01 0.31565564E+03</pdfrwt>
<pdfrwt beam="2">  1       21 0.12743000E-01 0.31565564E+03</pdfrwt>
<totfact> 0.22859928E+05</totfact>
</mgrwt>
</event>
<event>
 8    1  0.9569852E-006  0.2644104E+03  0.7546771E-02  0.1104522E+00
         21   -1    0    0  504  503  0.00000000000E+00  0.00000000000E+00  0.92869028343E+02  0.92869028343E+02  0.00000000000E+00 0.  1.
         21   -1    0    0  503  504 -0.00000000000E+00 -0.00000000000E+00 -0.18820283408E+03  0.18820283408E+03  0.00000000000E+00 0.  1.
         25    2    1    2    0    0 -0.27083482783E+02  0.27527155713E+02 -0.27443345208E+02  0.13368511844E+03  0.12500925708E+03 0.  0.
         25    2    1    2    0    0  0.27083482783E+02 -0.27527155713E+02 -0.67890460525E+02  0.14738674397E+03  0.12498991290E+03 0.  0.
          5    1    3    3  501    0 -0.48483462241E+02  0.57056360510E+02  0.16063287016E+02  0.76721532670E+02  0.47000000000E+01 0.  1.
         -5    1    3    3    0  501  0.21399979458E+02 -0.29529204797E+02 -0.43506632225E+02  0.56963585775E+02  0.47000000000E+01 0.  1.
          5    1    4    4  502    0  0.52478199911E+02 -0.10686047592E+02  0.17550378924E+02  0.56553150924E+02  0.47000000000E+01 0.  1.
         -5    1    4    4    0  502 -0.25394717129E+02 -0.16841108121E+02 -0.85440839449E+02  0.90833593050E+02  0.47000000000E+01 0.  1.
<mgrwt>
<rscale>  0 0.26441040E+03</rscale>
<asrwt>0</asrwt>
<pdfrwt beam="1">  1       21 0.14287543E-01 0.26441040E+03</pdfrwt>
<pdfrwt beam="2">  1       21 0.28954282E-01 0.26441040E+03</pdfrwt>
<totfact> 0.48248720E+05</totfact>
</mgrwt>
</event>
<event>
 8    1  0.9569852E-006  0.3525904E+03  0.7546771E-02  0.1061557E+00
         21   -1    0    0  504  503  0.00000000000E+00  0.00000000000E+00  0.24936909522E+03  0.24936909522E+03  0.00000000000E+00 0.  1.
         21   -1    0    0  503  504 -0.00000000000E+00 -0.00000000000E+00 -0.12463449545E+03  0.12463449545E+03  0.00000000000E+00 0.  1.
         25    2    1    2    0    0  0.49302051415E+02  0.11110164194E+03  0.90057417785E+02  0.19623705004E+03  0.12499749675E+03 0.  0.
         25    2    1    2    0    0 -0.49302051415E+02 -0.11110164194E+03  0.34677181982E+02  0.17776654062E+03  0.12499667555E+03 0.  0.
          5    1    3    3  501    0 -0.20005177062E+02  0.39386034740E+02 -0.19053897798E+02  0.48338471874E+02  0.47000000000E+01 0. -1.
         -5    1    3    3    0  501  0.69307228477E+02  0.71715607203E+02  0.10911131558E+03  0.14789857817E+03  0.47000000000E+01 0. -1.
          5    1    4    4  502    0 -0.70472219398E+02 -0.40578663041E+02  0.58441550297E+02  0.10025201445E+03  0.47000000000E+01 0.  1.
         -5    1    4    4    0  502  0.21170167983E+02 -0.70522978902E+02 -0.23764368315E+02  0.77514526168E+02  0.47000000000E+01 0.  1.
<mgrwt>
<rscale>  0 0.35259036E+03</rscale>
<asrwt>0</asrwt>
<pdfrwt beam="1">  1       21 0.38364476E-01 0.35259036E+03</pdfrwt>
<pdfrwt beam="2">  1       21 0.19174538E-01 0.35259036E+03</pdfrwt>
<totfact> 0.15671693E+05</totfact>
</mgrwt>
</event>
<event>
 8    1  0.9569852E-006  0.4136619E+03  0.7546771E-02  0.1039149E+00
         21   -1    0    0  504  503  0.00000000000E+00  0.00000000000E+00  0.27885080644E+03  0.27885080644E+03  0.00000000000E+00 0. -1.
         21   -1    0    0  503  504 -0.00000000000E+00 -0.00000000000E+00 -0.15341190227E+03  0.15341190227E+03  0.00000000000E+00 0. -1.
         25    2    1    2    0    0 -0.30448805605E+02 -0.22807109734E+02  0.23025917107E+03  0.26474600137E+03  0.12499546137E+03 0.  0.
         25    2    1    2    0    0  0.30448805605E+02  0.22807109734E+02 -0.10482026690E+03  0.16751670733E+03  0.12500905914E+03 0.  0.
          5    1    3    3  501    0 -0.20372627869E+02 -0.55389044408E+02  0.40124252828E+02  0.71519478967E+02  0.47000000000E+01 0.  1.
         -5    1    3    3    0  501 -0.10076177736E+02  0.32581934675E+02  0.19013491824E+03  0.19322652240E+03  0.47000000000E+01 0.  1.
          5    1    4    4  502    0 -0.34896574997E+02 -0.82287373044E+01  0.44003512957E+01  0.36427134882E+02  0.47000000000E+01 0.  1.
         -5    1    4    4    0  502  0.65345380602E+02  0.31035847038E+02 -0.10922061819E+03  0.13108957245E+03  0.47000000000E+01 0.  1.
<mgrwt>
<rscale>  0 0.41366186E+03</rscale>
<asrwt>0</asrwt>
<pdfrwt beam="1">  1       21 0.42900124E-01 0.41366186E+03</pdfrwt>
<pdfrwt beam="2">  1       21 0.23601831E-01 0.41366186E+03</pdfrwt>
<totfact> 0.82712555E+04</totfact>
</mgrwt>
</event>
<event>
 8    1  0.9569852E-006  0.3062496E+03  0.7546771E-02  0.1082158E+00
         21   -1    0    0  504  503  0.00000000000E+00  0.00000000000E+00  0.40758537913E+02  0.40758537913E+02  0.00000000000E+00 0. -1.
         21   -1    0    0  503  504 -0.00000000000E+00 -0.00000000000E+00 -0.57527082091E+03  0.57527082091E+03  0.00000000000E+00 0. -1.
         25    2    1    2    0    0 -0.85243373500E+02  0.23003931546E+02 -0.27769082021E+03  0.31706968064E+03  0.12500150863E+03 0.  0.
         25    2    1    2    0    0  0.85243373500E+02 -0.23003931546E+02 -0.25682146279E+03  0.29895967819E+03  0.12499604730E+03 0.  0.
          5    1    3    3  501    0  0.10927567423E+01 -0.43539532462E+02 -0.85500370842E+02  0.96069185582E+02  0.47000000000E+01 0.  1.
         -5    1    3    3    0  501 -0.86336130243E+02  0.66543464008E+02 -0.19219044937E+03  0.22100049506E+03  0.47000000000E+01 0.  1.
          5    1    4    4  502    0  0.40438400720E+02 -0.52566621908E+02 -0.44737883754E+02  0.80137895121E+02  0.47000000000E+01 0.  1.
         -5    1    4    4    0  502  0.44804972780E+02  0.29562690362E+02 -0.21208357904E+03  0.21882178307E+03  0.47000000000E+01 0.  1.
<mgrwt>
<rscale>  0 0.30624956E+03</rscale>
<asrwt>0</asrwt>
<pdfrwt beam="1">  1       21 0.62705448E-02 0.30624956E+03</pdfrwt>
<pdfrwt beam="2">  1       21 0.88503196E-01 0.30624956E+03</pdfrwt>
<totfact> 0.19316475E+05</totfact>
</mgrwt>
</event>
<event>
 8    1  0.9569852E-006  0.2752451E+03  0.7546771E-02  0.1098315E+00
         21   -1    0    0  504  503  0.00000000000E+00  0.00000000000E+00  0.13103279830E+03  0.13103279830E+03  0.00000000000E+00 0. -1.
         21   -1    0    0  503  504 -0.00000000000E+00 -0.00000000000E+00 -0.14454370465E+03  0.14454370465E+03  0.00000000000E+00 0. -1.
         25    2    1    2    0    0 -0.47448806353E+02 -0.12774151230E+02 -0.36793409899E+02  0.13926288097E+03  0.12500330732E+03 0.  0.
         25    2    1    2    0    0  0.47448806353E+02  0.12774151230E+02  0.23282503549E+02  0.13631362198E+03  0.12499904161E+03 0.  0.
          5    1    3    3  501    0 -0.75488946636E+02 -0.47210256500E+02 -0.18815215773E+02  0.91123497121E+02  0.47000000000E+01 0. -1.
         -5    1    3    3    0  501  0.28040140283E+02  0.34436105270E+02 -0.17978194126E+02  0.48139383848E+02  0.47000000000E+01 0. -1.
          5    1    4    4  502    0  0.64391527877E+02  0.56787052064E+02  0.22641355526E+02  0.88914335878E+02  0.47000000000E+01 0. -1.
         -5    1    4    4    0  502 -0.16942721524E+02 -0.44012900834E+02  0.64114802299E+00  0.47399286105E+02  0.47000000000E+01 0. -1.
<mgrwt>
<rscale>  0 0.27524510E+03</rscale>
<asrwt>0</asrwt>
<pdfrwt beam="1">  1       21 0.20158892E-01 0.27524510E+03</pdfrwt>
<pdfrwt beam="2">  1       21 0.22237493E-01 0.27524510E+03</pdfrwt>
<totfact> 0.42304086E+05</totfact>
</mgrwt>
</event>
<event>
 8    1  0.9569852E-006  0.3210576E+03  0.7546771E-02  0.1075164E+00
         21   -1    0    0  504  503  0.00000000000E+00  0.00000000000E+00  0.10590593029E+03  0.10590593029E+03  0.00000000000E+00 0. -1.
         21   -1    0    0  503  504 -0.00000000000E+00 -0.00000000000E+00 -0.24332433623E+03  0.24332433623E+03  0.00000000000E+00 0. -1.
         25    2    1    2    0    0  0.30978167598E+02 -0.94749567116E+02 -0.52967941271E+02  0.16842899251E+03  0.12500238150E+03 0.  0.
         25    2    1    2    0    0 -0.30978167598E+02  0.94749567116E+02 -0.84450464669E+02  0.18080127401E+03  0.12498036792E+03 0.  0.
          5    1    3    3  501    0  0.49764007961E+02 -0.12160398755E+02  0.21304023105E+02  0.55680186661E+02  0.47000000000E+01 0. -1.
         -5    1    3    3    0  501 -0.18785840362E+02 -0.82589168361E+02 -0.74271964376E+02  0.11274880585E+03  0.47000000000E+01 0. -1.
          5    1    4    4  502    0 -0.37635628455E+02  0.93506172123E+02 -0.51112578185E+01  0.10103494302E+03  0.47000000000E+01 0. -1.
         -5    1    4    4    0  502  0.66574608566E+01  0.12433949923E+01 -0.79339206850E+02  0.79766330991E+02  0.47000000000E+01 0. -1.
<mgrwt>
<rscale>  0 0.32105757E+03</rscale>
<asrwt>0</asrwt>
<pdfrwt beam="1">  1       21 0.16293220E-01 0.32105757E+03</pdfrwt>
<pdfrwt beam="2">  1       21 0.37434513E-01 0.32105757E+03</pdfrwt>
<totfact> 0.22479381E+05</totfact>
</mgrwt>
</event>
<event>
 8    1  0.9569852E-006  0.3287136E+03  0.7546771E-02  0.1071707E+00
         21   -1    0    0  504  503  0.00000000000E+00  0.00000000000E+00  0.35490562690E+03  0.35490562690E+03  0.00000000000E+00 0.  1.
         21   -1    0    0  503  504 -0.00000000000E+00 -0.00000000000E+00 -0.76113637556E+02  0.76113637556E+02  0.00000000000E+00 0.  1.
         25    2    1    2    0    0  0.14173658031E+02 -0.10236606928E+02  0.13680986464E+01  0.12623011650E+03  0.12500595951E+03 0.  0.
         25    2    1    2    0    0 -0.14173658031E+02  0.10236606928E+02  0.27742389070E+03  0.30478914795E+03  0.12500691533E+03 0.  0.
          5    1    3    3  501    0  0.27756226798E+02  0.51145787060E+02 -0.16565873167E+02  0.60686224251E+02  0.47000000000E+01 0. -1.
         -5    1    3    3    0  501 -0.13582568767E+02 -0.61382393988E+02  0.17933971814E+02  0.65543892248E+02  0.47000000000E+01 0. -1.
          5    1    4    4  502    0 -0.27481737094E+01 -0.47029056775E+02  0.45798683716E+02  0.65870282145E+02  0.47000000000E+01 0.  1.
         -5    1    4    4    0  502 -0.11425484321E+02  0.57265663703E+02  0.23162520698E+03  0.23891886581E+03  0.47000000000E+01 0.  1.
<mgrwt>
<rscale>  0 0.32871360E+03</rscale>
<asrwt>0</asrwt>
<pdfrwt beam="1">  1       21 0.54600865E-01 0.32871360E+03</pdfrwt>
<pdfrwt beam="2">  1       21 0.11709791E-01 0.32871360E+03</pdfrwt>
<totfact> 0.18725383E+05</totfact>
</mgrwt>
</event>
<event>
 8    1  0.9569852E-006  0.2921739E+03  0.7546771E-02  0.1089220E+00
         21   -1    0    0  504  503  0.00000000000E+00  0.00000000000E+00  0.27033940152E+04  0.27033940152E+04  0.00000000000E+00 0.  1.
         21   -1    0    0  503  504 -0.00000000000E+00 -0.00000000000E+00 -0.78942976241E+01  0.78942976241E+01  0.00000000000E+00 0.  1.
         25    2    1    2    0    0  0.55239712994E+02  0.34993870948E+02  0.17000737894E+04  0.17059164841E+04  0.12499665750E+03 0.  0.
         25    2    1    2    0    0 -0.55239712994E+02 -0.34993870948E+02  0.99542592815E+03  0.10053718287E+04  0.12499495443E+03 0.  0.
          5    1    3    3  501    0  0.46489768107E+02  0.29518335106E+02  0.26052904287E+03  0.26632705988E+03  0.47000000000E+01 0.  1.
         -5    1    3    3    0  501  0.87499448872E+01  0.54755358423E+01  0.14395447466E+04  0.14395894243E+04  0.47000000000E+01 0.  1.
          5    1    4    4  502    0 -0.34157541778E+02 -0.32421631387E+02  0.11088089820E+03  0.12055937718E+03  0.47000000000E+01 0.  1.
         -5    1    4    4    0  502 -0.21082171216E+02 -0.25722395616E+01  0.88454502995E+03  0.88481245152E+03  0.47000000000E+01 0.  1.
<mgrwt>
<rscale>  0 0.29217390E+03</rscale>
<asrwt>0</asrwt>
<pdfrwt beam="1">  1       21 0.41590603E+00 0.29217390E+03</pdfrwt>
<pdfrwt beam="2">  1       21 0.12145095E-02 0.29217390E+03</pdfrwt>
<totfact> 0.17246804E+04</totfact>
</mgrwt>
</event>
<event>
 8    1  0.9569852E-006  0.2770750E+03  0.7546771E-02  0.1097297E+00
         21   -1    0    0  504  503  0.00000000000E+00  0.00000000000E+00  0.49935235173E+03  0.49935235173E+03  0.00000000000E+00 0.  1.
         21   -1    0    0  503  504 -0.00000000000E+00 -0.00000000000E+00 -0.38435075426E+02  0.38435075426E+02  0.00000000000E+00 0.  1.
         25    2    1    2    0    0 -0.22302012817E+02 -0.22906993524E+02  0.13252437887E+03  0.18495865330E+03  0.12499952923E+03 0.  0.
         25    2    1    2    0    0  0.22302012817E+02  0.22906993524E+02  0.32839289743E+03  0.35282877385E+03  0.12499655374E+03 0.  0.
          5    1    3    3  501    0  0.31334276484E+02  0.35615648073E+02  0.65179612548E+02  0.80751366318E+02  0.47000000000E+01 0.  1.
         -5    1    3    3    0  501 -0.53636289301E+02 -0.58522641597E+02  0.67344766325E+02  0.10420728698E+03  0.47000000000E+01 0.  1.
          5    1    4    4  502    0  0.64647159580E+02  0.94583389611E+01  0.96247623746E+02  0.11642341042E+03  0.47000000000E+01 0.  1.
         -5    1    4    4    0  502 -0.42345146763E+02  0.13448654563E+02  0.23214527368E+03  0.23640536343E+03  0.47000000000E+01 0.  1.
<mgrwt>
<rscale>  0 0.27707505E+03</rscale>
<asrwt>0</asrwt>
<pdfrwt beam="1">  1       21 0.76823434E-01 0.27707505E+03</pdfrwt>
<pdfrwt beam="2">  1       21 0.59130889E-02 0.27707505E+03</pdfrwt>
<totfact> 0.29803688E+05</totfact>
</mgrwt>
</event>
<event>
 8    1  0.9569852E-006  0.3691803E+03  0.7546771E-02  0.1055007E+00
         21   -1    0    0  504  503  0.00000000000E+00  0.00000000000E+00  0.54055682276E+03  0.54055682276E+03  0.00000000000E+00 0. -1.
         21   -1    0    0  503  504 -0.00000000000E+00 -0.00000000000E+00 -0.63034113832E+02  0.63034113832E+02  0.00000000000E+00 0. -1.
         25    2    1    2    0    0  0.79984304607E+02 -0.10818988182E+03  0.26915512587E+03  0.32584259019E+03  0.12500548903E+03 0.  0.
         25    2    1    2    0    0 -0.79984304607E+02  0.10818988182E+03  0.20836758306E+03  0.27774834641E+03  0.12499821899E+03 0.  0.
          5    1    3    3  501    0  0.59045963124E+02  0.73870757665E+01  0.53162345495E+02  0.79933219803E+02  0.47000000000E+01 0.  1.
         -5    1    3    3    0  501  0.20938341484E+02 -0.11557695759E+03  0.21599278037E+03  0.24590937038E+03  0.47000000000E+01 0.  1.
          5    1    4    4  502    0  0.25588773170E+02  0.57683075655E+02  0.99019034245E+02  0.11751162356E+03  0.47000000000E+01 0.  1.
         -5    1    4    4    0  502 -0.10557307778E+03  0.50506806164E+02  0.10934854881E+03  0.16023672284E+03  0.47000000000E+01 0.  1.
<mgrwt>
<rscale>  0 0.36918028E+03</rscale>
<asrwt>0</asrwt>
<pdfrwt beam="1">  1       21 0.83162585E-01 0.36918028E+03</pdfrwt>
<pdfrwt beam="2">  1       21 0.96975563E-02 0.36918028E+03</pdfrwt>
<totfact> 0.10212590E+05</totfact>
</mgrwt>
</event>
<event>
 8    1  0.9569852E-006  0.2635361E+03  0.7546771E-02  0.1105037E+00
         21   -1    0    0  504  503  0.00000000000E+00  0.00000000000E+00  0.16216506101E+03  0.16216506101E+03  0.00000000000E+00 0.  1.
         21   -1    0    0  503  504 -0.00000000000E+00 -0.00000000000E+00 -0.10706882034E+03  0.10706882034E+03  0.00000000000E+00 0.  1.
         25    2    1    2    0    0  0.20522855379E+02  0.34013307200E+02  0.14652006937E+02  0.13197780576E+03  0.12500146897E+03 0.  0.
         25    2    1    2    0    0 -0.20522855379E+02 -0.34013307200E+02  0.40444233733E+02  0.13725607559E+03  0.12500160633E+03 0.  0.
          5    1    3    3  501    0  0.17637994768E+02  0.10203591925E+02 -0.54638405179E+02  0.58503482530E+02  0.47000000000E+01 0.  1.
         -5    1    3    3    0  501  0.28848606110E+01  0.23809715275E+02  0.69290412116E+02  0.73474323226E+02  0.47000000000E+01 0.  1.
          5    1    4    4  502    0  0.48570751027E+02 -0.23640827356E+02 -0.39128276949E+01  0.54363653243E+02  0.47000000000E+01 0.  1.
         -5    1    4    4    0  502 -0.69093606406E+02 -0.10372479845E+02  0.44357061428E+02  0.82892422348E+02  0.47000000000E+01 0.  1.
<mgrwt>
<rscale>  0 0.26353612E+03</rscale>
<asrwt>0</asrwt>
<pdfrwt beam="1">  1       21 0.24948471E-01 0.26353612E+03</pdfrwt>
<pdfrwt beam="2">  1       21 0.16472126E-01 0.26353612E+03</pdfrwt>
<totfact> 0.49589934E+05</totfact>
</mgrwt>
</event>
<event>
 8    1  0.9569852E-006  0.3022904E+03  0.7546771E-02  0.1084101E+00
         21   -1    0    0  504  503  0.00000000000E+00  0.00000000000E+00  0.20303773822E+03  0.20303773822E+03  0.00000000000E+00 0. -1.
         21   -1    0    0  503  504 -0.00000000000E+00 -0.00000000000E+00 -0.11251537410E+03  0.11251537410E+03  0.00000000000E+00 0. -1.
         25    2    1    2    0    0  0.59809909684E+01  0.50462689623E+02  0.11634940259E+03  0.17816951384E+03  0.12499974752E+03 0.  0.
         25    2    1    2    0    0 -0.59809909684E+01 -0.50462689623E+02 -0.25827038471E+02  0.13738359848E+03  0.12499984767E+03 0.  0.
          5    1    3    3  501    0 -0.50882427390E+02  0.25197725433E+02  0.97600745562E+02  0.11301301836E+03  0.47000000000E+01 0. -1.
         -5    1    3    3    0  501  0.56863418358E+02  0.25264964190E+02  0.18748657029E+02  0.65156495481E+02  0.47000000000E+01 0. -1.
          5    1    4    4  502    0  0.35119732552E+02  0.17238863046E+02  0.21613147972E+02  0.44942098069E+02  0.47000000000E+01 0. -1.
         -5    1    4    4    0  502 -0.41100723520E+02 -0.67701552669E+02 -0.47440186442E+02  0.92441500406E+02  0.47000000000E+01 0. -1.
<mgrwt>
<rscale>  0 0.30229037E+03</rscale>
<asrwt>0</asrwt>
<pdfrwt beam="1">  1       21 0.31236575E-01 0.30229037E+03</pdfrwt>
<pdfrwt beam="2">  1       21 0.17310058E-01 0.30229037E+03</pdfrwt>
<totfact> 0.28968085E+05</totfact>
</mgrwt>
</event>
<event>
 8    1  0.9569852E-006  0.3286206E+03  0.7546771E-02  0.1071749E+00
         21   -1    0    0  504  503  0.00000000000E+00  0.00000000000E+00  0.35063773474E+02  0.35063773474E+02  0.00000000000E+00 0.  1.
         21   -1    0    0  503  504 -0.00000000000E+00 -0.00000000000E+00 -0.76996469673E+03  0.76996469673E+03  0.00000000000E+00 0.  1.
         25    2    1    2    0    0 -0.75922064146E+02  0.72213932553E+02 -0.41611006650E+03  0.44693514558E+03  0.12499770014E+03 0.  0.
         25    2    1    2    0    0  0.75922064146E+02 -0.72213932553E+02 -0.31879085676E+03  0.35809332463E+03  0.12499682758E+03 0.  0.
          5    1    3    3  501    0  0.28512941545E+02  0.10485923658E+02 -0.16712165364E+03  0.16992551176E+03  0.47000000000E+01 0.  1.
         -5    1    3    3    0  501 -0.10443500569E+03  0.61728008895E+02 -0.24898841285E+03  0.27700963382E+03  0.47000000000E+01 0.  1.
          5    1    4    4  502    0  0.55630922731E+02 -0.10634638427E+03 -0.26607205002E+03  0.29192598174E+03  0.47000000000E+01 0.  1.
         -5    1    4    4    0  502  0.20291141415E+02  0.34132451719E+02 -0.52718806740E+02  0.66167342884E+02  0.47000000000E+01 0.  1.
<mgrwt>
<rscale>  0 0.32862056E+03</rscale>
<asrwt>0</asrwt>
<pdfrwt beam="1">  1       21 0.53944264E-02 0.32862056E+03</pdfrwt>
<pdfrwt beam="2">  1       21 0.11845611E+00 0.32862056E+03</pdfrwt>
<totfact> 0.12310225E+05</totfact>
</mgrwt>
</event>
<event>
 8    1  0.9569852E-006  0.3389736E+03  0.7546771E-02  0.1067234E+00
         21   -1    0    0  504  503  0.00000000000E+00  0.00000000000E+00  0.15132910627E+03  0.15132910627E+03  0.00000000000E+00 0. -1.
         21   -1    0    0  503  504 -0.00000000000E+00 -0.00000000000E+00 -0.18982316697E+03  0.18982316697E+03  0.00000000000E+00 0. -1.
         25    2    1    2    0    0  0.77483789835E+02  0.50128570855E+02 -0.87369707509E+02  0.17826612420E+03  0.12501493488E+03 0.  0.
         25    2    1    2    0    0 -0.77483789835E+02 -0.50128570855E+02  0.48875646813E+02  0.16288614904E+03  0.12500582944E+03 0.  0.
          5    1    3    3  501    0  0.65573482775E+02  0.22406617864E+02 -0.11677787956E+03  0.13587163546E+03  0.47000000000E+01 0. -1.
         -5    1    3    3    0  501  0.11910307060E+02  0.27721952991E+02  0.29408172052E+02  0.42394488738E+02  0.47000000000E+01 0. -1.
          5    1    4    4  502    0  0.16482094853E+02 -0.18817858600E+02 -0.27688498444E+02  0.37610027907E+02  0.47000000000E+01 0.  1.
         -5    1    4    4    0  502 -0.93965884688E+02 -0.31310712255E+02  0.76564145258E+02  0.12527612113E+03  0.47000000000E+01 0.  1.
<mgrwt>
<rscale>  0 0.33897357E+03</rscale>
<asrwt>0</asrwt>
<pdfrwt beam="1">  1       21 0.23281401E-01 0.33897357E+03</pdfrwt>
<pdfrwt beam="2">  1       21 0.29203564E-01 0.33897357E+03</pdfrwt>
<totfact> 0.18755546E+05</totfact>
</mgrwt>
</event>
<event>
 8    1  0.9569852E-006  0.3079786E+03  0.7546771E-02  0.1081319E+00
         21   -1    0    0  504  503  0.00000000000E+00  0.00000000000E+00  0.40546631986E+02  0.40546631986E+02  0.00000000000E+00 0.  1.
         21   -1    0    0  503  504 -0.00000000000E+00 -0.00000000000E+00 -0.58482545322E+03  0.58482545322E+03  0.00000000000E+00 0.  1.
         25    2    1    2    0    0 -0.19992734714E+02 -0.32497582051E+02 -0.43755406047E+03  0.45665585927E+03  0.12500086275E+03 0.  0.
         25    2    1    2    0    0  0.19992734714E+02  0.32497582051E+02 -0.10672476076E+03  0.16871622593E+03  0.12497675005E+03 0.  0.
          5    1    3    3  501    0 -0.37693934729E+02  0.76622648247E+01 -0.38943804363E+03  0.39136124342E+03  0.47000000000E+01 0.  1.
         -5    1    3    3    0  501  0.17701200016E+02 -0.40159846876E+02 -0.48116016839E+02  0.65294615855E+02  0.47000000000E+01 0.  1.
          5    1    4    4  502    0  0.29763388607E+02 -0.41850364562E+02 -0.23739937482E+02  0.56771356748E+02  0.47000000000E+01 0.  1.
         -5    1    4    4    0  502 -0.97706538937E+01  0.74347946613E+02 -0.82984823275E+02  0.11194486919E+03  0.47000000000E+01 0.  1.
<mgrwt>
<rscale>  0 0.30797859E+03</rscale>
<asrwt>0</asrwt>
<pdfrwt beam="1">  1       21 0.62379432E-02 0.30797859E+03</pdfrwt>
<pdfrwt beam="2">  1       21 0.89973149E-01 0.30797859E+03</pdfrwt>
<totfact> 0.18746840E+05</totfact>
</mgrwt>
</event>
<event>
 8    1  0.9569852E-006  0.2892745E+03  0.7546771E-02  0.1090729E+00
         21   -1    0    0  504  503  0.00000000000E+00  0.00000000000E+00  0.26823404597E+03  0.26823404597E+03  0.00000000000E+00 0.  1.
         21   -1    0    0  503  504 -0.00000000000E+00 -0.00000000000E+00 -0.77991323432E+02  0.77991323432E+02  0.00000000000E+00 0.  1.
         25    2    1    2    0    0 -0.19499505359E+02 -0.41043202854E+02  0.27097472727E+02  0.13573670550E+03  0.12500161992E+03 0.  0.
         25    2    1    2    0    0  0.19499505359E+02  0.41043202854E+02  0.16314524981E+03  0.21048866391E+03  0.12499731952E+03 0.  0.
          5    1    3    3  501    0 -0.33773916497E+02  0.12041753559E+02  0.61048856520E+02  0.70955860552E+02  0.47000000000E+01 0. -1.
         -5    1    3    3    0  501  0.14274411138E+02 -0.53084956412E+02 -0.33951383793E+02  0.64780844948E+02  0.47000000000E+01 0. -1.
          5    1    4    4  502    0  0.24115960351E+02 -0.39766803164E+02  0.33241224564E+02  0.57358932941E+02  0.47000000000E+01 0. -1.
         -5    1    4    4    0  502 -0.46164549921E+01  0.80810006018E+02  0.12990402525E+03  0.15312973097E+03  0.47000000000E+01 0. -1.
<mgrwt>
<rscale>  0 0.28927446E+03</rscale>
<asrwt>0</asrwt>
<pdfrwt beam="1">  1       21 0.41266776E-01 0.28927446E+03</pdfrwt>
<pdfrwt beam="2">  1       21 0.11998665E-01 0.28927446E+03</pdfrwt>
<totfact> 0.32464924E+05</totfact>
</mgrwt>
</event>
<event>
 8    1  0.9569852E-006  0.2892701E+03  0.7546771E-02  0.1090731E+00
         21   -1    0    0  504  503  0.00000000000E+00  0.00000000000E+00  0.16170277238E+03  0.16170277238E+03  0.00000000000E+00 0.  1.
         21   -1    0    0  503  504 -0.00000000000E+00 -0.00000000000E+00 -0.12936878811E+03  0.12936878811E+03  0.00000000000E+00 0.  1.
         25    2    1    2    0    0 -0.28970364402E+02 -0.13876205501E+02  0.81860010873E+02  0.15283543462E+03  0.12500311037E+03 0.  0.
         25    2    1    2    0    0  0.28970364402E+02  0.13876205501E+02 -0.49526026604E+02  0.13823612587E+03  0.12499827235E+03 0.  0.
          5    1    3    3  501    0  0.46246901690E+02 -0.97463611045E+01  0.98273545755E+01  0.48501900671E+02  0.47000000000E+01 0. -1.
         -5    1    3    3    0  501 -0.75217266092E+02 -0.41298443967E+01  0.72032656297E+02  0.10433353395E+03  0.47000000000E+01 0. -1.
          5    1    4    4  502    0 -0.22339623453E+02  0.36974539559E+02  0.20693564101E+02  0.48129917378E+02  0.47000000000E+01 0. -1.
         -5    1    4    4    0  502  0.51309987855E+02 -0.23098334058E+02 -0.70219590706E+02  0.90106208492E+02  0.47000000000E+01 0. -1.
<mgrwt>
<rscale>  0 0.28927006E+03</rscale>
<asrwt>0</asrwt>
<pdfrwt beam="1">  1       21 0.24877349E-01 0.28927006E+03</pdfrwt>
<pdfrwt beam="2">  1       21 0.19902891E-01 0.28927006E+03</pdfrwt>
<totfact> 0.34870880E+05</totfact>
</mgrwt>
</event>
<event>
 8    1  0.9569852E-006  0.4067651E+03  0.7546771E-02  0.1041462E+00
         21   -1    0    0  504  503  0.00000000000E+00  0.00000000000E+00  0.12365160630E+04  0.12365160630E+04  0.00000000000E+00 0.  1.
         21   -1    0    0  503  504 -0.00000000000E+00 -0.00000000000E+00 -0.33452420167E+02  0.33452420167E+02  0.00000000000E+00 0.  1.
         25    2    1    2    0    0 -0.27287141721E+02  0.10701088577E+02  0.10939873875E+04  0.11014958868E+04  0.12500273279E+03 0.  0.
         25    2    1    2    0    0  0.27287141721E+02 -0.10701088577E+02  0.10907625537E+03  0.16847259641E+03  0.12500513932E+03 0.  0.
          5    1    3    3  501    0  0.78681074890E+01  0.34531563481E+02  0.96407167204E+03  0.96473344237E+03  0.47000000000E+01 0.  1.
         -5    1    3    3    0  501 -0.35155249210E+02 -0.23830474904E+02  0.12991571547E+03  0.13676244444E+03  0.47000000000E+01 0.  1.
          5    1    4    4  502    0 -0.48686353891E+01  0.28693536497E+02 -0.15878402770E+02  0.33484867056E+02  0.47000000000E+01 0. -1.
         -5    1    4    4    0  502  0.32155777110E+02 -0.39394625074E+02  0.12495465814E+03  0.13498772935E+03  0.47000000000E+01 0. -1.
<mgrwt>
<rscale>  0 0.40676507E+03</rscale>
<asrwt>0</asrwt>
<pdfrwt beam="1">  1       21 0.19023321E+00 0.40676507E+03</pdfrwt>
<pdfrwt beam="2">  1       21 0.51465271E-02 0.40676507E+03</pdfrwt>
<totfact> 0.36038698E+04</totfact>
</mgrwt>
</event>
<event>
 8    1  0.9569852E-006  0.2882107E+03  0.7546771E-02  0.1091287E+00
         21   -1    0    0  504  503  0.00000000000E+00  0.00000000000E+00  0.35787194072E+03  0.35787194072E+03  0.00000000000E+00 0.  1.
         21   -1    0    0  503  504 -0.00000000000E+00 -0.00000000000E+00 -0.58027337975E+02  0.58027337975E+02  0.00000000000E+00 0.  1.
         25    2    1    2    0    0  0.45490007776E+02 -0.34898761951E+02  0.87754321726E+02  0.16312532411E+03  0.12498714331E+03 0.  0.
         25    2    1    2    0    0 -0.45490007776E+02  0.34898761951E+02  0.21209028102E+03  0.25277395458E+03  0.12500048167E+03 0.  0.
          5    1    3    3  501    0 -0.34373388543E+02 -0.40578206153E+02  0.16600228938E+02  0.55908659932E+02  0.47000000000E+01 0.  1.
         -5    1    3    3    0  501  0.79863396319E+02  0.56794442021E+01  0.71154092788E+02  0.10721666418E+03  0.47000000000E+01 0.  1.
          5    1    4    4  502    0 -0.12909348379E+02 -0.22677051822E+02 -0.39285144692E+01  0.26803417335E+02  0.47000000000E+01 0.  1.
         -5    1    4    4    0  502 -0.32580659397E+02  0.57575813773E+02  0.21601879549E+03  0.22597053725E+03  0.47000000000E+01 0.  1.
<mgrwt>
<rscale>  0 0.28821073E+03</rscale>
<asrwt>0</asrwt>
<pdfrwt beam="1">  1       21 0.55057220E-01 0.28821073E+03</pdfrwt>
<pdfrwt beam="2">  1       21 0.89272830E-02 0.28821073E+03</pdfrwt>
<totfact> 0.30134418E+05</totfact>
</mgrwt>
</event>
<event>
 8    1  0.9569852E-006  0.2797877E+03  0.7546771E-02  0.1095805E+00
         21   -1    0    0  504  503  0.00000000000E+00  0.00000000000E+00  0.77136673197E+02  0.77136673197E+02  0.00000000000E+00 0. -1.
         21   -1    0    0  503  504 -0.00000000000E+00 -0.00000000000E+00 -0.25370927021E+03  0.25370927021E+03  0.00000000000E+00 0. -1.
         25    2    1    2    0    0  0.59215400984E+02  0.58610070685E+01 -0.64605387495E+02  0.15277856972E+03  0.12500648045E+03 0.  0.
         25    2    1    2    0    0 -0.59215400984E+02 -0.58610070685E+01 -0.11196720952E+03  0.17806737368E+03  0.12502207183E+03 0.  0.
          5    1    3    3  501    0  0.30523448530E+02  0.76711880907E+00 -0.10117298550E+03  0.10578436735E+03  0.47000000000E+01 0.  1.
         -5    1    3    3    0  501  0.28691952455E+02  0.50938882594E+01  0.36567598000E+02  0.46994202374E+02  0.47000000000E+01 0.  1.
          5    1    4    4  502    0 -0.57563596534E+02  0.29556523388E+02 -0.47618966794E+01  0.65053219603E+02  0.47000000000E+01 0.  1.
         -5    1    4    4    0  502 -0.16518044500E+01 -0.35417530456E+02 -0.10720531284E+03  0.11301415408E+03  0.47000000000E+01 0.  1.
<mgrwt>
<rscale>  0 0.27978770E+03</rscale>
<asrwt>0</asrwt>
<pdfrwt beam="1">  1       21 0.11867181E-01 0.27978770E+03</pdfrwt>
<pdfrwt beam="2">  1       21 0.39032195E-01 0.27978770E+03</pdfrwt>
<totfact> 0.37168600E+05</totfact>
</mgrwt>
</event>
<event>
 8    1  0.9569852E-006  0.2602164E+03  0.7546771E-02  0.1107013E+00
         21   -1    0    0  504  503  0.00000000000E+00  0.00000000000E+00  0.80791465674E+02  0.80791465674E+02  0.00000000000E+00 0. -1.
         21   -1    0    0  503  504 -0.00000000000E+00 -0.00000000000E+00 -0.20952892893E+03  0.20952892893E+03  0.00000000000E+00 0. -1.
         25    2    1    2    0    0  0.25124295703E+02 -0.25874572214E+02 -0.62879976944E+02  0.14450232222E+03  0.12500522351E+03 0.  0.
         25    2    1    2    0    0 -0.25124295703E+02  0.25874572214E+02 -0.65857486307E+02  0.14581807237E+03  0.12499991203E+03 0.  0.
          5    1    3    3  501    0 -0.15149045735E+02  0.12698263207E+02 -0.82679703732E+02  0.85139666927E+02  0.47000000000E+01 0. -1.
         -5    1    3    3    0  501  0.40273341439E+02 -0.38572835421E+02  0.19799726788E+02  0.59362655298E+02  0.47000000000E+01 0. -1.
          5    1    4    4  502    0 -0.66745254891E+01 -0.37917891691E+02 -0.69018107745E+02  0.79170101664E+02  0.47000000000E+01 0. -1.
         -5    1    4    4    0  502 -0.18449770214E+02  0.63792463905E+02  0.31606214376E+01  0.66647970711E+02  0.47000000000E+01 0. -1.
<mgrwt>
<rscale>  0 0.26021644E+03</rscale>
<asrwt>0</asrwt>
<pdfrwt beam="1">  1       21 0.12429456E-01 0.26021644E+03</pdfrwt>
<pdfrwt beam="2">  1       21 0.32235220E-01 0.26021644E+03</pdfrwt>
<totfact> 0.50349594E+05</totfact>
</mgrwt>
</event>
<event>
 8    1  0.9569852E-006  0.2698645E+03  0.7546771E-02  0.1101357E+00
         21   -1    0    0  504  503  0.00000000000E+00  0.00000000000E+00  0.43829582995E+02  0.43829582995E+02  0.00000000000E+00 0. -1.
         21   -1    0    0  503  504 -0.00000000000E+00 -0.00000000000E+00 -0.41539791915E+03  0.41539791915E+03  0.00000000000E+00 0. -1.
         25    2    1    2    0    0  0.25440098816E+02 -0.31429858727E+02 -0.23811480109E+03  0.27195536972E+03  0.12500411982E+03 0.  0.
         25    2    1    2    0    0 -0.25440098816E+02  0.31429858727E+02 -0.13345353507E+03  0.18727213243E+03  0.12500388360E+03 0.  0.
          5    1    3    3  501    0  0.58495596712E+02  0.22296538181E+02 -0.15704458004E+03  0.16912705452E+03  0.47000000000E+01 0.  1.
         -5    1    3    3    0  501 -0.33055497896E+02 -0.53726396908E+02 -0.81070221048E+02  0.10282831520E+03  0.47000000000E+01 0.  1.
          5    1    4    4  502    0 -0.19225609824E+02 -0.27447928066E+02  0.71971516125E+01  0.34596268867E+02  0.47000000000E+01 0.  1.
         -5    1    4    4    0  502 -0.62144889926E+01  0.58877786792E+02 -0.14065068668E+03  0.15267586356E+03  0.47000000000E+01 0.  1.
<mgrwt>
<rscale>  0 0.26986454E+03</rscale>
<asrwt>0</asrwt>
<pdfrwt beam="1">  1       21 0.67430128E-02 0.26986454E+03</pdfrwt>
<pdfrwt beam="2">  1       21 0.63907372E-01 0.26986454E+03</pdfrwt>
<totfact> 0.35825392E+05</totfact>
</mgrwt>
</event>
<event>
 8    1  0.9569852E-006  0.3253579E+03  0.7546771E-02  0.1073210E+00
         21   -1    0    0  504  503  0.00000000000E+00  0.00000000000E+00  0.12202444299E+02  0.12202444299E+02  0.00000000000E+00 0. -1.
         21   -1    0    0  503  504 -0.00000000000E+00 -0.00000000000E+00 -0.21687816012E+04  0.21687816012E+04  0.00000000000E+00 0. -1.
         25    2    1    2    0    0  0.91913940295E+02  0.46732812742E+02 -0.98173801906E+03  0.99502075934E+03  0.12499858100E+03 0.  0.
         25    2    1    2    0    0 -0.91913940295E+02 -0.46732812742E+02 -0.11748411378E+04  0.11859632861E+04  0.12500035493E+03 0.  0.
          5    1    3    3  501    0  0.79039620719E+02 -0.75806390896E+01 -0.82016614631E+03  0.82401415357E+03  0.47000000000E+01 0. -1.
         -5    1    3    3    0  501  0.12874319576E+02  0.54313451832E+02 -0.16157187275E+03  0.17100660577E+03  0.47000000000E+01 0. -1.
          5    1    4    4  502    0 -0.99950982734E+02  0.12981313260E+02 -0.67995883789E+03  0.68740441130E+03  0.47000000000E+01 0.  1.
         -5    1    4    4    0  502  0.80370424389E+01 -0.59714126002E+02 -0.49488229992E+03  0.49855887483E+03  0.47000000000E+01 0.  1.
<mgrwt>
<rscale>  0 0.32535787E+03</rscale>
<asrwt>0</asrwt>
<pdfrwt beam="1">  1       21 0.18772996E-02 0.32535787E+03</pdfrwt>
<pdfrwt beam="2">  1       21 0.33365863E+00 0.32535787E+03</pdfrwt>
<totfact> 0.26768292E+04</totfact>
</mgrwt>
</event>
<event>
 8    1  0.9569852E-006  0.2811518E+03  0.7546771E-02  0.1095062E+00
         21   -1    0    0  504  503  0.00000000000E+00  0.00000000000E+00  0.90597788138E+01  0.90597788138E+01  0.00000000000E+00 0. -1.
         21   -1    0    0  503  504 -0.00000000000E+00 -0.00000000000E+00 -0.21812427862E+04  0.21812427862E+04  0.00000000000E+00 0. -1.
         25    2    1    2    0    0 -0.26337953024E+02  0.22739386616E+02 -0.66470830827E+03  0.67725441469E+03  0.12500255864E+03 0.  0.
         25    2    1    2    0    0  0.26337953024E+02 -0.22739386616E+02 -0.15074746991E+04  0.15130481503E+04  0.12499587688E+03 0.  0.
          5    1    3    3  501    0 -0.55304703993E+02 -0.13641539960E+02 -0.55591253118E+03  0.55884303183E+03  0.47000000000E+01 0. -1.
         -5    1    3    3    0  501  0.28966750969E+02  0.36380926576E+02 -0.10879577709E+03  0.11841138286E+03  0.47000000000E+01 0. -1.
          5    1    4    4  502    0  0.37371079626E+02 -0.35914435231E+02 -0.14757177348E+04  0.14766351503E+04  0.47000000000E+01 0. -1.
         -5    1    4    4    0  502 -0.11033126602E+02  0.13175048615E+02 -0.31756964268E+02  0.36412999988E+02  0.47000000000E+01 0. -1.
<mgrwt>
<rscale>  0 0.28115175E+03</rscale>
<asrwt>0</asrwt>
<pdfrwt beam="1">  1       21 0.13938100E-02 0.28115175E+03</pdfrwt>
<pdfrwt beam="2">  1       21 0.33557631E+00 0.28115175E+03</pdfrwt>
<totfact> 0.43572469E+04</totfact>
</mgrwt>
</event>
<event>
 8    1  0.9569852E-006  0.2562573E+03  0.7546771E-02  0.1109413E+00
         21   -1    0    0  504  503  0.00000000000E+00  0.00000000000E+00  0.43340505156E+03  0.43340505156E+03  0.00000000000E+00 0.  1.
         21   -1    0    0  503  504 -0.00000000000E+00 -0.00000000000E+00 -0.37878997831E+02  0.37878997831E+02  0.00000000000E+00 0.  1.
         25    2    1    2    0    0  0.96137745845E+01  0.26105926346E+02  0.20546027795E+03  0.24210642678E+03  0.12501060764E+03 0.  0.
         25    2    1    2    0    0 -0.96137745845E+01 -0.26105926346E+02  0.19006577578E+03  0.22917762261E+03  0.12499375796E+03 0.  0.
          5    1    3    3  501    0  0.11377635159E+02 -0.19973618456E+02 -0.71297829504E+01  0.24521823361E+02  0.47000000000E+01 0. -1.
         -5    1    3    3    0  501 -0.17638605742E+01  0.46079544801E+02  0.21259006090E+03  0.21758460342E+03  0.47000000000E+01 0. -1.
          5    1    4    4  502    0 -0.16713126668E+02  0.46673238150E+02  0.47180100497E+02  0.68598627139E+02  0.47000000000E+01 0.  1.
         -5    1    4    4    0  502  0.70993520836E+01 -0.72779164496E+02  0.14288567528E+03  0.16057899547E+03  0.47000000000E+01 0.  1.
<mgrwt>
<rscale>  0 0.25625728E+03</rscale>
<asrwt>0</asrwt>
<pdfrwt beam="1">  1       21 0.66677697E-01 0.25625728E+03</pdfrwt>
<pdfrwt beam="2">  1       21 0.58275384E-02 0.25625728E+03</pdfrwt>
<totfact> 0.42115942E+05</totfact>
</mgrwt>
</event>
<event>
 8    1  0.9569852E-006  0.2547226E+03  0.7546771E-02  0.1110356E+00
         21   -1    0    0  504  503  0.00000000000E+00  0.00000000000E+00  0.14449604769E+04  0.14449604769E+04  0.00000000000E+00 0. -1.
         21   -1    0    0  503  504 -0.00000000000E+00 -0.00000000000E+00 -0.11225841761E+02  0.11225841761E+02  0.00000000000E+00 0. -1.
         25    2    1    2    0    0  0.17586774709E+02 -0.12656348292E+02  0.65256306402E+03  0.66478039480E+03  0.12499977196E+03 0.  0.
         25    2    1    2    0    0 -0.17586774709E+02  0.12656348292E+02  0.78117157108E+03  0.79140592382E+03  0.12499933999E+03 0.  0.
          5    1    3    3  501    0  0.36294583641E+01 -0.16558207032E+02  0.64886380025E+03  0.64910220187E+03  0.47000000000E+01 0.  1.
         -5    1    3    3    0  501  0.13957316345E+02  0.39018587406E+01  0.36992637634E+01  0.15678192931E+02  0.47000000000E+01 0.  1.
          5    1    4    4  502    0  0.51371671917E+02  0.17358997423E+02  0.43312229453E+03  0.43652880258E+03  0.47000000000E+01 0.  1.
         -5    1    4    4    0  502 -0.68958446626E+02 -0.47026491315E+01  0.34804927656E+03  0.35487712124E+03  0.47000000000E+01 0.  1.
<mgrwt>
<rscale>  0 0.25472258E+03</rscale>
<asrwt>0</asrwt>
<pdfrwt beam="1">  1       21 0.22230146E+00 0.25472258E+03</pdfrwt>
<pdfrwt beam="2">  1       21 0.17270537E-02 0.25472258E+03</pdfrwt>
<totfact> 0.14719002E+05</totfact>
</mgrwt>
</event>
<event>
 8    1  0.9569852E-006  0.3634046E+03  0.7546771E-02  0.1057244E+00
         21   -1    0    0  504  503  0.00000000000E+00  0.00000000000E+00  0.18457087464E+03  0.18457087464E+03  0.00000000000E+00 0.  1.
         21   -1    0    0  503  504 -0.00000000000E+00 -0.00000000000E+00 -0.17887828426E+03  0.17887828426E+03  0.00000000000E+00 0.  1.
         25    2    1    2    0    0 -0.89126740341E+02 -0.97195190658E+02  0.34680982297E+01  0.18173265243E+03  0.12499699325E+03 0.  0.
         25    2    1    2    0    0  0.89126740341E+02  0.97195190658E+02  0.22244921459E+01  0.18171650647E+03  0.12500183769E+03 0.  0.
          5    1    3    3  501    0  0.21288613807E+02 -0.59229965239E+02 -0.10723810853E+02  0.64019403146E+02  0.47000000000E+01 0. -1.
         -5    1    3    3    0  501 -0.11041535415E+03 -0.37965225420E+02  0.14191909083E+02  0.11771324928E+03  0.47000000000E+01 0. -1.
          5    1    4    4  502    0  0.10035979206E+03  0.55076398395E+02 -0.39498782727E+02  0.12119299220E+03  0.47000000000E+01 0. -1.
         -5    1    4    4    0  502 -0.11233051719E+02  0.42118792264E+02  0.41723274873E+02  0.60523514264E+02  0.47000000000E+01 0. -1.
<mgrwt>
<rscale>  0 0.36340458E+03</rscale>
<asrwt>0</asrwt>
<pdfrwt beam="1">  1       21 0.28395519E-01 0.36340458E+03</pdfrwt>
<pdfrwt beam="2">  1       21 0.27519736E-01 0.36340458E+03</pdfrwt>
<totfact> 0.14260655E+05</totfact>
</mgrwt>
</event>
<event>
 8    1  0.9569852E-006  0.2685567E+03  0.7546771E-02  0.1102108E+00
         21   -1    0    0  504  503  0.00000000000E+00  0.00000000000E+00  0.28239009572E+04  0.28239009572E+04  0.00000000000E+00 0.  1.
         21   -1    0    0  503  504 -0.00000000000E+00 -0.00000000000E+00 -0.63850254947E+01  0.63850254947E+01  0.00000000000E+00 0.  1.
         25    2    1    2    0    0 -0.25734920051E+01  0.36578138685E+02  0.17515543271E+04  0.17563915154E+04  0.12499604548E+03 0.  0.
         25    2    1    2    0    0  0.25734920051E+01 -0.36578138685E+02  0.10659616046E+04  0.10738944673E+04  0.12502240347E+03 0.  0.
          5    1    3    3  501    0 -0.25076075538E+02 -0.97395016980E+01  0.14620868136E+04  0.14623418233E+04  0.47000000000E+01 0. -1.
         -5    1    3    3    0  501  0.22502583533E+02  0.46317640383E+02  0.28946751347E+03  0.29404969211E+03  0.47000000000E+01 0. -1.
          5    1    4    4  502    0  0.19474654050E+02 -0.22224518973E+02  0.54455174024E+02  0.62134107959E+02  0.47000000000E+01 0. -1.
         -5    1    4    4    0  502 -0.16901162045E+02 -0.14353619712E+02  0.10115064306E+04  0.10117603593E+04  0.47000000000E+01 0. -1.
<mgrwt>
<rscale>  0 0.26855673E+03</rscale>
<asrwt>0</asrwt>
<pdfrwt beam="1">  1       21 0.43444530E+00 0.26855673E+03</pdfrwt>
<pdfrwt beam="2">  1       21 0.98231387E-03 0.26855673E+03</pdfrwt>
<totfact> 0.18743566E+04</totfact>
</mgrwt>
</event>
<event>
 8    1  0.9569852E-006  0.2941846E+03  0.7546771E-02  0.1088184E+00
         21   -1    0    0  504  503  0.00000000000E+00  0.00000000000E+00  0.48883136318E+02  0.48883136318E+02  0.00000000000E+00 0.  1.
         21   -1    0    0  503  504 -0.00000000000E+00 -0.00000000000E+00 -0.44260972971E+03  0.44260972971E+03  0.00000000000E+00 0.  1.
         25    2    1    2    0    0  0.71571068680E+02  0.26492649762E+02 -0.21972492212E+03  0.26406097873E+03  0.12499952290E+03 0.  0.
         25    2    1    2    0    0 -0.71571068680E+02 -0.26492649762E+02 -0.17400167127E+03  0.22743188730E+03  0.12499761354E+03 0.  0.
          5    1    3    3  501    0  0.68219405860E+02 -0.40236342426E+02 -0.11345013579E+03  0.13844086788E+03  0.47000000000E+01 0. -1.
         -5    1    3    3    0  501  0.33516628208E+01  0.66728992188E+02 -0.10627478633E+03  0.12562011085E+03  0.47000000000E+01 0. -1.
          5    1    4    4  502    0  0.97645052350E+01  0.25992416499E+02  0.11481281939E+00  0.28161222628E+02  0.47000000000E+01 0.  1.
         -5    1    4    4    0  502 -0.81335573915E+02 -0.52485066261E+02 -0.17411648409E+03  0.19927066467E+03  0.47000000000E+01 0.  1.
<mgrwt>
<rscale>  0 0.29418465E+03</rscale>
<asrwt>0</asrwt>
<pdfrwt beam="1">  1       21 0.75204824E-02 0.29418465E+03</pdfrwt>
<pdfrwt beam="2">  1       21 0.68093805E-01 0.29418465E+03</pdfrwt>
<totfact> 0.25621193E+05</totfact>
</mgrwt>
</event>
<event>
 8    1  0.9569852E-006  0.3047343E+03  0.7546771E-02  0.1082898E+00
         21   -1    0    0  504  503  0.00000000000E+00  0.00000000000E+00  0.48215710278E+02  0.48215710278E+02  0.00000000000E+00 0. -1.
         21   -1    0    0  503  504 -0.00000000000E+00 -0.00000000000E+00 -0.48149770462E+03  0.48149770462E+03  0.00000000000E+00 0. -1.
         25    2    1    2    0    0  0.38000445697E+02 -0.66333158182E+02 -0.14396549036E+03  0.20541552155E+03  0.12500140932E+03 0.  0.
         25    2    1    2    0    0 -0.38000445697E+02  0.66333158182E+02 -0.28931650398E+03  0.32429789335E+03  0.12498384858E+03 0.  0.
          5    1    3    3  501    0  0.68755983470E+02 -0.18362815491E+02 -0.28950812983E+02  0.76972838249E+02  0.47000000000E+01 0. -1.
         -5    1    3    3    0  501 -0.30755537773E+02 -0.47970342691E+02 -0.11501467738E+03  0.12844268330E+03  0.47000000000E+01 0. -1.
          5    1    4    4  502    0  0.35354522570E+02 -0.16236263132E+01 -0.31073484065E+02  0.47331066336E+02  0.47000000000E+01 0.  1.
         -5    1    4    4    0  502 -0.73354968267E+02  0.67956784496E+02 -0.25824301992E+03  0.27696682701E+03  0.47000000000E+01 0.  1.
<mgrwt>
<rscale>  0 0.30473434E+03</rscale>
<asrwt>0</asrwt>
<pdfrwt beam="1">  1       21 0.74178017E-02 0.30473434E+03</pdfrwt>
<pdfrwt beam="2">  1       21 0.74076569E-01 0.30473434E+03</pdfrwt>
<totfact> 0.21689935E+05</totfact>
</mgrwt>
</event>
<event>
 8    1  0.9569852E-006  0.2903745E+03  0.7546771E-02  0.1090154E+00
         21   -1    0    0  504  503  0.00000000000E+00  0.00000000000E+00  0.47090486387E+02  0.47090486387E+02  0.00000000000E+00 0. -1.
         21   -1    0    0  503  504 -0.00000000000E+00 -0.00000000000E+00 -0.44763464869E+03  0.44763464869E+03  0.00000000000E+00 0. -1.
         25    2    1    2    0    0 -0.13779233579E+02  0.48368715694E+02 -0.29240520045E+03  0.32195519397E+03  0.12499978295E+03 0.  0.
         25    2    1    2    0    0  0.13779233579E+02 -0.48368715694E+02 -0.10813896185E+03  0.17276994110E+03  0.12500407011E+03 0.  0.
          5    1    3    3  501    0 -0.41156155551E+02  0.74482764724E+02 -0.13231299587E+03  0.15738592776E+03  0.47000000000E+01 0.  1.
         -5    1    3    3    0  501  0.27376921972E+02 -0.26114049030E+02 -0.16009220459E+03  0.16456926622E+03  0.47000000000E+01 0.  1.
          5    1    4    4  502    0 -0.52108100131E+02 -0.38729034948E+02 -0.35613801405E+02  0.74199899581E+02  0.47000000000E+01 0.  1.
         -5    1    4    4    0  502  0.65887333711E+02 -0.96396807454E+01 -0.72525160442E+02  0.98570041521E+02  0.47000000000E+01 0.  1.
<mgrwt>
<rscale>  0 0.29037447E+03</rscale>
<asrwt>0</asrwt>
<pdfrwt beam="1">  1       21 0.72446903E-02 0.29037447E+03</pdfrwt>
<pdfrwt beam="2">  1       21 0.68866868E-01 0.29037447E+03</pdfrwt>
<totfact> 0.26695996E+05</totfact>
</mgrwt>
</event>
<event>
 8    1  0.9569852E-006  0.3394863E+03  0.7546771E-02  0.1067015E+00
         21   -1    0    0  504  503  0.00000000000E+00  0.00000000000E+00  0.11132655183E+03  0.11132655183E+03  0.00000000000E+00 0. -1.
         21   -1    0    0  503  504 -0.00000000000E+00 -0.00000000000E+00 -0.25881275496E+03  0.25881275496E+03  0.00000000000E+00 0. -1.
         25    2    1    2    0    0 -0.10499029201E+03  0.41542341075E+01 -0.12425043033E+03  0.20519976030E+03  0.12501421164E+03 0.  0.
         25    2    1    2    0    0  0.10499029201E+03 -0.41542341075E+01 -0.23235772795E+02  0.16493954649E+03  0.12499973513E+03 0.  0.
          5    1    3    3  501    0 -0.37692286117E+02  0.26796780964E+02 -0.12570485910E+03  0.13402454068E+03  0.47000000000E+01 0. -1.
         -5    1    3    3    0  501 -0.67298005891E+02 -0.22642546856E+02  0.14544287692E+01  0.71175219621E+02  0.47000000000E+01 0. -1.
          5    1    4    4  502    0  0.54201882381E+02 -0.61385660397E+02 -0.31431496867E+02  0.87841176855E+02  0.47000000000E+01 0.  1.
         -5    1    4    4    0  502  0.50788409627E+02  0.57231426289E+02  0.81957240721E+01  0.77098369637E+02  0.47000000000E+01 0.  1.
<mgrwt>
<rscale>  0 0.33948627E+03</rscale>
<asrwt>0</asrwt>
<pdfrwt beam="1">  1       21 0.17127162E-01 0.33948627E+03</pdfrwt>
<pdfrwt beam="2">  1       21 0.39817347E-01 0.33948627E+03</pdfrwt>
<totfact> 0.18000655E+05</totfact>
</mgrwt>
</event>
<event>
 8    1  0.9569852E-006  0.3413130E+03  0.7546771E-02  0.1066238E+00
         21   -1    0    0  504  503  0.00000000000E+00  0.00000000000E+00  0.66924641543E+02  0.66924641543E+02  0.00000000000E+00 0.  1.
         21   -1    0    0  503  504 -0.00000000000E+00 -0.00000000000E+00 -0.43517071833E+03  0.43517071833E+03  0.00000000000E+00 0.  1.
         25    2    1    2    0    0  0.86446330657E+02 -0.66298782268E+02 -0.12495585033E+03  0.20767368888E+03  0.12508357169E+03 0.  0.
         25    2    1    2    0    0 -0.86446330657E+02  0.66298782268E+02 -0.24329022646E+03  0.29442167100E+03  0.12500195778E+03 0.  0.
          5    1    3    3  501    0  0.10622048683E+03 -0.20587709052E+02 -0.11242325917E+03  0.15610164889E+03  0.47000000000E+01 0. -1.
         -5    1    3    3    0  501 -0.19774156170E+02 -0.45711073216E+02 -0.12532591165E+02  0.51572039984E+02  0.47000000000E+01 0. -1.
          5    1    4    4  502    0  0.23058447295E+02 -0.26873339466E+01 -0.65527669963E+01  0.24575241824E+02  0.47000000000E+01 0. -1.
         -5    1    4    4    0  502 -0.10950477795E+03  0.68986116215E+02 -0.23673745946E+03  0.26984642917E+03  0.47000000000E+01 0. -1.
<mgrwt>
<rscale>  0 0.34131302E+03</rscale>
<asrwt>0</asrwt>
<pdfrwt beam="1">  1       21 0.10296099E-01 0.34131302E+03</pdfrwt>
<pdfrwt beam="2">  1       21 0.66949341E-01 0.34131302E+03</pdfrwt>
<totfact> 0.15093827E+05</totfact>
</mgrwt>
</event>
<event>
 8    1  0.9569852E-006  0.4518196E+03  0.7546771E-02  0.1027181E+00
         21   -1    0    0  504  503  0.00000000000E+00  0.00000000000E+00  0.96767051212E+03  0.96767051212E+03  0.00000000000E+00 0.  1.
         21   -1    0    0  503  504 -0.00000000000E+00 -0.00000000000E+00 -0.52740295580E+02  0.52740295580E+02  0.00000000000E+00 0.  1.
         25    2    1    2    0    0  0.69665111741E+02  0.11763665003E+03  0.74949341032E+03  0.77204693873E+03  0.12499797702E+03 0.  0.
         25    2    1    2    0    0 -0.69665111741E+02 -0.11763665003E+03  0.16543680622E+03  0.24836386898E+03  0.12499466123E+03 0.  0.
          5    1    3    3  501    0  0.24569178443E+02 -0.87414037333E+01  0.34155056623E+03  0.34257690518E+03  0.47000000000E+01 0.  1.
         -5    1    3    3    0  501  0.45095933298E+02  0.12637805376E+03  0.40794284409E+03  0.42947003355E+03  0.47000000000E+01 0.  1.
          5    1    4    4  502    0 -0.11045237494E+02 -0.11815439521E+03  0.14184324266E+03  0.18499744286E+03  0.47000000000E+01 0.  1.
         -5    1    4    4    0  502 -0.58619874247E+02  0.51774518149E+00  0.23593563564E+02  0.63366426114E+02  0.47000000000E+01 0.  1.
<mgrwt>
<rscale>  0 0.45181956E+03</rscale>
<asrwt>0</asrwt>
<pdfrwt beam="1">  1       21 0.14887237E+00 0.45181956E+03</pdfrwt>
<pdfrwt beam="2">  1       21 0.81138924E-02 0.45181956E+03</pdfrwt>
<totfact> 0.32172165E+04</totfact>
</mgrwt>
</event>
<event>
 8    1  0.9569852E-006  0.3212438E+03  0.7546771E-02  0.1075078E+00
         21   -1    0    0  504  503  0.00000000000E+00  0.00000000000E+00  0.79270003824E+03  0.79270003824E+03  0.00000000000E+00 0. -1.
         21   -1    0    0  503  504 -0.00000000000E+00 -0.00000000000E+00 -0.32546220076E+02  0.32546220076E+02  0.00000000000E+00 0. -1.
         25    2    1    2    0    0 -0.64583742585E+02  0.74028629646E+02  0.32130069022E+03  0.35848148489E+03  0.12499417452E+03 0.  0.
         25    2    1    2    0    0  0.64583742585E+02 -0.74028629646E+02  0.43885312795E+03  0.46676477342E+03  0.12500395189E+03 0.  0.
          5    1    3    3  501    0  0.74314524848E+01  0.77346138157E+02  0.22505913578E+03  0.23814146252E+03  0.47000000000E+01 0.  1.
         -5    1    3    3    0  501 -0.72015195070E+02 -0.33175085107E+01  0.96241554438E+02  0.12034002237E+03  0.47000000000E+01 0.  1.
          5    1    4    4  502    0  0.33678155721E+02 -0.19545924067E+02  0.37552605407E+03  0.37756876010E+03  0.47000000000E+01 0.  1.
         -5    1    4    4    0  502  0.30905586865E+02 -0.54482705579E+02  0.63327073879E+02  0.89196013323E+02  0.47000000000E+01 0.  1.
<mgrwt>
<rscale>  0 0.32124377E+03</rscale>
<asrwt>0</asrwt>
<pdfrwt beam="1">  1       21 0.12195384E+00 0.32124377E+03</pdfrwt>
<pdfrwt beam="2">  1       21 0.50071114E-02 0.32124377E+03</pdfrwt>
<totfact> 0.13026533E+05</totfact>
</mgrwt>
</event>
<event>
 8    1  0.9569852E-006  0.3578284E+03  0.7546771E-02  0.1059447E+00
         21   -1    0    0  504  503  0.00000000000E+00  0.00000000000E+00  0.10885625723E+03  0.10885625723E+03  0.00000000000E+00 0. -1.
         21   -1    0    0  503  504 -0.00000000000E+00 -0.00000000000E+00 -0.29406019023E+03  0.29406019023E+03  0.00000000000E+00 0. -1.
         25    2    1    2    0    0  0.24493389107E+01 -0.36942376546E+02  0.45372229795E+02  0.13803985440E+03  0.12500249486E+03 0.  0.
         25    2    1    2    0    0 -0.24493389107E+01  0.36942376546E+02 -0.23057616279E+03  0.26487659306E+03  0.12499401690E+03 0.  0.
          5    1    3    3  501    0  0.38762847186E+02 -0.62794056721E+02  0.55048024056E+02  0.92184742956E+02  0.47000000000E+01 0.  1.
         -5    1    3    3    0  501 -0.36313508275E+02  0.25851680175E+02 -0.96757942610E+01  0.45855111446E+02  0.47000000000E+01 0.  1.
          5    1    4    4  502    0  0.56184065713E+02  0.38997629880E+02 -0.15161238472E+03  0.16639071361E+03  0.47000000000E+01 0.  1.
         -5    1    4    4    0  502 -0.58633404624E+02 -0.20552533340E+01 -0.78963778074E+02  0.98485879454E+02  0.47000000000E+01 0.  1.
<mgrwt>
<rscale>  0 0.35782840E+03</rscale>
<asrwt>0</asrwt>
<pdfrwt beam="1">  1       21 0.16747117E-01 0.35782840E+03</pdfrwt>
<pdfrwt beam="2">  1       21 0.45240028E-01 0.35782840E+03</pdfrwt>
<totfact> 0.14362495E+05</totfact>
</mgrwt>
</event>
<event>
 8    1  0.9569852E-006  0.3072378E+03  0.7546771E-02  0.1081677E+00
         21   -1    0    0  504  503  0.00000000000E+00  0.00000000000E+00  0.27330301623E+03  0.27330301623E+03  0.00000000000E+00 0. -1.
         21   -1    0    0  503  504 -0.00000000000E+00 -0.00000000000E+00 -0.86346503315E+02  0.86346503315E+02  0.00000000000E+00 0. -1.
         25    2    1    2    0    0  0.43251556734E+02 -0.60195099420E+02  0.35195571483E+02  0.14953927669E+03  0.12501647838E+03 0.  0.
         25    2    1    2    0    0 -0.43251556734E+02  0.60195099420E+02  0.15176094143E+03  0.21011024286E+03  0.12498313348E+03 0.  0.
          5    1    3    3  501    0  0.30663353271E+02  0.60440142491E+01 -0.38322685256E+02  0.49673831615E+02  0.47000000000E+01 0.  1.
         -5    1    3    3    0  501  0.12588203463E+02 -0.66239113669E+02  0.73518256739E+02  0.99865445075E+02  0.47000000000E+01 0.  1.
          5    1    4    4  502    0 -0.62773811195E+02 -0.15099894756E+02  0.49235463715E+02  0.81331292138E+02  0.47000000000E+01 0. -1.
         -5    1    4    4    0  502  0.19522254461E+02  0.75294994175E+02  0.10252547772E+03  0.12877895072E+03  0.47000000000E+01 0. -1.
<mgrwt>
<rscale>  0 0.30723776E+03</rscale>
<asrwt>0</asrwt>
<pdfrwt beam="1">  1       21 0.42046618E-01 0.30723776E+03</pdfrwt>
<pdfrwt beam="2">  1       21 0.13284078E-01 0.30723776E+03</pdfrwt>
<totfact> 0.25882381E+05</totfact>
</mgrwt>
</event>
<event>
 8    1  0.9569852E-006  0.2858357E+03  0.7546771E-02  0.1092544E+00
         21   -1    0    0  504  503  0.00000000000E+00  0.00000000000E+00  0.10757692880E+03  0.10757692880E+03  0.00000000000E+00 0.  1.
         21   -1    0    0  503  504 -0.00000000000E+00 -0.00000000000E+00 -0.18986894524E+03  0.18986894524E+03  0.00000000000E+00 0.  1.
         25    2    1    2    0    0 -0.21442443367E+02 -0.36536698998E+02  0.15933870695E+02  0.13293567430E+03  0.12499318588E+03 0.  0.
         25    2    1    2    0    0  0.21442443367E+02  0.36536698998E+02 -0.98225887140E+02  0.16451019974E+03  0.12498228740E+03 0.  0.
          5    1    3    3  501    0  0.30436282736E+02 -0.20998192156E+02 -0.40181660325E+02  0.54808276812E+02  0.47000000000E+01 0. -1.
         -5    1    3    3    0  501 -0.51878726103E+02 -0.15538506842E+02  0.56115531020E+02  0.78127397490E+02  0.47000000000E+01 0. -1.
          5    1    4    4  502    0 -0.31321019222E+02 -0.67315665662E+01  0.12213531668E+02  0.34606077347E+02  0.47000000000E+01 0.  1.
         -5    1    4    4    0  502  0.52763462589E+02  0.43268265564E+02 -0.11043941881E+03  0.12990412240E+03  0.47000000000E+01 0.  1.
<mgrwt>
<rscale>  0 0.28583574E+03</rscale>
<asrwt>0</asrwt>
<pdfrwt beam="1">  1       21 0.16550297E-01 0.28583574E+03</pdfrwt>
<pdfrwt beam="2">  1       21 0.29210607E-01 0.28583574E+03</pdfrwt>
<totfact> 0.36046240E+05</totfact>
</mgrwt>
</event>
<event>
 8    1  0.9569852E-006  0.2685542E+03  0.7546771E-02  0.1102110E+00
         21   -1    0    0  504  503  0.00000000000E+00  0.00000000000E+00  0.91238585408E+02  0.91238585408E+02  0.00000000000E+00 0.  1.
         21   -1    0    0  503  504 -0.00000000000E+00 -0.00000000000E+00 -0.19761747023E+03  0.19761747023E+03  0.00000000000E+00 0.  1.
         25    2    1    2    0    0  0.20538842653E+02  0.22359711898E+02 -0.94639441134E+02  0.15969305817E+03  0.12499379278E+03 0.  0.
         25    2    1    2    0    0 -0.20538842653E+02 -0.22359711898E+02 -0.11739443689E+02  0.12916299747E+03  0.12499385827E+03 0.  0.
          5    1    3    3  501    0  0.57191424312E+02  0.54837563832E+02 -0.56076387011E+02  0.97183684855E+02  0.47000000000E+01 0. -1.
         -5    1    3    3    0  501 -0.36652581659E+02 -0.32477851933E+02 -0.38563054123E+02  0.62509373311E+02  0.47000000000E+01 0. -1.
          5    1    4    4  502    0  0.20949639720E+02 -0.23175333883E+02 -0.58489539360E+02  0.66476309460E+02  0.47000000000E+01 0.  1.
         -5    1    4    4    0  502 -0.41488482373E+02  0.81562198461E+00  0.46750095671E+02  0.62686688013E+02  0.47000000000E+01 0.  1.
<mgrwt>
<rscale>  0 0.26855419E+03</rscale>
<asrwt>0</asrwt>
<pdfrwt beam="1">  1       21 0.14036706E-01 0.26855419E+03</pdfrwt>
<pdfrwt beam="2">  1       21 0.30402687E-01 0.26855419E+03</pdfrwt>
<totfact> 0.45251508E+05</totfact>
</mgrwt>
</event>
<event>
 8    1  0.9569852E-006  0.3050991E+03  0.7546771E-02  0.1082719E+00
         21   -1    0    0  504  503  0.00000000000E+00  0.00000000000E+00  0.90493865627E+02  0.90493865627E+02  0.00000000000E+00 0.  1.
         21   -1    0    0  503  504 -0.00000000000E+00 -0.00000000000E+00 -0.25715963837E+03  0.25715963837E+03  0.00000000000E+00 0.  1.
         25    2    1    2    0    0 -0.83792835002E+02  0.22746692842E+02 -0.71631436669E+02  0.16822313856E+03  0.12501724039E+03 0.  0.
         25    2    1    2    0    0  0.83792835002E+02 -0.22746692842E+02 -0.95034336071E+02  0.17943036543E+03  0.12500031909E+03 0.  0.
          5    1    3    3  501    0 -0.57890259673E+02  0.67671547057E+02 -0.13522423592E+02  0.90197928944E+02  0.47000000000E+01 0. -1.
         -5    1    3    3    0  501 -0.25902575330E+02 -0.44924854215E+02 -0.58109013077E+02  0.78025209616E+02  0.47000000000E+01 0. -1.
          5    1    4    4  502    0  0.53839455735E+01 -0.49453251537E+02 -0.81166604454E+02  0.95313790377E+02  0.47000000000E+01 0.  1.
         -5    1    4    4    0  502  0.78408889429E+02  0.26706558695E+02 -0.13867731617E+02  0.84116575055E+02  0.47000000000E+01 0.  1.
<mgrwt>
<rscale>  0 0.30509913E+03</rscale>
<asrwt>0</asrwt>
<pdfrwt beam="1">  1       21 0.13922133E-01 0.30509913E+03</pdfrwt>
<pdfrwt beam="2">  1       21 0.39563021E-01 0.30509913E+03</pdfrwt>
<totfact> 0.26925075E+05</totfact>
</mgrwt>
</event>
<event>
 8    1  0.9569852E-006  0.3128611E+03  0.7546771E-02  0.1078983E+00
         21   -1    0    0  504  503  0.00000000000E+00  0.00000000000E+00  0.28503781384E+02  0.28503781384E+02  0.00000000000E+00 0. -1.
         21   -1    0    0  503  504 -0.00000000000E+00 -0.00000000000E+00 -0.85850063581E+03  0.85850063581E+03  0.00000000000E+00 0. -1.
         25    2    1    2    0    0 -0.77279867995E+02  0.38747587976E+02 -0.30999865776E+03  0.34525099661E+03  0.12500211708E+03 0.  0.
         25    2    1    2    0    0  0.77279867995E+02 -0.38747587976E+02 -0.51999819666E+03  0.54175342058E+03  0.12500036243E+03 0.  0.
          5    1    3    3  501    0 -0.46083323539E+02 -0.95958673921E+01 -0.27213109269E+03  0.27621219196E+03  0.47000000000E+01 0. -1.
         -5    1    3    3    0  501 -0.31196544456E+02  0.48343455368E+02 -0.37867565074E+02  0.69038804650E+02  0.47000000000E+01 0. -1.
          5    1    4    4  502    0  0.50514700269E+02 -0.25674532972E+02 -0.67522581052E+02  0.88274036604E+02  0.47000000000E+01 0. -1.
         -5    1    4    4    0  502  0.26765167727E+02 -0.13073055004E+02 -0.45247561561E+03  0.45347938398E+03  0.47000000000E+01 0. -1.
<mgrwt>
<rscale>  0 0.31286108E+03</rscale>
<asrwt>0</asrwt>
<pdfrwt beam="1">  1       21 0.43851971E-02 0.31286108E+03</pdfrwt>
<pdfrwt beam="2">  1       21 0.13207702E+00 0.31286108E+03</pdfrwt>
<totfact> 0.13360529E+05</totfact>
</mgrwt>
</event>
<event>
 8    1  0.9569852E-006  0.2876553E+03  0.7546771E-02  0.1091580E+00
         21   -1    0    0  504  503  0.00000000000E+00  0.00000000000E+00  0.11307290706E+03  0.11307290706E+03  0.00000000000E+00 0.  1.
         21   -1    0    0  503  504 -0.00000000000E+00 -0.00000000000E+00 -0.18294734335E+03  0.18294734335E+03  0.00000000000E+00 0.  1.
         25    2    1    2    0    0  0.33857657707E+02  0.19099684947E+02  0.26353764750E+02  0.13353521794E+03  0.12500397819E+03 0.  0.
         25    2    1    2    0    0 -0.33857657707E+02 -0.19099684947E+02 -0.96228201036E+02  0.16248503247E+03  0.12502151876E+03 0.  0.
          5    1    3    3  501    0  0.12745119366E+02 -0.31064268148E+02 -0.36796830421E+02  0.50035223116E+02  0.47000000000E+01 0. -1.
         -5    1    3    3    0  501  0.21112538340E+02  0.50163953095E+02  0.63150595171E+02  0.83499994825E+02  0.47000000000E+01 0. -1.
          5    1    4    4  502    0  0.15040362788E+02 -0.15154958898E+02 -0.10932769970E+03  0.11149224732E+03  0.47000000000E+01 0.  1.
         -5    1    4    4    0  502 -0.48898020495E+02 -0.39447260486E+01  0.13099498663E+02  0.50992785148E+02  0.47000000000E+01 0.  1.
<mgrwt>
<rscale>  0 0.28765527E+03</rscale>
<asrwt>0</asrwt>
<pdfrwt beam="1">  1       21 0.17395832E-01 0.28765527E+03</pdfrwt>
<pdfrwt beam="2">  1       21 0.28145745E-01 0.28765527E+03</pdfrwt>
<totfact> 0.35327128E+05</totfact>
</mgrwt>
</event>
<event>
 8    1  0.9569852E-006  0.2884090E+03  0.7546771E-02  0.1091183E+00
         21   -1    0    0  504  503  0.00000000000E+00  0.00000000000E+00  0.58834483121E+02  0.58834483121E+02  0.00000000000E+00 0. -1.
         21   -1    0    0  503  504 -0.00000000000E+00 -0.00000000000E+00 -0.35344807724E+03  0.35344807724E+03  0.00000000000E+00 0. -1.
         25    2    1    2    0    0 -0.71098972179E+02 -0.10691457150E+01 -0.13203280255E+03  0.19522745295E+03  0.12499956208E+03 0.  0.
         25    2    1    2    0    0  0.71098972179E+02  0.10691457150E+01 -0.16258079157E+03  0.21705510741E+03  0.12499679575E+03 0.  0.
          5    1    3    3  501    0  0.11467920763E+02  0.22536633899E+02  0.11283750945E+02  0.28086048307E+02  0.47000000000E+01 0.  1.
         -5    1    3    3    0  501 -0.82566892942E+02 -0.23605779615E+02 -0.14331655349E+03  0.16714140464E+03  0.47000000000E+01 0.  1.
          5    1    4    4  502    0 -0.20142491634E+02  0.38123702127E+02 -0.34485596883E+02  0.55411939377E+02  0.47000000000E+01 0. -1.
         -5    1    4    4    0  502  0.91241463813E+02 -0.37054556412E+02 -0.12809519468E+03  0.16164316803E+03  0.47000000000E+01 0. -1.
<mgrwt>
<rscale>  0 0.28840898E+03</rscale>
<asrwt>0</asrwt>
<pdfrwt beam="1">  1       21 0.90514589E-02 0.28840898E+03</pdfrwt>
<pdfrwt beam="2">  1       21 0.54376627E-01 0.28840898E+03</pdfrwt>
<totfact> 0.30196671E+05</totfact>
</mgrwt>
</event>
<event>
 8    1  0.9569852E-006  0.2908425E+03  0.7546771E-02  0.1089910E+00
         21   -1    0    0  504  503  0.00000000000E+00  0.00000000000E+00  0.61024529583E+02  0.61024529583E+02  0.00000000000E+00 0.  1.
         21   -1    0    0  503  504 -0.00000000000E+00 -0.00000000000E+00 -0.34653836792E+03  0.34653836792E+03  0.00000000000E+00 0.  1.
         25    2    1    2    0    0  0.60801215568E+02 -0.26726637343E+02 -0.18947731190E+03  0.23651147982E+03  0.12499970961E+03 0.  0.
         25    2    1    2    0    0 -0.60801215568E+02  0.26726637343E+02 -0.96036526436E+02  0.17105141768E+03  0.12499788848E+03 0.  0.
          5    1    3    3  501    0 -0.29897136326E+02  0.20188680173E+02 -0.72836636477E+02  0.81416750003E+02  0.47000000000E+01 0.  1.
         -5    1    3    3    0  501  0.90698351895E+02 -0.46915317516E+02 -0.11664067543E+03  0.15509472982E+03  0.47000000000E+01 0.  1.
          5    1    4    4  502    0 -0.90634539140E+02  0.80915523322E+01 -0.29727328868E+02  0.95843085227E+02  0.47000000000E+01 0. -1.
         -5    1    4    4    0  502  0.29833323572E+02  0.18635085011E+02 -0.66309197569E+02  0.75208332457E+02  0.47000000000E+01 0. -1.
<mgrwt>
<rscale>  0 0.29084251E+03</rscale>
<asrwt>0</asrwt>
<pdfrwt beam="1">  1       21 0.93883891E-02 0.29084251E+03</pdfrwt>
<pdfrwt beam="2">  1       21 0.53313596E-01 0.29084251E+03</pdfrwt>
<totfact> 0.29502518E+05</totfact>
</mgrwt>
</event>
<event>
 8    1  0.9569852E-006  0.3527189E+03  0.7546771E-02  0.1061505E+00
         21   -1    0    0  504  503  0.00000000000E+00  0.00000000000E+00  0.30837300627E+02  0.30837300627E+02  0.00000000000E+00 0.  1.
         21   -1    0    0  503  504 -0.00000000000E+00 -0.00000000000E+00 -0.10086047955E+04  0.10086047955E+04  0.00000000000E+00 0.  1.
         25    2    1    2    0    0 -0.50072288832E+02  0.15895445053E+02 -0.82120764588E+03  0.83232614069E+03  0.12499963018E+03 0.  0.
         25    2    1    2    0    0  0.50072288832E+02 -0.15895445053E+02 -0.15655984901E+03  0.20711595545E+03  0.12500453351E+03 0.  0.
          5    1    3    3  501    0  0.57279320582E+01 -0.33794214883E+02 -0.54667340182E+03  0.54776706401E+03  0.47000000000E+01 0. -1.
         -5    1    3    3    0  501 -0.55800220890E+02  0.49689659936E+02 -0.27453424406E+03  0.28455907667E+03  0.47000000000E+01 0. -1.
          5    1    4    4  502    0  0.75048645795E+02 -0.48738951050E+02 -0.80502754137E+02  0.12045981906E+03  0.47000000000E+01 0.  1.
         -5    1    4    4    0  502 -0.24976356963E+02  0.32843505996E+02 -0.76057094873E+02  0.86656136389E+02  0.47000000000E+01 0.  1.
<mgrwt>
<rscale>  0 0.35271886E+03</rscale>
<asrwt>0</asrwt>
<pdfrwt beam="1">  1       21 0.47442011E-02 0.35271886E+03</pdfrwt>
<pdfrwt beam="2">  1       21 0.15516994E+00 0.35271886E+03</pdfrwt>
<totfact> 0.75333520E+04</totfact>
</mgrwt>
</event>
<event>
 8    1  0.9569852E-006  0.5776586E+03  0.7546771E-02  0.9952873E-01
         21   -1    0    0  504  503  0.00000000000E+00  0.00000000000E+00  0.22579520218E+03  0.22579520218E+03  0.00000000000E+00 0. -1.
         21   -1    0    0  503  504 -0.00000000000E+00 -0.00000000000E+00 -0.36946025722E+03  0.36946025722E+03  0.00000000000E+00 0. -1.
         25    2    1    2    0    0 -0.22556377782E+03 -0.12980965734E+03 -0.80328150218E+02  0.29967717606E+03  0.12499693249E+03 0.  0.
         25    2    1    2    0    0  0.22556377782E+03  0.12980965734E+03 -0.63336904827E+02  0.29557828333E+03  0.12500157224E+03 0.  0.
          5    1    3    3  501    0 -0.19725065155E+03 -0.54074817738E+02 -0.77079947392E+02  0.21862139360E+03  0.47000000000E+01 0. -1.
         -5    1    3    3    0  501 -0.28313126274E+02 -0.75734839603E+02 -0.32482028255E+01  0.81055782463E+02  0.47000000000E+01 0. -1.
          5    1    4    4  502    0  0.76656588979E+02  0.36531273845E+01  0.25622940996E+02  0.81044451253E+02  0.47000000000E+01 0. -1.
         -5    1    4    4    0  502  0.14890718884E+03  0.12615652996E+03 -0.88959845823E+02  0.21453383208E+03  0.47000000000E+01 0. -1.
<mgrwt>
<rscale>  0 0.57765856E+03</rscale>
<asrwt>0</asrwt>
<pdfrwt beam="1">  1       21 0.34737724E-01 0.57765856E+03</pdfrwt>
<pdfrwt beam="2">  1       21 0.56840039E-01 0.57765856E+03</pdfrwt>
<totfact> 0.20442046E+04</totfact>
</mgrwt>
</event>
<event>
 8    1  0.9569852E-006  0.3103706E+03  0.7546771E-02  0.1080168E+00
         21   -1    0    0  504  503  0.00000000000E+00  0.00000000000E+00  0.69716887224E+03  0.69716887224E+03  0.00000000000E+00 0.  1.
         21   -1    0    0  503  504 -0.00000000000E+00 -0.00000000000E+00 -0.34543252095E+02  0.34543252095E+02  0.00000000000E+00 0.  1.
         25    2    1    2    0    0  0.82595882666E+02  0.40257709597E+02  0.33440704847E+03  0.36865341363E+03  0.12503800341E+03 0.  0.
         25    2    1    2    0    0 -0.82595882666E+02 -0.40257709597E+02  0.32821857167E+03  0.36305871071E+03  0.12506571718E+03 0.  0.
          5    1    3    3  501    0  0.74704333245E+02  0.67049464232E+02  0.14078428112E+03  0.17297014733E+03  0.47000000000E+01 0.  1.
         -5    1    3    3    0  501  0.78915494214E+01 -0.26791754635E+02  0.19362276736E+03  0.19568326629E+03  0.47000000000E+01 0.  1.
          5    1    4    4  502    0 -0.10841045603E+03 -0.27032778898E+02  0.17965046107E+03  0.21161279800E+03  0.47000000000E+01 0. -1.
         -5    1    4    4    0  502  0.25814573365E+02 -0.13224930700E+02  0.14856811060E+03  0.15144591271E+03  0.47000000000E+01 0. -1.
<mgrwt>
<rscale>  0 0.31037062E+03</rscale>
<asrwt>0</asrwt>
<pdfrwt beam="1">  1       21 0.10725674E+00 0.31037062E+03</pdfrwt>
<pdfrwt beam="2">  1       21 0.53143470E-02 0.31037062E+03</pdfrwt>
<totfact> 0.16217677E+05</totfact>
</mgrwt>
</event>
<event>
 8    1  0.9569852E-006  0.3893901E+03  0.7546771E-02  0.1047517E+00
         21   -1    0    0  504  503  0.00000000000E+00  0.00000000000E+00  0.36238676362E+02  0.36238676362E+02  0.00000000000E+00 0.  1.
         21   -1    0    0  503  504 -0.00000000000E+00 -0.00000000000E+00 -0.10460139090E+04  0.10460139090E+04  0.00000000000E+00 0.  1.
         25    2    1    2    0    0 -0.76693582655E+01 -0.52148484659E+02 -0.89304671454E+03  0.90329187770E+03  0.12500199382E+03 0.  0.
         25    2    1    2    0    0  0.76693582655E+01  0.52148484659E+02 -0.11672851807E+03  0.17896070764E+03  0.12499241752E+03 0.  0.
          5    1    3    3  501    0 -0.28092456771E+02  0.25941328550E+02 -0.12009900932E+03  0.12612692296E+03  0.47000000000E+01 0. -1.
         -5    1    3    3    0  501  0.20423098505E+02 -0.78089813210E+02 -0.77294770522E+03  0.77716495475E+03  0.47000000000E+01 0. -1.
          5    1    4    4  502    0 -0.32159278913E+02 -0.39350254182E+01  0.10390330209E+02  0.34347526943E+02  0.47000000000E+01 0.  1.
         -5    1    4    4    0  502  0.39828637178E+02  0.56083510078E+02 -0.12711884828E+03  0.14461318069E+03  0.47000000000E+01 0.  1.
<mgrwt>
<rscale>  0 0.38939008E+03</rscale>
<asrwt>0</asrwt>
<pdfrwt beam="1">  1       21 0.55751812E-02 0.38939008E+03</pdfrwt>
<pdfrwt beam="2">  1       21 0.16092521E+00 0.38939008E+03</pdfrwt>
<totfact> 0.51044019E+04</totfact>
</mgrwt>
</event>
<event>
 8    1  0.9569852E-006  0.3750565E+03  0.7546771E-02  0.1052776E+00
         21   -1    0    0  504  503  0.00000000000E+00  0.00000000000E+00  0.75609260072E+02  0.75609260072E+02  0.00000000000E+00 0. -1.
         21   -1    0    0  503  504 -0.00000000000E+00 -0.00000000000E+00 -0.46511298510E+03  0.46511298510E+03  0.00000000000E+00 0. -1.
         25    2    1    2    0    0 -0.11848477791E+03  0.48347153121E+02 -0.11362611830E+03  0.21192351206E+03  0.12499836157E+03 0.  0.
         25    2    1    2    0    0  0.11848477791E+03 -0.48347153121E+02 -0.27587760672E+03  0.32879873310E+03  0.12499625270E+03 0.  0.
          5    1    3    3  501    0 -0.32821870616E+02  0.77886159075E+02 -0.34064490159E+02  0.91246964092E+02  0.47000000000E+01 0. -1.
         -5    1    3    3    0  501 -0.85662907289E+02 -0.29539005954E+02 -0.79561628141E+02  0.12067654797E+03  0.47000000000E+01 0. -1.
          5    1    4    4  502    0  0.24093992426E+02  0.12787709775E+02 -0.17647341257E+03  0.17863090812E+03  0.47000000000E+01 0. -1.
         -5    1    4    4    0  502  0.94390785480E+02 -0.61134862896E+02 -0.99404194159E+02  0.15016782499E+03  0.47000000000E+01 0. -1.
<mgrwt>
<rscale>  0 0.37505652E+03</rscale>
<asrwt>0</asrwt>
<pdfrwt beam="1">  1       21 0.11632194E-01 0.37505652E+03</pdfrwt>
<pdfrwt beam="2">  1       21 0.71555845E-01 0.37505652E+03</pdfrwt>
<totfact> 0.10362182E+05</totfact>
</mgrwt>
</event>
<event>
 8    1  0.9569852E-006  0.2652778E+03  0.7546771E-02  0.1104013E+00
         21   -1    0    0  504  503  0.00000000000E+00  0.00000000000E+00  0.21862191149E+02  0.21862191149E+02  0.00000000000E+00 0.  1.
         21   -1    0    0  503  504 -0.00000000000E+00 -0.00000000000E+00 -0.80472646774E+03  0.80472646774E+03  0.00000000000E+00 0.  1.
         25    2    1    2    0    0  0.26870803353E+02 -0.33645941273E+02 -0.42425447497E+03  0.44437705299E+03  0.12500006502E+03 0.  0.
         25    2    1    2    0    0 -0.26870803353E+02  0.33645941273E+02 -0.35860980163E+03  0.38221160590E+03  0.12502252769E+03 0.  0.
          5    1    3    3  501    0  0.73426569192E+01  0.11365427836E+02 -0.37297544962E+03  0.37325040332E+03  0.47000000000E+01 0. -1.
         -5    1    3    3    0  501  0.19528146434E+02 -0.45011369109E+02 -0.51279025349E+02  0.71126649667E+02  0.47000000000E+01 0. -1.
          5    1    4    4  502    0  0.63099845991E+01  0.26930169497E+02 -0.34383296454E+03  0.34497572007E+03  0.47000000000E+01 0.  1.
         -5    1    4    4    0  502 -0.33180787952E+02  0.67157717754E+01 -0.14776837090E+02  0.37235885837E+02  0.47000000000E+01 0.  1.
<mgrwt>
<rscale>  0 0.26527785E+03</rscale>
<asrwt>0</asrwt>
<pdfrwt beam="1">  1       21 0.33634148E-02 0.26527785E+03</pdfrwt>
<pdfrwt beam="2">  1       21 0.12380404E+00 0.26527785E+03</pdfrwt>
<totfact> 0.24988286E+05</totfact>
</mgrwt>
</event>
<event>
 8    1  0.9569852E-006  0.2508339E+03  0.7546771E-02  0.1112779E+00
         21   -1    0    0  504  503  0.00000000000E+00  0.00000000000E+00  0.27713317966E+02  0.27713317966E+02  0.00000000000E+00 0. -1.
         21   -1    0    0  503  504 -0.00000000000E+00 -0.00000000000E+00 -0.56757574730E+03  0.56757574730E+03  0.00000000000E+00 0. -1.
         25    2    1    2    0    0 -0.31766111931E+01  0.56496860911E+01 -0.28834689254E+03  0.31434766484E+03  0.12501405577E+03 0.  0.
         25    2    1    2    0    0  0.31766111931E+01 -0.56496860911E+01 -0.25151553679E+03  0.28094140042E+03  0.12500398160E+03 0.  0.
          5    1    3    3  501    0  0.50501825910E+02 -0.31217569031E+02 -0.14908081642E+03  0.16053707005E+03  0.47000000000E+01 0.  1.
         -5    1    3    3    0  501 -0.53678437103E+02  0.36867255122E+02 -0.13926607612E+03  0.15381059479E+03  0.47000000000E+01 0.  1.
          5    1    4    4  502    0 -0.71551537148E+01  0.50124759936E+02 -0.19187889789E+03  0.19850261771E+03  0.47000000000E+01 0.  1.
         -5    1    4    4    0  502  0.10331764908E+02 -0.55774446027E+02 -0.59636638897E+02  0.82438782710E+02  0.47000000000E+01 0.  1.
<mgrwt>
<rscale>  0 0.25083387E+03</rscale>
<asrwt>0</asrwt>
<pdfrwt beam="1">  1       21 0.42635874E-02 0.25083387E+03</pdfrwt>
<pdfrwt beam="2">  1       21 0.87319346E-01 0.25083387E+03</pdfrwt>
<totfact> 0.39082269E+05</totfact>
</mgrwt>
</event>
<event>
 8    1  0.9569852E-006  0.3460945E+03  0.7546771E-02  0.1064230E+00
         21   -1    0    0  504  503  0.00000000000E+00  0.00000000000E+00  0.36421075064E+02  0.36421075064E+02  0.00000000000E+00 0. -1.
         21   -1    0    0  503  504 -0.00000000000E+00 -0.00000000000E+00 -0.82219842922E+03  0.82219842922E+03  0.00000000000E+00 0. -1.
         25    2    1    2    0    0 -0.11513085744E+03  0.27739569809E+02 -0.35019671512E+03  0.39023978168E+03  0.12499899943E+03 0.  0.
         25    2    1    2    0    0  0.11513085744E+03 -0.27739569809E+02 -0.43558063904E+03  0.46837972260E+03  0.12499789348E+03 0.  0.
          5    1    3    3  501    0 -0.11263539577E+03 -0.23086041580E+02 -0.19041974093E+03  0.22248924791E+03  0.47000000000E+01 0.  1.
         -5    1    3    3    0  501 -0.24954616640E+01  0.50825611388E+02 -0.15977697418E+03  0.16775053377E+03  0.47000000000E+01 0.  1.
          5    1    4    4  502    0  0.68752416393E+02  0.41650660426E+02 -0.14323127368E+03  0.16431360270E+03  0.47000000000E+01 0.  1.
         -5    1    4    4    0  502  0.46378441044E+02 -0.69390230235E+02 -0.29234936536E+03  0.30406611990E+03  0.47000000000E+01 0.  1.
<mgrwt>
<rscale>  0 0.34609450E+03</rscale>
<asrwt>0</asrwt>
<pdfrwt beam="1">  1       21 0.56032431E-02 0.34609450E+03</pdfrwt>
<pdfrwt beam="2">  1       21 0.12649205E+00 0.34609450E+03</pdfrwt>
<totfact> 0.97151012E+04</totfact>
</mgrwt>
</event>
<event>
 8    1  0.9569852E-006  0.2889157E+03  0.7546771E-02  0.1090917E+00
         21   -1    0    0  504  503  0.00000000000E+00  0.00000000000E+00  0.65978500899E+02  0.65978500899E+02  0.00000000000E+00 0.  1.
         21   -1    0    0  503  504 -0.00000000000E+00 -0.00000000000E+00 -0.31628588723E+03  0.31628588723E+03  0.00000000000E+00 0.  1.
         25    2    1    2    0    0  0.22333160690E+02  0.11590828522E+02 -0.21498088728E+03  0.24995190118E+03  0.12500421447E+03 0.  0.
         25    2    1    2    0    0 -0.22333160690E+02 -0.11590828522E+02 -0.35326499047E+02  0.13231248694E+03  0.12500206116E+03 0.  0.
          5    1    3    3  501    0  0.34133567112E+02  0.58171254770E+02 -0.70776039731E+02  0.97879175954E+02  0.47000000000E+01 0.  1.
         -5    1    3    3    0  501 -0.11800406422E+02 -0.46580426249E+02 -0.14420484755E+03  0.15207272523E+03  0.47000000000E+01 0.  1.
          5    1    4    4  502    0 -0.63049832346E+02  0.35716297929E+01 -0.55476694001E+02  0.84189022298E+02  0.47000000000E+01 0.  1.
         -5    1    4    4    0  502  0.40716671656E+02 -0.15162458315E+02  0.20150194954E+02  0.48123464646E+02  0.47000000000E+01 0.  1.
<mgrwt>
<rscale>  0 0.28891569E+03</rscale>
<asrwt>0</asrwt>
<pdfrwt beam="1">  1       21 0.10150539E-01 0.28891569E+03</pdfrwt>
<pdfrwt beam="2">  1       21 0.48659366E-01 0.28891569E+03</pdfrwt>
<totfact> 0.31151413E+05</totfact>
</mgrwt>
</event>
<event>
 8    1  0.9569852E-006  0.3677030E+03  0.7546771E-02  0.1055575E+00
         21   -1    0    0  504  503  0.00000000000E+00  0.00000000000E+00  0.10210511637E+04  0.10210511637E+04  0.00000000000E+00 0. -1.
         21   -1    0    0  503  504 -0.00000000000E+00 -0.00000000000E+00 -0.33104483650E+02  0.33104483650E+02  0.00000000000E+00 0. -1.
         25    2    1    2    0    0  0.11643991417E+03 -0.67839416390E+02  0.48260887555E+03  0.51642686190E+03  0.12499974759E+03 0.  0.
         25    2    1    2    0    0 -0.11643991417E+03  0.67839416390E+02  0.50533780451E+03  0.53772878547E+03  0.12500204008E+03 0.  0.
          5    1    3    3  501    0 -0.20486964129E+02 -0.35491275506E+02  0.81734246912E+02  0.91552845147E+02  0.47000000000E+01 0. -1.
         -5    1    3    3    0  501  0.13692687830E+03 -0.32348140884E+02  0.40087462864E+03  0.42487401675E+03  0.47000000000E+01 0. -1.
          5    1    4    4  502    0 -0.82484275962E+02  0.66574489986E+02  0.16832953011E+03  0.19897924315E+03  0.47000000000E+01 0. -1.
         -5    1    4    4    0  502 -0.33955638212E+02  0.12649264042E+01  0.33700827440E+03  0.33874954231E+03  0.47000000000E+01 0. -1.
<mgrwt>
<rscale>  0 0.36770299E+03</rscale>
<asrwt>0</asrwt>
<pdfrwt beam="1">  1       21 0.15708477E+00 0.36770299E+03</pdfrwt>
<pdfrwt beam="2">  1       21 0.50929982E-02 0.36770299E+03</pdfrwt>
<totfact> 0.64201451E+04</totfact>
</mgrwt>
</event>
<event>
 8    1  0.9569852E-006  0.3822177E+03  0.7546771E-02  0.1050117E+00
         21   -1    0    0  504  503  0.00000000000E+00  0.00000000000E+00  0.45370819689E+03  0.45370819689E+03  0.00000000000E+00 0.  1.
         21   -1    0    0  503  504 -0.00000000000E+00 -0.00000000000E+00 -0.80497983177E+02  0.80497983177E+02  0.00000000000E+00 0.  1.
         25    2    1    2    0    0  0.83396530095E+02  0.92657878539E+02  0.84308116900E+02  0.19563483930E+03  0.12499867233E+03 0.  0.
         25    2    1    2    0    0 -0.83396530095E+02 -0.92657878539E+02  0.28890209681E+03  0.33857134076E+03  0.12500267021E+03 0.  0.
          5    1    3    3  501    0 -0.14707783357E+02 -0.12094902803E+02  0.41326234131E+02  0.45744433459E+02  0.47000000000E+01 0. -1.
         -5    1    3    3    0  501  0.98104313452E+02  0.10475278134E+03  0.42981882769E+02  0.14989040584E+03  0.47000000000E+01 0. -1.
          5    1    4    4  502    0 -0.15500915215E+02  0.19038763039E+02  0.43163443437E+01  0.25366783380E+02  0.47000000000E+01 0. -1.
         -5    1    4    4    0  502 -0.67895614880E+02 -0.11169664158E+03  0.28458575247E+03  0.31320455738E+03  0.47000000000E+01 0. -1.
<mgrwt>
<rscale>  0 0.38221771E+03</rscale>
<asrwt>0</asrwt>
<pdfrwt beam="1">  1       21 0.69801259E-01 0.38221771E+03</pdfrwt>
<pdfrwt beam="2">  1       21 0.12384305E-01 0.38221771E+03</pdfrwt>
<totfact> 0.97626750E+04</totfact>
</mgrwt>
</event>
<event>
 8    1  0.9569852E-006  0.2950373E+03  0.7546771E-02  0.1087748E+00
         21   -1    0    0  504  503  0.00000000000E+00  0.00000000000E+00  0.65297902102E+03  0.65297902102E+03  0.00000000000E+00 0.  1.
         21   -1    0    0  503  504 -0.00000000000E+00 -0.00000000000E+00 -0.33326867493E+02  0.33326867493E+02  0.00000000000E+00 0.  1.
         25    2    1    2    0    0 -0.39722051179E+02 -0.15974363541E+02  0.46239543096E+03  0.48090502381E+03  0.12500834257E+03 0.  0.
         25    2    1    2    0    0  0.39722051179E+02  0.15974363541E+02  0.15725672257E+03  0.20540086471E+03  0.12500726694E+03 0.  0.
          5    1    3    3  501    0 -0.95467117976E+01  0.53591190172E+02  0.23025149939E+03  0.23664530069E+03  0.47000000000E+01 0.  1.
         -5    1    3    3    0  501 -0.30175339382E+02 -0.69565553713E+02  0.23214393157E+03  0.24425972312E+03  0.47000000000E+01 0.  1.
          5    1    4    4  502    0  0.59805085861E+02  0.43094916225E+02  0.15446113529E+03  0.17121376234E+03  0.47000000000E+01 0.  1.
         -5    1    4    4    0  502 -0.20083034682E+02 -0.27120552684E+02  0.27955872773E+01  0.34187102366E+02  0.47000000000E+01 0.  1.
<mgrwt>
<rscale>  0 0.29503725E+03</rscale>
<asrwt>0</asrwt>
<pdfrwt beam="1">  1       21 0.10045830E+00 0.29503725E+03</pdfrwt>
<pdfrwt beam="2">  1       21 0.51272109E-02 0.29503725E+03</pdfrwt>
<totfact> 0.20297780E+05</totfact>
</mgrwt>
</event>
<event>
 8    1  0.9569852E-006  0.2541165E+03  0.7546771E-02  0.1110731E+00
         21   -1    0    0  504  503  0.00000000000E+00  0.00000000000E+00  0.47023885842E+03  0.47023885842E+03  0.00000000000E+00 0.  1.
         21   -1    0    0  503  504 -0.00000000000E+00 -0.00000000000E+00 -0.34331053598E+02  0.34331053598E+02  0.00000000000E+00 0.  1.
         25    2    1    2    0    0  0.14555496337E+02  0.59211109815E+01  0.25069372490E+03  0.28057018030E+03  0.12500144135E+03 0.  0.
         25    2    1    2    0    0 -0.14555496337E+02 -0.59211109815E+01  0.18521407992E+03  0.22399973172E+03  0.12499880951E+03 0.  0.
          5    1    3    3  501    0  0.59847056967E-01  0.60888052403E+02  0.80307310111E+02  0.10088960583E+03  0.47000000000E+01 0.  1.
         -5    1    3    3    0  501  0.14495649280E+02 -0.54966941422E+02  0.17038641479E+03  0.17968057447E+03  0.47000000000E+01 0.  1.
          5    1    4    4  502    0 -0.40409120212E+01 -0.28404038328E+00 -0.18689909765E+02  0.19692952443E+02  0.47000000000E+01 0. -1.
         -5    1    4    4    0  502 -0.10514584316E+02 -0.56370705983E+01  0.20390398969E+03  0.20430677928E+03  0.47000000000E+01 0. -1.
<mgrwt>
<rscale>  0 0.25411647E+03</rscale>
<asrwt>0</asrwt>
<pdfrwt beam="1">  1       21 0.72344435E-01 0.25411647E+03</pdfrwt>
<pdfrwt beam="2">  1       21 0.52817009E-02 0.25411647E+03</pdfrwt>
<totfact> 0.41621376E+05</totfact>
</mgrwt>
</event>
<event>
 8    1  0.9569852E-006  0.3547383E+03  0.7546771E-02  0.1060687E+00
         21   -1    0    0  504  503  0.00000000000E+00  0.00000000000E+00  0.37680099500E+02  0.37680099500E+02  0.00000000000E+00 0.  1.
         21   -1    0    0  503  504 -0.00000000000E+00 -0.00000000000E+00 -0.83491879238E+03  0.83491879238E+03  0.00000000000E+00 0.  1.
         25    2    1    2    0    0 -0.47775804894E+01  0.10553966495E+03 -0.56678719265E+03  0.58994462196E+03  0.12500195627E+03 0.  0.
         25    2    1    2    0    0  0.47775804894E+01 -0.10553966495E+03 -0.23045150023E+03  0.28265426992E+03  0.12499638472E+03 0.  0.
          5    1    3    3  501    0  0.31526701799E+02  0.72654273568E+02 -0.14491433765E+03  0.16521147554E+03  0.47000000000E+01 0.  1.
         -5    1    3    3    0  501 -0.36304282288E+02  0.32885391379E+02 -0.42187285500E+03  0.42473314641E+03  0.47000000000E+01 0.  1.
          5    1    4    4  502    0  0.28978860327E+02 -0.82942122772E+02 -0.23305478483E+03  0.24911000142E+03  0.47000000000E+01 0.  1.
         -5    1    4    4    0  502 -0.24201279838E+02 -0.22597542176E+02  0.26032846059E+01  0.33544268496E+02  0.47000000000E+01 0.  1.
<mgrwt>
<rscale>  0 0.35473834E+03</rscale>
<asrwt>0</asrwt>
<pdfrwt beam="1">  1       21 0.57969390E-02 0.35473834E+03</pdfrwt>
<pdfrwt beam="2">  1       21 0.12844903E+00 0.35473834E+03</pdfrwt>
<totfact> 0.87866491E+04</totfact>
</mgrwt>
</event>
<event>
 8    1  0.9569852E-006  0.2695137E+03  0.7546771E-02  0.1101558E+00
         21   -1    0    0  504  503  0.00000000000E+00  0.00000000000E+00  0.72566774552E+03  0.72566774552E+03  0.00000000000E+00 0. -1.
         21   -1    0    0  503  504 -0.00000000000E+00 -0.00000000000E+00 -0.25024419589E+02  0.25024419589E+02  0.00000000000E+00 0. -1.
         25    2    1    2    0    0 -0.27653978457E+02 -0.10711719731E+02  0.23702289464E+03  0.26960070225E+03  0.12500081043E+03 0.  0.
         25    2    1    2    0    0  0.27653978457E+02  0.10711719731E+02  0.46362043129E+03  0.48109146286E+03  0.12500243140E+03 0.  0.
          5    1    3    3  501    0 -0.43566672112E+02  0.42065284944E+02  0.65289341431E+02  0.89175844380E+02  0.47000000000E+01 0.  1.
         -5    1    3    3    0  501  0.15912693655E+02 -0.52777004675E+02  0.17173355321E+03  0.18042485787E+03  0.47000000000E+01 0.  1.
          5    1    4    4  502    0  0.74889548171E+02 -0.10909199395E+02  0.25381281546E+03  0.26489713164E+03  0.47000000000E+01 0.  1.
         -5    1    4    4    0  502 -0.47235569713E+02  0.21620919125E+02  0.20980761583E+03  0.21619433122E+03  0.47000000000E+01 0.  1.
<mgrwt>
<rscale>  0 0.26951374E+03</rscale>
<asrwt>0</asrwt>
<pdfrwt beam="1">  1       21 0.11164118E+00 0.26951374E+03</pdfrwt>
<pdfrwt beam="2">  1       21 0.38499113E-02 0.26951374E+03</pdfrwt>
<totfact> 0.25718486E+05</totfact>
</mgrwt>
</event>
<event>
 8    1  0.9569852E-006  0.5047426E+03  0.7546771E-02  0.1012548E+00
         21   -1    0    0  504  503  0.00000000000E+00  0.00000000000E+00  0.14836736235E+03  0.14836736235E+03  0.00000000000E+00 0.  1.
         21   -1    0    0  503  504 -0.00000000000E+00 -0.00000000000E+00 -0.42928081130E+03  0.42928081130E+03  0.00000000000E+00 0.  1.
         25    2    1    2    0    0  0.14063574472E+03 -0.78444820240E+02 -0.31072268059E+03  0.37162505901E+03  0.12499839094E+03 0.  0.
         25    2    1    2    0    0 -0.14063574472E+03  0.78444820240E+02  0.29809231632E+02  0.20602311465E+03  0.12499972385E+03 0.  0.
          5    1    3    3  501    0 -0.11841052416E+02  0.17424183083E+02 -0.52445371285E+02  0.56713487352E+02  0.47000000000E+01 0.  1.
         -5    1    3    3    0  501  0.15247679714E+03 -0.95869003323E+02 -0.25827730930E+03  0.31491157166E+03  0.47000000000E+01 0.  1.
          5    1    4    4  502    0 -0.12049640291E+03  0.10705750535E+03  0.45261651985E+02  0.16748552089E+03  0.47000000000E+01 0.  1.
         -5    1    4    4    0  502 -0.20139341806E+02 -0.28612685112E+02 -0.15452420353E+02  0.38537593755E+02  0.47000000000E+01 0.  1.
<mgrwt>
<rscale>  0 0.50474255E+03</rscale>
<asrwt>0</asrwt>
<pdfrwt beam="1">  1       21 0.22825748E-01 0.50474255E+03</pdfrwt>
<pdfrwt beam="2">  1       21 0.66043202E-01 0.50474255E+03</pdfrwt>
<totfact> 0.34216428E+04</totfact>
</mgrwt>
</event>
<event>
 8    1  0.9569852E-006  0.3153057E+03  0.7546771E-02  0.1077830E+00
         21   -1    0    0  504  503  0.00000000000E+00  0.00000000000E+00  0.51845161686E+02  0.51845161686E+02  0.00000000000E+00 0.  1.
         21   -1    0    0  503  504 -0.00000000000E+00 -0.00000000000E+00 -0.47939718469E+03  0.47939718469E+03  0.00000000000E+00 0.  1.
         25    2    1    2    0    0  0.26395012992E+02  0.92085845879E+02 -0.20148145619E+03  0.25572754830E+03  0.12500120819E+03 0.  0.
         25    2    1    2    0    0 -0.26395012992E+02 -0.92085845879E+02 -0.22607056681E+03  0.27551479807E+03  0.12499601217E+03 0.  0.
          5    1    3    3  501    0  0.20523253220E+02  0.36280860423E+02 -0.19451743333E+03  0.19898901132E+03  0.47000000000E+01 0.  1.
         -5    1    3    3    0  501  0.58717597719E+01  0.55804985456E+02 -0.69640228625E+01  0.56738536983E+02  0.47000000000E+01 0.  1.
          5    1    4    4  502    0 -0.19103047688E+02 -0.23761832286E+02  0.77122230503E+01  0.31798105115E+02  0.47000000000E+01 0. -1.
         -5    1    4    4    0  502 -0.72919653047E+01 -0.68324013593E+02 -0.23378278986E+03  0.24371669296E+03  0.47000000000E+01 0. -1.
<mgrwt>
<rscale>  0 0.31530572E+03</rscale>
<asrwt>0</asrwt>
<pdfrwt beam="1">  1       21 0.79761787E-02 0.31530572E+03</pdfrwt>
<pdfrwt beam="2">  1       21 0.73753414E-01 0.31530572E+03</pdfrwt>
<totfact> 0.19239381E+05</totfact>
</mgrwt>
</event>
<event>
 8    1  0.9569852E-006  0.2937825E+03  0.7546771E-02  0.1088391E+00
         21   -1    0    0  504  503  0.00000000000E+00  0.00000000000E+00  0.11745780030E+03  0.11745780030E+03  0.00000000000E+00 0. -1.
         21   -1    0    0  503  504 -0.00000000000E+00 -0.00000000000E+00 -0.18370031925E+03  0.18370031925E+03  0.00000000000E+00 0. -1.
         25    2    1    2    0    0 -0.41122636402E+02  0.17076873700E+02  0.31466425746E+02  0.13637229717E+03  0.12499830657E+03 0.  0.
         25    2    1    2    0    0  0.41122636402E+02 -0.17076873700E+02 -0.97708944700E+02  0.16478582238E+03  0.12499855416E+03 0.  0.
          5    1    3    3  501    0  0.26912784970E+02  0.48988824807E+02  0.40364163240E+01  0.56236870535E+02  0.47000000000E+01 0.  1.
         -5    1    3    3    0  501 -0.68035421372E+02 -0.31911951107E+02  0.27430009422E+02  0.80135426633E+02  0.47000000000E+01 0.  1.
          5    1    4    4  502    0  0.10396038735E+02 -0.68590956642E+02 -0.34866588141E+02  0.77785383737E+02  0.47000000000E+01 0.  1.
         -5    1    4    4    0  502  0.30726597667E+02  0.51514082942E+02 -0.62842356559E+02  0.87000438640E+02  0.47000000000E+01 0.  1.
<mgrwt>
<rscale>  0 0.29378247E+03</rscale>
<asrwt>0</asrwt>
<pdfrwt beam="1">  1       21 0.18070431E-01 0.29378247E+03</pdfrwt>
<pdfrwt beam="2">  1       21 0.28261587E-01 0.29378247E+03</pdfrwt>
<totfact> 0.32607609E+05</totfact>
</mgrwt>
</event>
<event>
 8    1  0.9569852E-006  0.2755843E+03  0.7546771E-02  0.1098125E+00
         21   -1    0    0  504  503  0.00000000000E+00  0.00000000000E+00  0.24682373163E+03  0.24682373163E+03  0.00000000000E+00 0.  1.
         21   -1    0    0  503  504 -0.00000000000E+00 -0.00000000000E+00 -0.76924046585E+02  0.76924046585E+02  0.00000000000E+00 0.  1.
         25    2    1    2    0    0 -0.51954602795E+02 -0.26503462587E+01  0.11502717763E+03  0.17765797683E+03  0.12499920019E+03 0.  0.
         25    2    1    2    0    0  0.51954602795E+02  0.26503462587E+01  0.54872507411E+02  0.14608980139E+03  0.12499973165E+03 0.  0.
          5    1    3    3  501    0 -0.16549962702E+02 -0.62917109648E+02  0.59054631625E+02  0.87988655338E+02  0.47000000000E+01 0.  1.
         -5    1    3    3    0  501 -0.35404640092E+02  0.60266763389E+02  0.55972546008E+02  0.89669321488E+02  0.47000000000E+01 0.  1.
          5    1    4    4  502    0  0.91684981646E+02  0.14546789437E+01  0.22301316752E+02  0.94486457649E+02  0.47000000000E+01 0.  1.
         -5    1    4    4    0  502 -0.39730378851E+02  0.11956673150E+01  0.32571190658E+02  0.51603343737E+02  0.47000000000E+01 0.  1.
<mgrwt>
<rscale>  0 0.27558433E+03</rscale>
<asrwt>0</asrwt>
<pdfrwt beam="1">  1       21 0.37972881E-01 0.27558433E+03</pdfrwt>
<pdfrwt beam="2">  1       21 0.11834469E-01 0.27558433E+03</pdfrwt>
<totfact> 0.39526956E+05</totfact>
</mgrwt>
</event>
<event>
 8    1  0.9569852E-006  0.3964207E+03  0.7546771E-02  0.1045026E+00
         21   -1    0    0  504  503  0.00000000000E+00  0.00000000000E+00  0.37987663022E+03  0.37987663022E+03  0.00000000000E+00 0.  1.
         21   -1    0    0  503  504 -0.00000000000E+00 -0.00000000000E+00 -0.10342130445E+03  0.10342130445E+03  0.00000000000E+00 0.  1.
         25    2    1    2    0    0  0.10511817072E+03  0.86540176281E+02  0.50951063004E+02  0.19172807922E+03  0.12499845445E+03 0.  0.
         25    2    1    2    0    0 -0.10511817072E+03 -0.86540176281E+02  0.22550426277E+03  0.29156985545E+03  0.12498710396E+03 0.  0.
          5    1    3    3  501    0  0.74415230144E+02  0.93399787059E+02 -0.13085127389E+02  0.12022669112E+03  0.47000000000E+01 0.  1.
         -5    1    3    3    0  501  0.30702940574E+02 -0.68596107782E+01  0.64036190392E+02  0.71501388097E+02  0.47000000000E+01 0.  1.
          5    1    4    4  502    0 -0.90461989161E+02 -0.78003191321E+01  0.17373558463E+03  0.19608763303E+03  0.47000000000E+01 0.  1.
         -5    1    4    4    0  502 -0.14656181557E+02 -0.78739857149E+02  0.51768678136E+02  0.95482222416E+02  0.47000000000E+01 0.  1.
<mgrwt>
<rscale>  0 0.39642067E+03</rscale>
<asrwt>0</asrwt>
<pdfrwt beam="1">  1       21 0.58442558E-01 0.39642067E+03</pdfrwt>
<pdfrwt beam="2">  1       21 0.15910970E-01 0.39642067E+03</pdfrwt>
<totfact> 0.90851960E+04</totfact>
</mgrwt>
</event>
<event>
 8    1  0.9569852E-006  0.3423125E+03  0.7546771E-02  0.1065815E+00
         21   -1    0    0  504  503  0.00000000000E+00  0.00000000000E+00  0.15781609242E+02  0.15781609242E+02  0.00000000000E+00 0. -1.
         21   -1    0    0  503  504 -0.00000000000E+00 -0.00000000000E+00 -0.18562399958E+04  0.18562399958E+04  0.00000000000E+00 0. -1.
         25    2    1    2    0    0  0.46249259168E+02  0.79917674132E+00 -0.15074457291E+04  0.15133257001E+04  0.12498966272E+03 0.  0.
         25    2    1    2    0    0 -0.46249259168E+02 -0.79917674132E+00 -0.33301265748E+03  0.35869590495E+03  0.12500275809E+03 0.  0.
          5    1    3    3  501    0  0.35604623498E+02 -0.19673405653E+02 -0.14486024569E+03  0.15053674929E+03  0.47000000000E+01 0.  1.
         -5    1    3    3    0  501  0.10644635670E+02  0.20472582394E+02 -0.13625854834E+04  0.13627889508E+04  0.47000000000E+01 0.  1.
          5    1    4    4  502    0 -0.66985901279E+02 -0.47098593892E+02 -0.19320878269E+03  0.20989786141E+03  0.47000000000E+01 0. -1.
         -5    1    4    4    0  502  0.20736642111E+02  0.46299417151E+02 -0.13980387479E+03  0.14879804354E+03  0.47000000000E+01 0. -1.
<mgrwt>
<rscale>  0 0.34231246E+03</rscale>
<asrwt>0</asrwt>
<pdfrwt beam="1">  1       21 0.24279409E-02 0.34231246E+03</pdfrwt>
<pdfrwt beam="2">  1       21 0.28557526E+00 0.34231246E+03</pdfrwt>
<totfact> 0.33493695E+04</totfact>
</mgrwt>
</event>
<event>
 8    1  0.9569852E-006  0.3799192E+03  0.7546771E-02  0.1050964E+00
         21   -1    0    0  504  503  0.00000000000E+00  0.00000000000E+00  0.13953252897E+04  0.13953252897E+04  0.00000000000E+00 0. -1.
         21   -1    0    0  503  504 -0.00000000000E+00 -0.00000000000E+00 -0.25861097787E+02  0.25861097787E+02  0.00000000000E+00 0. -1.
         25    2    1    2    0    0  0.55985557481E+01  0.21636549547E+02  0.12132397085E+04  0.12198665628E+04  0.12499742619E+03 0.  0.
         25    2    1    2    0    0 -0.55985557481E+01 -0.21636549547E+02  0.15622448339E+03  0.20131982471E+03  0.12499639397E+03 0.  0.
          5    1    3    3  501    0 -0.99588429964E+01 -0.35941929140E+02  0.13994949368E+03  0.14491015011E+03  0.47000000000E+01 0. -1.
         -5    1    3    3    0  501  0.15557398744E+02  0.57578478687E+02  0.10732902148E+04  0.10749564127E+04  0.47000000000E+01 0. -1.
          5    1    4    4  502    0  0.44702732406E+02  0.27286607579E+02  0.92578004683E+02  0.10646910439E+03  0.47000000000E+01 0. -1.
         -5    1    4    4    0  502 -0.50301288154E+02 -0.48923157127E+02  0.63646478712E+02  0.94850720322E+02  0.47000000000E+01 0. -1.
<mgrwt>
<rscale>  0 0.37991917E+03</rscale>
<asrwt>0</asrwt>
<pdfrwt beam="1">  1       21 0.21466537E+00 0.37991917E+03</pdfrwt>
<pdfrwt beam="2">  1       21 0.39786315E-02 0.37991917E+03</pdfrwt>
<totfact> 0.38994331E+04</totfact>
</mgrwt>
</event>
<event>
 8    1  0.9569852E-006  0.5614426E+03  0.7546771E-02  0.9988796E-01
         21   -1    0    0  504  503  0.00000000000E+00  0.00000000000E+00  0.14389304416E+03  0.14389304416E+03  0.00000000000E+00 0.  1.
         21   -1    0    0  503  504 -0.00000000000E+00 -0.00000000000E+00 -0.54765993895E+03  0.54765993895E+03  0.00000000000E+00 0.  1.
         25    2    1    2    0    0 -0.12563586968E+03  0.95235328962E+02  0.39253974051E+02  0.20498804337E+03  0.12500033524E+03 0.  0.
         25    2    1    2    0    0  0.12563586968E+03 -0.95235328962E+02 -0.44302086884E+03  0.48656493974E+03  0.12499524280E+03 0.  0.
          5    1    3    3  501    0  0.11533041750E+02 -0.18030187999E+02  0.11934590154E+02  0.24952418189E+02  0.47000000000E+01 0.  1.
         -5    1    3    3    0  501 -0.13716891143E+03  0.11326551696E+03  0.27319383896E+02  0.18003562518E+03  0.47000000000E+01 0.  1.
          5    1    4    4  502    0  0.84592315287E+02 -0.55786365694E+02 -0.11389649213E+03  0.15252042264E+03  0.47000000000E+01 0. -1.
         -5    1    4    4    0  502  0.41043554397E+02 -0.39448963268E+02 -0.32912437671E+03  0.33404451710E+03  0.47000000000E+01 0. -1.
<mgrwt>
<rscale>  0 0.56144263E+03</rscale>
<asrwt>0</asrwt>
<pdfrwt beam="1">  1       21 0.22137392E-01 0.56144263E+03</pdfrwt>
<pdfrwt beam="2">  1       21 0.84255373E-01 0.56144263E+03</pdfrwt>
<totfact> 0.20544072E+04</totfact>
</mgrwt>
</event>
<event>
 8    1  0.9569852E-006  0.2765100E+03  0.7546771E-02  0.1097611E+00
         21   -1    0    0  504  503  0.00000000000E+00  0.00000000000E+00  0.31414353931E+03  0.31414353931E+03  0.00000000000E+00 0.  1.
         21   -1    0    0  503  504 -0.00000000000E+00 -0.00000000000E+00 -0.60846214633E+02  0.60846214633E+02  0.00000000000E+00 0.  1.
         25    2    1    2    0    0  0.27206605037E+02 -0.17740153935E+01  0.19766323330E+03  0.23545824211E+03  0.12500593382E+03 0.  0.
         25    2    1    2    0    0 -0.27206605037E+02  0.17740153935E+01  0.55634091380E+02  0.13953151184E+03  0.12502217477E+03 0.  0.
          5    1    3    3  501    0 -0.10542262190E+02  0.14538479071E+02 -0.11766026291E+02  0.21978080910E+02  0.47000000000E+01 0.  1.
         -5    1    3    3    0  501  0.37748867227E+02 -0.16312494465E+02  0.20942925959E+03  0.21348016120E+03  0.47000000000E+01 0.  1.
          5    1    4    4  502    0 -0.21984178546E+02 -0.24957957004E+01  0.95850556358E+02  0.98483258763E+02  0.47000000000E+01 0. -1.
         -5    1    4    4    0  502 -0.52224264908E+01  0.42698110939E+01 -0.40216464978E+02  0.41048253075E+02  0.47000000000E+01 0. -1.
<mgrwt>
<rscale>  0 0.27651000E+03</rscale>
<asrwt>0</asrwt>
<pdfrwt beam="1">  1       21 0.48329774E-01 0.27651000E+03</pdfrwt>
<pdfrwt beam="2">  1       21 0.93609563E-02 0.27651000E+03</pdfrwt>
<totfact> 0.36583971E+05</totfact>
</mgrwt>
</event>
<event>
 8    1  0.9569852E-006  0.2566053E+03  0.7546771E-02  0.1109200E+00
         21   -1    0    0  504  503  0.00000000000E+00  0.00000000000E+00  0.99258749701E+02  0.99258749701E+02  0.00000000000E+00 0.  1.
         21   -1    0    0  503  504 -0.00000000000E+00 -0.00000000000E+00 -0.16584502440E+03  0.16584502440E+03  0.00000000000E+00 0.  1.
         25    2    1    2    0    0 -0.13903268427E+02 -0.20420505363E+01 -0.71506411884E+01  0.12598942139E+03  0.12499892716E+03 0.  0.
         25    2    1    2    0    0  0.13903268427E+02  0.20420505363E+01 -0.59435633515E+02  0.13911435271E+03  0.12499095070E+03 0.  0.
          5    1    3    3  501    0  0.47867893333E+02  0.90655773205E+01  0.25388495043E+02  0.55137877950E+02  0.47000000000E+01 0. -1.
         -5    1    3    3    0  501 -0.61771161759E+02 -0.11107627857E+02 -0.32539136232E+02  0.70851543444E+02  0.47000000000E+01 0. -1.
          5    1    4    4  502    0  0.36526248887E+02  0.13370403302E+02  0.27879340326E+02  0.48086195100E+02  0.47000000000E+01 0. -1.
         -5    1    4    4    0  502 -0.22622980461E+02 -0.11328352766E+02 -0.87314973841E+02  0.91028157611E+02  0.47000000000E+01 0. -1.
<mgrwt>
<rscale>  0 0.25660530E+03</rscale>
<asrwt>0</asrwt>
<pdfrwt beam="1">  1       21 0.15270577E-01 0.25660530E+03</pdfrwt>
<pdfrwt beam="2">  1       21 0.25514619E-01 0.25660530E+03</pdfrwt>
<totfact> 0.54668318E+05</totfact>
</mgrwt>
</event>
<event>
 8    1  0.9569852E-006  0.2870197E+03  0.7546771E-02  0.1091916E+00
         21   -1    0    0  504  503  0.00000000000E+00  0.00000000000E+00  0.27304397413E+03  0.27304397413E+03  0.00000000000E+00 0. -1.
         21   -1    0    0  503  504 -0.00000000000E+00 -0.00000000000E+00 -0.75427707712E+02  0.75427707712E+02  0.00000000000E+00 0. -1.
         25    2    1    2    0    0 -0.45627474043E+02 -0.42324738911E+02  0.13898681134E+03  0.19702175046E+03  0.12500794582E+03 0.  0.
         25    2    1    2    0    0  0.45627474043E+02  0.42324738911E+02  0.58629455074E+02  0.15144993138E+03  0.12500567507E+03 0.  0.
          5    1    3    3  501    0 -0.59768772355E+02  0.23507881350E+02  0.10038492801E+03  0.11926504268E+03  0.47000000000E+01 0. -1.
         -5    1    3    3    0  501  0.14141298312E+02 -0.65832620261E+02  0.38601883334E+02  0.77756707783E+02  0.47000000000E+01 0. -1.
          5    1    4    4  502    0 -0.24471296666E+02 -0.28119939793E+02  0.35732153367E+01  0.37741664541E+02  0.47000000000E+01 0.  1.
         -5    1    4    4    0  502  0.70098770709E+02  0.70444678703E+02  0.55056239738E+02  0.11370826683E+03  0.47000000000E+01 0.  1.
<mgrwt>
<rscale>  0 0.28701973E+03</rscale>
<asrwt>0</asrwt>
<pdfrwt beam="1">  1       21 0.42006765E-01 0.28701973E+03</pdfrwt>
<pdfrwt beam="2">  1       21 0.11604263E-01 0.28701973E+03</pdfrwt>
<totfact> 0.33261732E+05</totfact>
</mgrwt>
</event>
<event>
 8    1  0.9569852E-006  0.2764582E+03  0.7546771E-02  0.1097639E+00
         21   -1    0    0  504  503  0.00000000000E+00  0.00000000000E+00  0.26573432030E+02  0.26573432030E+02  0.00000000000E+00 0. -1.
         21   -1    0    0  503  504 -0.00000000000E+00 -0.00000000000E+00 -0.71903723680E+03  0.71903723680E+03  0.00000000000E+00 0. -1.
         25    2    1    2    0    0  0.52007133299E+02 -0.24174331211E+02 -0.38404252795E+03  0.40791427617E+03  0.12496500801E+03 0.  0.
         25    2    1    2    0    0 -0.52007133299E+02  0.24174331211E+02 -0.30842127682E+03  0.33769639266E+03  0.12500411760E+03 0.  0.
          5    1    3    3  501    0  0.23826551688E+02 -0.45625036980E+02 -0.36256198395E+03  0.36622756692E+03  0.47000000000E+01 0. -1.
         -5    1    3    3    0  501  0.28180581610E+02  0.21450705768E+02 -0.21480544000E+02  0.41686709254E+02  0.47000000000E+01 0. -1.
          5    1    4    4  502    0 -0.29038420163E+02 -0.41196673327E+02 -0.21734963734E+03  0.22316664310E+03  0.47000000000E+01 0.  1.
         -5    1    4    4    0  502 -0.22968713136E+02  0.65371004538E+02 -0.91071639483E+02  0.11452974957E+03  0.47000000000E+01 0.  1.
<mgrwt>
<rscale>  0 0.27645822E+03</rscale>
<asrwt>0</asrwt>
<pdfrwt beam="1">  1       21 0.40882206E-02 0.27645822E+03</pdfrwt>
<pdfrwt beam="2">  1       21 0.11062110E+00 0.27645822E+03</pdfrwt>
<totfact> 0.23723564E+05</totfact>
</mgrwt>
</event>
<event>
 8    1  0.9569852E-006  0.2533814E+03  0.7546771E-02  0.1111186E+00
         21   -1    0    0  504  503  0.00000000000E+00  0.00000000000E+00  0.35633318810E+02  0.35633318810E+02  0.00000000000E+00 0.  1.
         21   -1    0    0  503  504 -0.00000000000E+00 -0.00000000000E+00 -0.45043611872E+03  0.45043611872E+03  0.00000000000E+00 0.  1.
         25    2    1    2    0    0  0.19985719997E+02  0.94374787960E-01 -0.19777331349E+03  0.23481836279E+03  0.12500376821E+03 0.  0.
         25    2    1    2    0    0 -0.19985719997E+02 -0.94374787960E-01 -0.21702948642E+03  0.25125107474E+03  0.12500346663E+03 0.  0.
          5    1    3    3  501    0  0.15884300195E+01 -0.60213679261E+02 -0.71563502447E+02  0.93657008080E+02  0.47000000000E+01 0. -1.
         -5    1    3    3    0  501  0.18397289978E+02  0.60308054049E+02 -0.12620981104E+03  0.14116135471E+03  0.47000000000E+01 0. -1.
          5    1    4    4  502    0  0.34056372519E+02  0.37991418130E+02 -0.14291460035E+03  0.15182179473E+03  0.47000000000E+01 0.  1.
         -5    1    4    4    0  502 -0.54042092516E+02 -0.38085792918E+02 -0.74114886072E+02  0.99429280010E+02  0.47000000000E+01 0.  1.
<mgrwt>
<rscale>  0 0.25338140E+03</rscale>
<asrwt>0</asrwt>
<pdfrwt beam="1">  1       21 0.54820491E-02 0.25338140E+03</pdfrwt>
<pdfrwt beam="2">  1       21 0.69297863E-01 0.25338140E+03</pdfrwt>
<totfact> 0.42981561E+05</totfact>
</mgrwt>
</event>
<event>
 8    1  0.9569852E-006  0.2765505E+03  0.7546771E-02  0.1097588E+00
         21   -1    0    0  504  503  0.00000000000E+00  0.00000000000E+00  0.12090662753E+02  0.12090662753E+02  0.00000000000E+00 0. -1.
         21   -1    0    0  503  504 -0.00000000000E+00 -0.00000000000E+00 -0.15813898114E+04  0.15813898114E+04  0.00000000000E+00 0. -1.
         25    2    1    2    0    0  0.41380400188E+02  0.14212858953E+01 -0.54166036268E+03  0.55743967073E+03  0.12501472084E+03 0.  0.
         25    2    1    2    0    0 -0.41380400188E+02 -0.14212858953E+01 -0.10276387859E+04  0.10360408034E+04  0.12499885747E+03 0.  0.
          5    1    3    3  501    0 -0.19513276642E+02  0.10644967048E+02 -0.15124581634E+02  0.27293337253E+02  0.47000000000E+01 0.  1.
         -5    1    3    3    0  501  0.60893676830E+02 -0.92236811527E+01 -0.52653578105E+03  0.53014633348E+03  0.47000000000E+01 0.  1.
          5    1    4    4  502    0 -0.83953715214E+02  0.13206750011E+02 -0.59857134499E+03  0.60459274689E+03  0.47000000000E+01 0.  1.
         -5    1    4    4    0  502  0.42573315026E+02 -0.14628035907E+02 -0.42906744094E+03  0.43144805650E+03  0.47000000000E+01 0.  1.
<mgrwt>
<rscale>  0 0.27655054E+03</rscale>
<asrwt>0</asrwt>
<pdfrwt beam="1">  1       21 0.18601040E-02 0.27655054E+03</pdfrwt>
<pdfrwt beam="2">  1       21 0.24329048E+00 0.27655054E+03</pdfrwt>
<totfact> 0.96025895E+04</totfact>
</mgrwt>
</event>
<event>
 8    1  0.9569852E-006  0.2943658E+03  0.7546771E-02  0.1088091E+00
         21   -1    0    0  504  503  0.00000000000E+00  0.00000000000E+00  0.14771102709E+03  0.14771102709E+03  0.00000000000E+00 0. -1.
         21   -1    0    0  503  504 -0.00000000000E+00 -0.00000000000E+00 -0.14665669780E+03  0.14665669780E+03  0.00000000000E+00 0. -1.
         25    2    1    2    0    0  0.42924450502E+02  0.58233508948E+02  0.28870319640E+02  0.14728452932E+03  0.12500234880E+03 0.  0.
         25    2    1    2    0    0 -0.42924450502E+02 -0.58233508948E+02 -0.27815990344E+02  0.14708319557E+03  0.12500434826E+03 0.  0.
          5    1    3    3  501    0  0.51553926419E+02 -0.18260768069E+02  0.41914340909E+02  0.69066380777E+02  0.47000000000E+01 0.  1.
         -5    1    3    3    0  501 -0.86294759173E+01  0.76494277017E+02 -0.13044021269E+02  0.78218148546E+02  0.47000000000E+01 0.  1.
          5    1    4    4  502    0  0.50634564472E+01  0.12496027406E+02  0.37033724828E+02  0.39691007379E+02  0.47000000000E+01 0. -1.
         -5    1    4    4    0  502 -0.47987906949E+02 -0.70729536354E+02 -0.64849715172E+02  0.10739218819E+03  0.47000000000E+01 0. -1.
<mgrwt>
<rscale>  0 0.29436584E+03</rscale>
<asrwt>0</asrwt>
<pdfrwt beam="1">  1       21 0.22724773E-01 0.29436584E+03</pdfrwt>
<pdfrwt beam="2">  1       21 0.22562569E-01 0.29436584E+03</pdfrwt>
<totfact> 0.32668295E+05</totfact>
</mgrwt>
</event>
<event>
 8    1  0.9569852E-006  0.3286143E+03  0.7546771E-02  0.1071752E+00
         21   -1    0    0  504  503  0.00000000000E+00  0.00000000000E+00  0.69936656228E+03  0.69936656228E+03  0.00000000000E+00 0.  1.
         21   -1    0    0  503  504 -0.00000000000E+00 -0.00000000000E+00 -0.38601851121E+02  0.38601851121E+02  0.00000000000E+00 0.  1.
         25    2    1    2    0    0 -0.23941942605E+02  0.20394415004E+02  0.10155636460E+03  0.16409678332E+03  0.12499964131E+03 0.  0.
         25    2    1    2    0    0  0.23941942605E+02 -0.20394415004E+02  0.55920834655E+03  0.57387163007E+03  0.12500209666E+03 0.  0.
          5    1    3    3  501    0 -0.45180468424E+02  0.52179968629E+02  0.10465716668E+03  0.12545611341E+03  0.47000000000E+01 0. -1.
         -5    1    3    3    0  501  0.21238525819E+02 -0.31785553625E+02 -0.31008020794E+01  0.38640669918E+02  0.47000000000E+01 0. -1.
          5    1    4    4  502    0  0.66652945410E+02  0.20115101214E+02  0.29387443972E+03  0.30204554085E+03  0.47000000000E+01 0. -1.
         -5    1    4    4    0  502 -0.42711002805E+02 -0.40509516219E+02  0.26533390684E+03  0.27182608922E+03  0.47000000000E+01 0. -1.
<mgrwt>
<rscale>  0 0.32861433E+03</rscale>
<asrwt>0</asrwt>
<pdfrwt beam="1">  1       21 0.10759485E+00 0.32861433E+03</pdfrwt>
<pdfrwt beam="2">  1       21 0.59387469E-02 0.32861433E+03</pdfrwt>
<totfact> 0.13225549E+05</totfact>
</mgrwt>
</event>
<event>
 8    1  0.9569852E-006  0.3930878E+03  0.7546771E-02  0.1046200E+00
         21   -1    0    0  504  503  0.00000000000E+00  0.00000000000E+00  0.39864329492E+03  0.39864329492E+03  0.00000000000E+00 0. -1.
         21   -1    0    0  503  504 -0.00000000000E+00 -0.00000000000E+00 -0.96902442004E+02  0.96902442004E+02  0.00000000000E+00 0. -1.
         25    2    1    2    0    0 -0.38710341980E+02 -0.84397599124E+02  0.30206208585E+03  0.33983389025E+03  0.12499649570E+03 0.  0.
         25    2    1    2    0    0  0.38710341980E+02  0.84397599124E+02 -0.32123293264E+00  0.15571184668E+03  0.12499852276E+03 0.  0.
          5    1    3    3  501    0  0.44159283445E+02 -0.44204693472E+02  0.13969446501E+03  0.15310366029E+03  0.47000000000E+01 0. -1.
         -5    1    3    3    0  501 -0.82869625425E+02 -0.40192905651E+02  0.16236762085E+03  0.18673022996E+03  0.47000000000E+01 0. -1.
          5    1    4    4  502    0  0.23377218824E+02 -0.13972618510E+02 -0.39845559725E+02  0.48492133979E+02  0.47000000000E+01 0.  1.
         -5    1    4    4    0  502  0.15333123156E+02  0.98370217634E+02  0.39524326792E+02  0.10721971270E+03  0.47000000000E+01 0.  1.
<mgrwt>
<rscale>  0 0.39308782E+03</rscale>
<asrwt>0</asrwt>
<pdfrwt beam="1">  1       21 0.61329737E-01 0.39308782E+03</pdfrwt>
<pdfrwt beam="2">  1       21 0.14908068E-01 0.39308782E+03</pdfrwt>
<totfact> 0.92326563E+04</totfact>
</mgrwt>
</event>
<event>
 8    1  0.9569852E-006  0.2523364E+03  0.7546771E-02  0.1111837E+00
         21   -1    0    0  504  503  0.00000000000E+00  0.00000000000E+00  0.96212210208E+02  0.96212210208E+02  0.00000000000E+00 0. -1.
         21   -1    0    0  503  504 -0.00000000000E+00 -0.00000000000E+00 -0.16545104273E+03  0.16545104273E+03  0.00000000000E+00 0. -1.
         25    2    1    2    0    0  0.12455209605E+02 -0.95863748759E+01 -0.41581254210E+02  0.13267287024E+03  0.12500423579E+03 0.  0.
         25    2    1    2    0    0 -0.12455209605E+02  0.95863748759E+01 -0.27657578313E+02  0.12899038270E+03  0.12500618529E+03 0.  0.
          5    1    3    3  501    0  0.34246952663E+02  0.20862342907E+02 -0.73096901072E+02  0.83506515103E+02  0.47000000000E+01 0. -1.
         -5    1    3    3    0  501 -0.21791743058E+02 -0.30448717783E+02  0.31515646862E+02  0.49166355135E+02  0.47000000000E+01 0. -1.
          5    1    4    4  502    0 -0.26019583586E+02 -0.25278948557E+02  0.38333761117E+02  0.52986896602E+02  0.47000000000E+01 0. -1.
         -5    1    4    4    0  502  0.13564373981E+02  0.34865323433E+02 -0.65991339430E+02  0.76003486100E+02  0.47000000000E+01 0. -1.
<mgrwt>
<rscale>  0 0.25233637E+03</rscale>
<asrwt>0</asrwt>
<pdfrwt beam="1">  1       21 0.14801879E-01 0.25233637E+03</pdfrwt>
<pdfrwt beam="2">  1       21 0.25454006E-01 0.25233637E+03</pdfrwt>
<totfact> 0.58189963E+05</totfact>
</mgrwt>
</event>
<event>
 8    1  0.9569852E-006  0.2629677E+03  0.7546771E-02  0.1105373E+00
         21   -1    0    0  504  503  0.00000000000E+00  0.00000000000E+00  0.18436223005E+02  0.18436223005E+02  0.00000000000E+00 0. -1.
         21   -1    0    0  503  504 -0.00000000000E+00 -0.00000000000E+00 -0.93771915594E+03  0.93771915594E+03  0.00000000000E+00 0. -1.
         25    2    1    2    0    0 -0.48983604673E+01 -0.29606731537E+02 -0.56005230099E+03  0.57461704097E+03  0.12500244571E+03 0.  0.
         25    2    1    2    0    0  0.48983604673E+01  0.29606731537E+02 -0.35923063194E+03  0.38153833798E+03  0.12499721571E+03 0.  0.
          5    1    3    3  501    0 -0.18296482996E+02 -0.53052321073E+02 -0.53347070116E+03  0.53643488799E+03  0.47000000000E+01 0. -1.
         -5    1    3    3    0  501  0.13398122529E+02  0.23445589537E+02 -0.26581599837E+02  0.38182152976E+02  0.47000000000E+01 0. -1.
          5    1    4    4  502    0  0.51607825239E+02  0.54634879982E+02 -0.20543200502E+03  0.21879839219E+03  0.47000000000E+01 0.  1.
         -5    1    4    4    0  502 -0.46709464771E+02 -0.25028148445E+02 -0.15379862692E+03  0.16273994579E+03  0.47000000000E+01 0.  1.
<mgrwt>
<rscale>  0 0.26296767E+03</rscale>
<asrwt>0</asrwt>
<pdfrwt beam="1">  1       21 0.28363429E-02 0.26296767E+03</pdfrwt>
<pdfrwt beam="2">  1       21 0.14426444E+00 0.26296767E+03</pdfrwt>
<totfact> 0.22414321E+05</totfact>
</mgrwt>
</event>
<event>
 8    1  0.9569852E-006  0.2692964E+03  0.7546771E-02  0.1101683E+00
         21   -1    0    0  504  503  0.00000000000E+00  0.00000000000E+00  0.26602626174E+02  0.26602626174E+02  0.00000000000E+00 0. -1.
         21   -1    0    0  503  504 -0.00000000000E+00 -0.00000000000E+00 -0.68151687659E+03  0.68151687659E+03  0.00000000000E+00 0. -1.
         25    2    1    2    0    0  0.29875208784E+02  0.25364299217E+02 -0.40873870209E+03  0.42921834125E+03  0.12500072841E+03 0.  0.
         25    2    1    2    0    0 -0.29875208784E+02 -0.25364299217E+02 -0.24617554833E+03  0.27890116152E+03  0.12509029349E+03 0.  0.
          5    1    3    3  501    0 -0.14879131853E+02 -0.42098848325E+02 -0.20654301080E+03  0.21136652267E+03  0.47000000000E+01 0. -1.
         -5    1    3    3    0  501  0.44754340637E+02  0.67463147541E+02 -0.20219569129E+03  0.21785181858E+03  0.47000000000E+01 0. -1.
          5    1    4    4  502    0  0.38492877685E+02 -0.15399797770E+02 -0.28637951409E+02  0.50607091051E+02  0.47000000000E+01 0. -1.
         -5    1    4    4    0  502 -0.68368086469E+02 -0.99645014473E+01 -0.21753759692E+03  0.22829407047E+03  0.47000000000E+01 0. -1.
<mgrwt>
<rscale>  0 0.26929641E+03</rscale>
<asrwt>0</asrwt>
<pdfrwt beam="1">  1       21 0.40927122E-02 0.26929641E+03</pdfrwt>
<pdfrwt beam="2">  1       21 0.10484874E+00 0.26929641E+03</pdfrwt>
<totfact> 0.27033873E+05</totfact>
</mgrwt>
</event>
<event>
 8    1  0.9569852E-006  0.4466846E+03  0.7546771E-02  0.1028715E+00
         21   -1    0    0  504  503  0.00000000000E+00  0.00000000000E+00  0.44997831732E+03  0.44997831732E+03  0.00000000000E+00 0.  1.
         21   -1    0    0  503  504 -0.00000000000E+00 -0.00000000000E+00 -0.11085372871E+03  0.11085372871E+03  0.00000000000E+00 0.  1.
         25    2    1    2    0    0  0.74591606916E+02  0.12865803365E+03  0.30787869867E+03  0.36404805398E+03  0.12499958027E+03 0.  0.
         25    2    1    2    0    0 -0.74591606916E+02 -0.12865803365E+03  0.31245889945E+02  0.19678399205E+03  0.12502334359E+03 0.  0.
          5    1    3    3  501    0  0.27059707891E+02  0.68623982714E+00  0.16156215898E+03  0.16388142033E+03  0.47000000000E+01 0. -1.
         -5    1    3    3    0  501  0.47531899025E+02  0.12797179383E+03  0.14631653969E+03  0.20016663365E+03  0.47000000000E+01 0. -1.
          5    1    4    4  502    0  0.21695678617E+02  0.10071369764E+02  0.10635915850E+02  0.26596008451E+02  0.47000000000E+01 0. -1.
         -5    1    4    4    0  502 -0.96287285533E+02 -0.13872940342E+03  0.20609974095E+02  0.17018798359E+03  0.47000000000E+01 0. -1.
<mgrwt>
<rscale>  0 0.44668456E+03</rscale>
<asrwt>0</asrwt>
<pdfrwt beam="1">  1       21 0.69227432E-01 0.44668456E+03</pdfrwt>
<pdfrwt beam="2">  1       21 0.17054420E-01 0.44668456E+03</pdfrwt>
<totfact> 0.54290582E+04</totfact>
</mgrwt>
</event>
<event>
 8    1  0.9569852E-006  0.2837438E+03  0.7546771E-02  0.1093662E+00
         21   -1    0    0  504  503  0.00000000000E+00  0.00000000000E+00  0.19276888469E+03  0.19276888469E+03  0.00000000000E+00 0. -1.
         21   -1    0    0  503  504 -0.00000000000E+00 -0.00000000000E+00 -0.10441331369E+03  0.10441331369E+03  0.00000000000E+00 0. -1.
         25    2    1    2    0    0  0.57409907755E+02  0.24283683176E+02  0.70088267106E+02  0.15627636919E+03  0.12499737439E+03 0.  0.
         25    2    1    2    0    0 -0.57409907755E+02 -0.24283683176E+02  0.18267303891E+02  0.14090582919E+03  0.12504064752E+03 0.  0.
          5    1    3    3  501    0  0.90354790504E+02  0.23901996739E+02  0.78277402049E+02  0.12200301343E+03  0.47000000000E+01 0.  1.
         -5    1    3    3    0  501 -0.32944882749E+02  0.38168643651E+00 -0.81891349430E+01  0.34273355759E+02  0.47000000000E+01 0.  1.
          5    1    4    4  502    0 -0.75980938508E+02 -0.22636588696E+02  0.56936075159E+02  0.97720646840E+02  0.47000000000E+01 0.  1.
         -5    1    4    4    0  502  0.18571030753E+02 -0.16470944793E+01 -0.38668771268E+02  0.43185182352E+02  0.47000000000E+01 0.  1.
<mgrwt>
<rscale>  0 0.28374381E+03</rscale>
<asrwt>0</asrwt>
<pdfrwt beam="1">  1       21 0.29656751E-01 0.28374381E+03</pdfrwt>
<pdfrwt beam="2">  1       21 0.16063587E-01 0.28374381E+03</pdfrwt>
<totfact> 0.36990445E+05</totfact>
</mgrwt>
</event>
<event>
 8    1  0.9569852E-006  0.4303522E+03  0.7546771E-02  0.1033749E+00
         21   -1    0    0  504  503  0.00000000000E+00  0.00000000000E+00  0.32933721662E+02  0.32933721662E+02  0.00000000000E+00 0. -1.
         21   -1    0    0  503  504 -0.00000000000E+00 -0.00000000000E+00 -0.14058764756E+04  0.14058764756E+04  0.00000000000E+00 0. -1.
         25    2    1    2    0    0 -0.79715576017E+02  0.14300248129E+03 -0.89435778580E+03  0.91777168482E+03  0.12499893484E+03 0.  0.
         25    2    1    2    0    0  0.79715576017E+02 -0.14300248129E+03 -0.47858496817E+03  0.52103851249E+03  0.12503310368E+03 0.  0.
          5    1    3    3  501    0  0.21581622409E+02 -0.33628459647E+01 -0.18771370602E+03  0.18903862195E+03  0.47000000000E+01 0.  1.
         -5    1    3    3    0  501 -0.10129719843E+03  0.14636532725E+03 -0.70664407978E+03  0.72873306287E+03  0.47000000000E+01 0.  1.
          5    1    4    4  502    0  0.96215471863E+02 -0.92751687362E+02 -0.22321273280E+03  0.26020435549E+03  0.47000000000E+01 0. -1.
         -5    1    4    4    0  502 -0.16499895846E+02 -0.50250793923E+02 -0.25537223537E+03  0.26083415699E+03  0.47000000000E+01 0. -1.
<mgrwt>
<rscale>  0 0.43035216E+03</rscale>
<asrwt>0</asrwt>
<pdfrwt beam="1">  1       21 0.50667268E-02 0.43035216E+03</pdfrwt>
<pdfrwt beam="2">  1       21 0.21628867E+00 0.43035216E+03</pdfrwt>
<totfact> 0.24715301E+04</totfact>
</mgrwt>
</event>
<event>
 8    1  0.9569852E-006  0.3139575E+03  0.7546771E-02  0.1078464E+00
         21   -1    0    0  504  503  0.00000000000E+00  0.00000000000E+00  0.83721385175E+02  0.83721385175E+02  0.00000000000E+00 0.  1.
         21   -1    0    0  503  504 -0.00000000000E+00 -0.00000000000E+00 -0.29433724621E+03  0.29433724621E+03  0.00000000000E+00 0.  1.
         25    2    1    2    0    0  0.92615267663E+02  0.17319747210E+02 -0.90980880038E+02  0.18104591986E+03  0.12499017208E+03 0.  0.
         25    2    1    2    0    0 -0.92615267663E+02 -0.17319747210E+02 -0.11963498100E+03  0.19701271153E+03  0.12499567343E+03 0.  0.
          5    1    3    3  501    0  0.41367397176E+01  0.18359018640E+02 -0.90376317553E+02  0.92434490074E+02  0.47000000000E+01 0.  1.
         -5    1    3    3    0  501  0.88478527945E+02 -0.10392714300E+01 -0.60456248508E+00  0.88611429784E+02  0.47000000000E+01 0.  1.
          5    1    4    4  502    0 -0.10418525066E+03 -0.39871294477E+02 -0.12805366683E+03  0.16989443242E+03  0.47000000000E+01 0.  1.
         -5    1    4    4    0  502  0.11569982994E+02  0.22551547266E+02  0.84186858348E+01  0.27118279108E+02  0.47000000000E+01 0.  1.
<mgrwt>
<rscale>  0 0.31395746E+03</rscale>
<asrwt>0</asrwt>
<pdfrwt beam="1">  1       21 0.12880213E-01 0.31395746E+03</pdfrwt>
<pdfrwt beam="2">  1       21 0.45282653E-01 0.31395746E+03</pdfrwt>
<totfact> 0.23454252E+05</totfact>
</mgrwt>
</event>
<event>
 8    1  0.9569852E-006  0.5096808E+03  0.7546771E-02  0.1011283E+00
         21   -1    0    0  504  503  0.00000000000E+00  0.00000000000E+00  0.23942419529E+03  0.23942419529E+03  0.00000000000E+00 0.  1.
         21   -1    0    0  503  504 -0.00000000000E+00 -0.00000000000E+00 -0.27124926628E+03  0.27124926628E+03  0.00000000000E+00 0.  1.
         25    2    1    2    0    0 -0.18673197873E+03  0.93779960522E+02 -0.91255959835E+02  0.26003173763E+03  0.12500136596E+03 0.  0.
         25    2    1    2    0    0  0.18673197873E+03 -0.93779960522E+02  0.59430888850E+02  0.25064172394E+03  0.12500292138E+03 0.  0.
          5    1    3    3  501    0 -0.14061851225E+03  0.68430568988E+02 -0.21846712302E+01  0.15647099267E+03  0.47000000000E+01 0. -1.
         -5    1    3    3    0  501 -0.46113466484E+02  0.25349391535E+02 -0.89071288605E+02  0.10356074496E+03  0.47000000000E+01 0. -1.
          5    1    4    4  502    0  0.18632233843E+03 -0.90410336727E+02  0.85376381570E+02  0.22405637531E+03  0.47000000000E+01 0. -1.
         -5    1    4    4    0  502  0.40964030350E+00 -0.33696237951E+01 -0.25945492719E+02  0.26585348637E+02  0.47000000000E+01 0. -1.
<mgrwt>
<rscale>  0 0.50968083E+03</rscale>
<asrwt>0</asrwt>
<pdfrwt beam="1">  1       21 0.36834492E-01 0.50968083E+03</pdfrwt>
<pdfrwt beam="2">  1       21 0.41730656E-01 0.50968083E+03</pdfrwt>
<totfact> 0.35501870E+04</totfact>
</mgrwt>
</event>
<event>
 8    1  0.9569852E-006  0.3298100E+03  0.7546771E-02  0.1071221E+00
         21   -1    0    0  504  503  0.00000000000E+00  0.00000000000E+00  0.10586674573E+03  0.10586674573E+03  0.00000000000E+00 0. -1.
         21   -1    0    0  503  504 -0.00000000000E+00 -0.00000000000E+00 -0.25686686110E+03  0.25686686110E+03  0.00000000000E+00 0. -1.
         25    2    1    2    0    0  0.27719721090E+02  0.91351783469E+02 -0.21001533440E+02  0.15867917951E+03  0.12499794528E+03 0.  0.
         25    2    1    2    0    0 -0.27719721090E+02 -0.91351783469E+02 -0.12999858193E+03  0.20405442732E+03  0.12500018689E+03 0.  0.
          5    1    3    3  501    0 -0.30001934838E+02  0.52422624019E+02 -0.54304120658E+02  0.81358927743E+02  0.47000000000E+01 0. -1.
         -5    1    3    3    0  501  0.57721655928E+02  0.38929159450E+02  0.33302587218E+02  0.77320251771E+02  0.47000000000E+01 0. -1.
          5    1    4    4  502    0 -0.42325918825E+02  0.18449466427E+02 -0.37540261119E+02  0.59692775280E+02  0.47000000000E+01 0.  1.
         -5    1    4    4    0  502  0.14606197735E+02 -0.10980124990E+03 -0.92458320813E+02  0.14436165204E+03  0.47000000000E+01 0.  1.
<mgrwt>
<rscale>  0 0.32981000E+03</rscale>
<asrwt>0</asrwt>
<pdfrwt beam="1">  1       21 0.16287192E-01 0.32981000E+03</pdfrwt>
<pdfrwt beam="2">  1       21 0.39517978E-01 0.32981000E+03</pdfrwt>
<totfact> 0.20112894E+05</totfact>
</mgrwt>
</event>
<event>
 8    1  0.9569852E-006  0.2920983E+03  0.7546771E-02  0.1089259E+00
         21   -1    0    0  504  503  0.00000000000E+00  0.00000000000E+00  0.30036226272E+02  0.30036226272E+02  0.00000000000E+00 0.  1.
         21   -1    0    0  503  504 -0.00000000000E+00 -0.00000000000E+00 -0.71015424542E+03  0.71015424542E+03  0.00000000000E+00 0.  1.
         25    2    1    2    0    0  0.13866819141E+02  0.64204906184E+02 -0.43457231321E+03  0.45693881471E+03  0.12500170531E+03 0.  0.
         25    2    1    2    0    0 -0.13866819141E+02 -0.64204906184E+02 -0.24554570593E+03  0.28325165697E+03  0.12499699527E+03 0.  0.
          5    1    3    3  501    0  0.39120795300E+02  0.60124652498E+01 -0.37243605300E+02  0.54550549943E+02  0.47000000000E+01 0. -1.
         -5    1    3    3    0  501 -0.25253976159E+02  0.58192440935E+02 -0.39732870791E+03  0.40238826477E+03  0.47000000000E+01 0. -1.
          5    1    4    4  502    0 -0.50096342997E+02 -0.43514208248E+02 -0.49916467807E+02  0.83167744105E+02  0.47000000000E+01 0.  1.
         -5    1    4    4    0  502  0.36229523857E+02 -0.20690697937E+02 -0.19562923812E+03  0.20008391287E+03  0.47000000000E+01 0.  1.
<mgrwt>
<rscale>  0 0.29209830E+03</rscale>
<asrwt>0</asrwt>
<pdfrwt beam="1">  1       21 0.46209576E-02 0.29209830E+03</pdfrwt>
<pdfrwt beam="2">  1       21 0.10925451E+00 0.29209830E+03</pdfrwt>
<totfact> 0.19784244E+05</totfact>
</mgrwt>
</event>
<event>
 8    1  0.9569852E-006  0.3076571E+03  0.7546771E-02  0.1081474E+00
         21   -1    0    0  504  503  0.00000000000E+00  0.00000000000E+00  0.70843541785E+02  0.70843541785E+02  0.00000000000E+00 0. -1.
         21   -1    0    0  503  504 -0.00000000000E+00 -0.00000000000E+00 -0.33402079960E+03  0.33402079960E+03  0.00000000000E+00 0. -1.
         25    2    1    2    0    0 -0.28297166373E+02 -0.18609804514E+02 -0.22352925768E+02  0.13142860279E+03  0.12500707937E+03 0.  0.
         25    2    1    2    0    0  0.28297166373E+02  0.18609804514E+02 -0.24082433204E+03  0.27343573859E+03  0.12499475904E+03 0.  0.
          5    1    3    3  501    0 -0.40026525314E+02  0.34814670981E+02 -0.47205961649E+02  0.71166543119E+02  0.47000000000E+01 0.  1.
         -5    1    3    3    0  501  0.11729358942E+02 -0.53424475496E+02  0.24853035881E+02  0.60262059670E+02  0.47000000000E+01 0.  1.
          5    1    4    4  502    0 -0.23026960848E+02  0.56566207769E+02 -0.15262751527E+03  0.16446040620E+03  0.47000000000E+01 0.  1.
         -5    1    4    4    0  502  0.51324127221E+02 -0.37956403254E+02 -0.88196816770E+02  0.10897533240E+03  0.47000000000E+01 0.  1.
<mgrwt>
<rscale>  0 0.30765706E+03</rscale>
<asrwt>0</asrwt>
<pdfrwt beam="1">  1       21 0.10899006E-01 0.30765706E+03</pdfrwt>
<pdfrwt beam="2">  1       21 0.51387815E-01 0.30765706E+03</pdfrwt>
<totfact> 0.24354017E+05</totfact>
</mgrwt>
</event>
<event>
 8    1  0.9569852E-006  0.4502885E+03  0.7546771E-02  0.1027636E+00
         21   -1    0    0  504  503  0.00000000000E+00  0.00000000000E+00  0.43039843492E+02  0.43039843492E+02  0.00000000000E+00 0.  1.
         21   -1    0    0  503  504 -0.00000000000E+00 -0.00000000000E+00 -0.11777441985E+04  0.11777441985E+04  0.00000000000E+00 0.  1.
         25    2    1    2    0    0  0.43299437071E+02  0.10645755128E+03 -0.96816605679E+03  0.98294453182E+03  0.12500555048E+03 0.  0.
         25    2    1    2    0    0 -0.43299437071E+02 -0.10645755128E+03 -0.16653829821E+03  0.23783951016E+03  0.12499830537E+03 0.  0.
          5    1    3    3  501    0  0.48611869626E+02  0.11575547931E+02 -0.61948239360E+03  0.62151237571E+03  0.47000000000E+01 0. -1.
         -5    1    3    3    0  501 -0.53124325550E+01  0.94882003353E+02 -0.34868366319E+03  0.36143215612E+03  0.47000000000E+01 0. -1.
          5    1    4    4  502    0  0.38645876890E+02 -0.14499937495E+02 -0.19271166647E+02  0.45795413000E+02  0.47000000000E+01 0. -1.
         -5    1    4    4    0  502 -0.81945313961E+02 -0.91957613789E+02 -0.14726713156E+03  0.19204409716E+03  0.47000000000E+01 0. -1.
<mgrwt>
<rscale>  0 0.45028847E+03</rscale>
<asrwt>0</asrwt>
<pdfrwt beam="1">  1       21 0.66215139E-02 0.45028847E+03</pdfrwt>
<pdfrwt beam="2">  1       21 0.18119143E+00 0.45028847E+03</pdfrwt>
<totfact> 0.26496058E+04</totfact>
</mgrwt>
</event>
<event>
 8    1  0.9569852E-006  0.3857790E+03  0.7546771E-02  0.1048818E+00
         21   -1    0    0  504  503  0.00000000000E+00  0.00000000000E+00  0.14693313567E+03  0.14693313567E+03  0.00000000000E+00 0.  1.
         21   -1    0    0  503  504 -0.00000000000E+00 -0.00000000000E+00 -0.25321963783E+03  0.25321963783E+03  0.00000000000E+00 0.  1.
         25    2    1    2    0    0  0.75585903229E+02 -0.11933373369E+03 -0.94996108577E+02  0.21119294785E+03  0.12499772724E+03 0.  0.
         25    2    1    2    0    0 -0.75585903229E+02  0.11933373369E+03 -0.11290393585E+02  0.18895982564E+03  0.12499829582E+03 0.  0.
          5    1    3    3  501    0  0.53859851698E+01  0.10259802738E+02  0.20413642572E+02  0.23939072487E+02  0.47000000000E+01 0.  1.
         -5    1    3    3    0  501  0.70199918060E+02 -0.12959353642E+03 -0.11540975115E+03  0.18725387536E+03  0.47000000000E+01 0.  1.
          5    1    4    4  502    0  0.10145452004E+02  0.62579843135E+02  0.38820523641E+02  0.74486844603E+02  0.47000000000E+01 0. -1.
         -5    1    4    4    0  502 -0.85731355234E+02  0.56753890551E+02 -0.50110917225E+02  0.11447298104E+03  0.47000000000E+01 0. -1.
<mgrwt>
<rscale>  0 0.38577898E+03</rscale>
<asrwt>0</asrwt>
<pdfrwt beam="1">  1       21 0.22605098E-01 0.38577898E+03</pdfrwt>
<pdfrwt beam="2">  1       21 0.38956867E-01 0.38577898E+03</pdfrwt>
<totfact> 0.11028410E+05</totfact>
</mgrwt>
</event>
<event>
 8    1  0.9569852E-006  0.3214570E+03  0.7546771E-02  0.1074981E+00
         21   -1    0    0  504  503  0.00000000000E+00  0.00000000000E+00  0.65129241852E+03  0.65129241852E+03  0.00000000000E+00 0.  1.
         21   -1    0    0  503  504 -0.00000000000E+00 -0.00000000000E+00 -0.39665207861E+02  0.39665207861E+02  0.00000000000E+00 0.  1.
         25    2    1    2    0    0  0.64259691704E+02 -0.33708454110E+02  0.45693234057E+03  0.47924692326E+03  0.12499952694E+03 0.  0.
         25    2    1    2    0    0 -0.64259691704E+02  0.33708454110E+02  0.15469487008E+03  0.21171070312E+03  0.12500140451E+03 0.  0.
          5    1    3    3  501    0 -0.91978219418E+01  0.31097833832E+02  0.22585390464E+03  0.22821864831E+03  0.47000000000E+01 0. -1.
         -5    1    3    3    0  501  0.73457513646E+02 -0.64806287942E+02  0.23107843594E+03  0.25102827495E+03  0.47000000000E+01 0. -1.
          5    1    4    4  502    0 -0.44914980634E+02 -0.43351460747E+02  0.49536957896E+02  0.79829222919E+02  0.47000000000E+01 0. -1.
         -5    1    4    4    0  502 -0.19344711070E+02  0.77059914858E+02  0.10515791219E+03  0.13188148020E+03  0.47000000000E+01 0. -1.
<mgrwt>
<rscale>  0 0.32145699E+03</rscale>
<asrwt>0</asrwt>
<pdfrwt beam="1">  1       21 0.10019883E+00 0.32145699E+03</pdfrwt>
<pdfrwt beam="2">  1       21 0.61023402E-02 0.32145699E+03</pdfrwt>
<totfact> 0.15032690E+05</totfact>
</mgrwt>
</event>
<event>
 8    1  0.9569852E-006  0.2638574E+03  0.7546771E-02  0.1104848E+00
         21   -1    0    0  504  503  0.00000000000E+00  0.00000000000E+00  0.40046539715E+03  0.40046539715E+03  0.00000000000E+00 0.  1.
         21   -1    0    0  503  504 -0.00000000000E+00 -0.00000000000E+00 -0.43462391852E+02  0.43462391852E+02  0.00000000000E+00 0.  1.
         25    2    1    2    0    0  0.33653971408E+02 -0.23231299212E+02  0.16085640956E+03  0.20778043440E+03  0.12500256545E+03 0.  0.
         25    2    1    2    0    0 -0.33653971408E+02  0.23231299212E+02  0.19614659574E+03  0.23614735461E+03  0.12497921032E+03 0.  0.
          5    1    3    3  501    0 -0.31816507866E+02 -0.32479042227E+02  0.15914293205E+02  0.48399721951E+02  0.47000000000E+01 0. -1.
         -5    1    3    3    0  501  0.65470479274E+02  0.92477430151E+01  0.14494211635E+03  0.15938071245E+03  0.47000000000E+01 0. -1.
          5    1    4    4  502    0 -0.71529016088E+02 -0.14216467610E+02  0.80413267716E+02  0.10865952199E+03  0.47000000000E+01 0.  1.
         -5    1    4    4    0  502  0.37875044680E+02  0.37447766822E+02  0.11573332803E+03  0.12748783262E+03  0.47000000000E+01 0.  1.
<mgrwt>
<rscale>  0 0.26385742E+03</rscale>
<asrwt>0</asrwt>
<pdfrwt beam="1">  1       21 0.61610059E-01 0.26385742E+03</pdfrwt>
<pdfrwt beam="2">  1       21 0.66865221E-02 0.26385742E+03</pdfrwt>
<totfact> 0.39422964E+05</totfact>
</mgrwt>
</event>
<event>
 8    1  0.9569852E-006  0.3202391E+03  0.7546771E-02  0.1075539E+00
         21   -1    0    0  504  503  0.00000000000E+00  0.00000000000E+00  0.42391549534E+03  0.42391549534E+03  0.00000000000E+00 0.  1.
         21   -1    0    0  503  504 -0.00000000000E+00 -0.00000000000E+00 -0.60479672736E+02  0.60479672736E+02  0.00000000000E+00 0.  1.
         25    2    1    2    0    0  0.99096764258E+02 -0.75964108548E+01  0.19935254736E+03  0.25542567935E+03  0.12499186129E+03 0.  0.
         25    2    1    2    0    0 -0.99096764258E+02  0.75964108548E+01  0.16408327524E+03  0.22896948873E+03  0.12500332559E+03 0.  0.
          5    1    3    3  501    0  0.95895665516E+02  0.36277205280E+02  0.17985424596E+03  0.20707885956E+03  0.47000000000E+01 0.  1.
         -5    1    3    3    0  501  0.32010987422E+01 -0.43873616135E+02  0.19498301394E+02  0.48346819783E+02  0.47000000000E+01 0.  1.
          5    1    4    4  502    0 -0.48449998012E+02 -0.39238777102E+02  0.14397065405E+03  0.15696089692E+03  0.47000000000E+01 0.  1.
         -5    1    4    4    0  502 -0.50646766246E+02  0.46835187957E+02  0.20112621197E+02  0.72008591804E+02  0.47000000000E+01 0.  1.
<mgrwt>
<rscale>  0 0.32023910E+03</rscale>
<asrwt>0</asrwt>
<pdfrwt beam="1">  1       21 0.65217767E-01 0.32023910E+03</pdfrwt>
<pdfrwt beam="2">  1       21 0.93045653E-02 0.32023910E+03</pdfrwt>
<totfact> 0.19253666E+05</totfact>
</mgrwt>
</event>
<event>
 8    1  0.9569852E-006  0.4126945E+03  0.7546771E-02  0.1039471E+00
         21   -1    0    0  504  503  0.00000000000E+00  0.00000000000E+00  0.54701545036E+03  0.54701545036E+03  0.00000000000E+00 0. -1.
         21   -1    0    0  503  504 -0.00000000000E+00 -0.00000000000E+00 -0.77839100324E+02  0.77839100324E+02  0.00000000000E+00 0. -1.
         25    2    1    2    0    0 -0.16320120941E+03  0.89370020323E+01  0.25799917097E+03  0.33000555994E+03  0.12500237042E+03 0.  0.
         25    2    1    2    0    0  0.16320120941E+03 -0.89370020323E+01  0.21117717907E+03  0.29484899075E+03  0.12500248648E+03 0.  0.
          5    1    3    3  501    0  0.39740555500E+01  0.31369308971E+02  0.72535507862E+02  0.79267373891E+02  0.47000000000E+01 0.  1.
         -5    1    3    3    0  501 -0.16717526496E+03 -0.22432306939E+02  0.18546366311E+03  0.25073818605E+03  0.47000000000E+01 0.  1.
          5    1    4    4  502    0  0.87209594873E+02 -0.66455748849E+02  0.12414808260E+03  0.16570068318E+03  0.47000000000E+01 0. -1.
         -5    1    4    4    0  502  0.75991614536E+02  0.57518746817E+02  0.87029096470E+02  0.12914830757E+03  0.47000000000E+01 0. -1.
<mgrwt>
<rscale>  0 0.41269451E+03</rscale>
<asrwt>0</asrwt>
<pdfrwt beam="1">  1       21 0.84156221E-01 0.41269451E+03</pdfrwt>
<pdfrwt beam="2">  1       21 0.11975247E-01 0.41269451E+03</pdfrwt>
<totfact> 0.67228104E+04</totfact>
</mgrwt>
</event>
<event>
 8    1  0.9569852E-006  0.2617964E+03  0.7546771E-02  0.1106069E+00
         21   -1    0    0  504  503  0.00000000000E+00  0.00000000000E+00  0.43804171548E+02  0.43804171548E+02  0.00000000000E+00 0.  1.
         21   -1    0    0  503  504 -0.00000000000E+00 -0.00000000000E+00 -0.39115763087E+03  0.39115763087E+03  0.00000000000E+00 0.  1.
         25    2    1    2    0    0  0.10689444503E+02 -0.24611592401E+02 -0.22040413138E+03  0.25479091259E+03  0.12498173188E+03 0.  0.
         25    2    1    2    0    0 -0.10689444503E+02  0.24611592401E+02 -0.12694932795E+03  0.18017088983E+03  0.12500169188E+03 0.  0.
          5    1    3    3  501    0 -0.18730677883E+02  0.40068501846E+02 -0.14233001842E+03  0.14911823255E+03  0.47000000000E+01 0.  1.
         -5    1    3    3    0  501  0.29420122386E+02 -0.64680094247E+02 -0.78074112955E+02  0.10567268004E+03  0.47000000000E+01 0.  1.
          5    1    4    4  502    0 -0.43310005745E+02  0.18292782331E+02  0.16374443632E+01  0.47277412229E+02  0.47000000000E+01 0.  1.
         -5    1    4    4    0  502  0.32620561241E+02  0.63188100692E+01 -0.12858677231E+03  0.13289347760E+03  0.47000000000E+01 0.  1.
<mgrwt>
<rscale>  0 0.26179638E+03</rscale>
<asrwt>0</asrwt>
<pdfrwt beam="1">  1       21 0.67391029E-02 0.26179638E+03</pdfrwt>
<pdfrwt beam="2">  1       21 0.60178101E-01 0.26179638E+03</pdfrwt>
<totfact> 0.40943540E+05</totfact>
</mgrwt>
</event>
<event>
 8    1  0.9569852E-006  0.2782918E+03  0.7546771E-02  0.1096626E+00
         21   -1    0    0  504  503  0.00000000000E+00  0.00000000000E+00  0.15321135450E+03  0.15321135450E+03  0.00000000000E+00 0.  1.
         21   -1    0    0  503  504 -0.00000000000E+00 -0.00000000000E+00 -0.12637175450E+03  0.12637175450E+03  0.00000000000E+00 0.  1.
         25    2    1    2    0    0 -0.26726333048E+02 -0.45470874059E+02 -0.17656832024E+02  0.13680768450E+03  0.12499072588E+03 0.  0.
         25    2    1    2    0    0  0.26726333048E+02  0.45470874059E+02  0.44496432019E+02  0.14277542450E+03  0.12499196819E+03 0.  0.
          5    1    3    3  501    0 -0.17323332501E+02 -0.26254329385E+02 -0.71731131318E+02  0.78465488341E+02  0.47000000000E+01 0.  1.
         -5    1    3    3    0  501 -0.94030005470E+01 -0.19216544674E+02  0.54074299295E+02  0.58342196160E+02  0.47000000000E+01 0.  1.
          5    1    4    4  502    0 -0.46900869132E+01 -0.35470915502E+02  0.42562649045E+02  0.55801898315E+02  0.47000000000E+01 0.  1.
         -5    1    4    4    0  502  0.31416419961E+02  0.80941789561E+02  0.19337829734E+01  0.86973526186E+02  0.47000000000E+01 0.  1.
<mgrwt>
<rscale>  0 0.27829184E+03</rscale>
<asrwt>0</asrwt>
<pdfrwt beam="1">  1       21 0.23570978E-01 0.27829184E+03</pdfrwt>
<pdfrwt beam="2">  1       21 0.19441808E-01 0.27829184E+03</pdfrwt>
<totfact> 0.40502711E+05</totfact>
</mgrwt>
</event>
<event>
 8    1  0.9569852E-006  0.2830105E+03  0.7546771E-02  0.1094056E+00
         21   -1    0    0  504  503  0.00000000000E+00  0.00000000000E+00  0.69313081085E+02  0.69313081085E+02  0.00000000000E+00 0. -1.
         21   -1    0    0  503  504 -0.00000000000E+00 -0.00000000000E+00 -0.28888824406E+03  0.28888824406E+03  0.00000000000E+00 0. -1.
         25    2    1    2    0    0 -0.15905477251E+02 -0.34500310545E+02 -0.17860233346E+03  0.22128438155E+03  0.12499891347E+03 0.  0.
         25    2    1    2    0    0  0.15905477251E+02  0.34500310545E+02 -0.40972829520E+02  0.13691694359E+03  0.12499688416E+03 0.  0.
          5    1    3    3  501    0 -0.30074693400E+02  0.34794313441E+02 -0.12234662703E+03  0.13078959659E+03  0.47000000000E+01 0.  1.
         -5    1    3    3    0  501  0.14169216149E+02 -0.69294623987E+02 -0.56255706430E+02  0.90494784964E+02  0.47000000000E+01 0.  1.
          5    1    4    4  502    0  0.35378405103E+02  0.61781736301E+02 -0.64107975979E+02  0.95919430107E+02  0.47000000000E+01 0.  1.
         -5    1    4    4    0  502 -0.19472927852E+02 -0.27281425756E+02  0.23135146459E+02  0.40997513486E+02  0.47000000000E+01 0.  1.
<mgrwt>
<rscale>  0 0.28301049E+03</rscale>
<asrwt>0</asrwt>
<pdfrwt beam="1">  1       21 0.10663551E-01 0.28301049E+03</pdfrwt>
<pdfrwt beam="2">  1       21 0.44444345E-01 0.28301049E+03</pdfrwt>
<totfact> 0.34490368E+05</totfact>
</mgrwt>
</event>
<event>
 8    1  0.9569852E-006  0.5812072E+03  0.7546771E-02  0.9945181E-01
         21   -1    0    0  504  503  0.00000000000E+00  0.00000000000E+00  0.10981303235E+03  0.10981303235E+03  0.00000000000E+00 0. -1.
         21   -1    0    0  503  504 -0.00000000000E+00 -0.00000000000E+00 -0.76903848212E+03  0.76903848212E+03  0.00000000000E+00 0. -1.
         25    2    1    2    0    0 -0.25574817126E+03  0.12445071082E+02 -0.24322603197E+03  0.37462524967E+03  0.12499267245E+03 0.  0.
         25    2    1    2    0    0  0.25574817126E+03 -0.12445071082E+02 -0.41599941780E+03  0.50422626481E+03  0.12500641429E+03 0.  0.
          5    1    3    3  501    0 -0.97171054717E+02  0.45742253870E+02 -0.15904117430E+03  0.19196549895E+03  0.47000000000E+01 0. -1.
         -5    1    3    3    0  501 -0.15857711654E+03 -0.33297182787E+02 -0.84184857669E+02  0.18265975072E+03  0.47000000000E+01 0. -1.
          5    1    4    4  502    0  0.50299511964E+02 -0.71867946598E+00 -0.19825221436E+03  0.20458882644E+03  0.47000000000E+01 0.  1.
         -5    1    4    4    0  502  0.20544865929E+03 -0.11726391616E+02 -0.21774720344E+03  0.29963743837E+03  0.47000000000E+01 0.  1.
<mgrwt>
<rscale>  0 0.58120718E+03</rscale>
<asrwt>0</asrwt>
<pdfrwt beam="1">  1       21 0.16894312E-01 0.58120718E+03</pdfrwt>
<pdfrwt beam="2">  1       21 0.11831362E+00 0.58120718E+03</pdfrwt>
<totfact> 0.14945353E+04</totfact>
</mgrwt>
</event>
<event>
 8    1  0.9569852E-006  0.2790726E+03  0.7546771E-02  0.1096197E+00
         21   -1    0    0  504  503  0.00000000000E+00  0.00000000000E+00  0.87502809020E+02  0.87502809020E+02  0.00000000000E+00 0.  1.
         21   -1    0    0  503  504 -0.00000000000E+00 -0.00000000000E+00 -0.22251142439E+03  0.22251142439E+03  0.00000000000E+00 0.  1.
         25    2    1    2    0    0  0.66680898233E+01  0.35211276015E+02 -0.11241383785E+02  0.13049334262E+03  0.12497138224E+03 0.  0.
         25    2    1    2    0    0 -0.66680898233E+01 -0.35211276015E+02 -0.12376723159E+03  0.17952089079E+03  0.12500050094E+03 0.  0.
          5    1    3    3  501    0  0.47812126012E+02 -0.26938367143E+02 -0.87404947414E+01  0.55768819841E+02  0.47000000000E+01 0.  1.
         -5    1    3    3    0  501 -0.41144036189E+02  0.62149643158E+02 -0.25008890437E+01  0.74724522779E+02  0.47000000000E+01 0.  1.
          5    1    4    4  502    0 -0.24947685655E+02 -0.73707430217E+02 -0.10933868203E+03  0.13428406338E+03  0.47000000000E+01 0.  1.
         -5    1    4    4    0  502  0.18279595831E+02  0.38496154202E+02 -0.14428549555E+02  0.45236827413E+02  0.47000000000E+01 0.  1.
<mgrwt>
<rscale>  0 0.27907257E+03</rscale>
<asrwt>0</asrwt>
<pdfrwt beam="1">  1       21 0.13461971E-01 0.27907257E+03</pdfrwt>
<pdfrwt beam="2">  1       21 0.34232526E-01 0.27907257E+03</pdfrwt>
<totfact> 0.38527999E+05</totfact>
</mgrwt>
</event>
<event>
 8    1  0.9569852E-006  0.3084349E+03  0.7546771E-02  0.1081099E+00
         21   -1    0    0  504  503  0.00000000000E+00  0.00000000000E+00  0.18747320310E+04  0.18747320310E+04  0.00000000000E+00 0.  1.
         21   -1    0    0  503  504 -0.00000000000E+00 -0.00000000000E+00 -0.12686087843E+02  0.12686087843E+02  0.00000000000E+00 0.  1.
         25    2    1    2    0    0  0.73241931172E+02  0.11831266974E+02  0.61571330614E+03  0.63263749225E+03  0.12499184728E+03 0.  0.
         25    2    1    2    0    0 -0.73241931172E+02 -0.11831266974E+02  0.12463326370E+04  0.12547806265E+04  0.12500007765E+03 0.  0.
          5    1    3    3  501    0  0.30262781104E+02  0.36308683237E+02  0.53995829410E+03  0.54204354600E+03  0.47000000000E+01 0.  1.
         -5    1    3    3    0  501  0.42979150068E+02 -0.24477416263E+02  0.75755012041E+02  0.90593946248E+02  0.47000000000E+01 0.  1.
          5    1    4    4  502    0 -0.47641578412E+02 -0.12495761764E+02  0.12044424766E+04  0.12054582670E+04  0.47000000000E+01 0.  1.
         -5    1    4    4    0  502 -0.25600352760E+02  0.66449478988E+00  0.41890160389E+02  0.49322359556E+02  0.47000000000E+01 0.  1.
<mgrwt>
<rscale>  0 0.30843486E+03</rscale>
<asrwt>0</asrwt>
<pdfrwt beam="1">  1       21 0.28842009E+00 0.30843486E+03</pdfrwt>
<pdfrwt beam="2">  1       21 0.19517073E-02 0.30843486E+03</pdfrwt>
<totfact> 0.47041745E+04</totfact>
</mgrwt>
</event>
<event>
 8    1  0.9569852E-006  0.2834094E+03  0.7546771E-02  0.1093841E+00
         21   -1    0    0  504  503  0.00000000000E+00  0.00000000000E+00  0.95565185736E+02  0.95565185736E+02  0.00000000000E+00 0. -1.
         21   -1    0    0  503  504 -0.00000000000E+00 -0.00000000000E+00 -0.21012065793E+03  0.21012065793E+03  0.00000000000E+00 0. -1.
         25    2    1    2    0    0  0.40945080150E+02 -0.19779909504E+02 -0.45818685469E+01  0.13309554909E+03  0.12500274901E+03 0.  0.
         25    2    1    2    0    0 -0.40945080150E+02  0.19779909504E+02 -0.10997360365E+03  0.17259029458E+03  0.12500188748E+03 0.  0.
          5    1    3    3  501    0 -0.25088633025E+02 -0.54000119823E+01 -0.46579852636E+02  0.53388878131E+02  0.47000000000E+01 0.  1.
         -5    1    3    3    0  501  0.66033713175E+02 -0.14379897522E+02  0.41997984089E+02  0.79706670963E+02  0.47000000000E+01 0.  1.
          5    1    4    4  502    0 -0.43055906558E+02  0.68183998927E+02 -0.87149142837E+02  0.11882731965E+03  0.47000000000E+01 0.  1.
         -5    1    4    4    0  502  0.21108264078E+01 -0.48404089423E+02 -0.22824460814E+02  0.53762974922E+02  0.47000000000E+01 0.  1.
<mgrwt>
<rscale>  0 0.28340938E+03</rscale>
<asrwt>0</asrwt>
<pdfrwt beam="1">  1       21 0.14702336E-01 0.28340938E+03</pdfrwt>
<pdfrwt beam="2">  1       21 0.32326255E-01 0.28340938E+03</pdfrwt>
<totfact> 0.36728841E+05</totfact>
</mgrwt>
</event>
<event>
 8    1  0.9569852E-006  0.2891367E+03  0.7546771E-02  0.1090801E+00
         21   -1    0    0  504  503  0.00000000000E+00  0.00000000000E+00  0.77894169010E+02  0.77894169010E+02  0.00000000000E+00 0.  1.
         21   -1    0    0  503  504 -0.00000000000E+00 -0.00000000000E+00 -0.26831294670E+03  0.26831294670E+03  0.00000000000E+00 0.  1.
         25    2    1    2    0    0 -0.68763368291E+02  0.12384179570E+02 -0.11895906439E+03  0.18616744541E+03  0.12500116003E+03 0.  0.
         25    2    1    2    0    0  0.68763368291E+02 -0.12384179570E+02 -0.71459713307E+02  0.16003967030E+03  0.12499774687E+03 0.  0.
          5    1    3    3  501    0 -0.62856887541E+02  0.13571978431E+02  0.24448664770E+01  0.64523284804E+02  0.47000000000E+01 0. -1.
         -5    1    3    3    0  501 -0.59064807498E+01 -0.11877988605E+01 -0.12140393086E+03  0.12164416061E+03  0.47000000000E+01 0. -1.
          5    1    4    4  502    0  0.48204046203E+02  0.47942496646E+02 -0.67641892584E+02  0.96018897554E+02  0.47000000000E+01 0.  1.
         -5    1    4    4    0  502  0.20559322087E+02 -0.60326676216E+02 -0.38178207222E+01  0.64020772747E+02  0.47000000000E+01 0.  1.
<mgrwt>
<rscale>  0 0.28913674E+03</rscale>
<asrwt>0</asrwt>
<pdfrwt beam="1">  1       21 0.11983718E-01 0.28913674E+03</pdfrwt>
<pdfrwt beam="2">  1       21 0.41278915E-01 0.28913674E+03</pdfrwt>
<totfact> 0.32519338E+05</totfact>
</mgrwt>
</event>
<event>
 8    1  0.9569852E-006  0.2918360E+03  0.7546771E-02  0.1089394E+00
         21   -1    0    0  504  503  0.00000000000E+00  0.00000000000E+00  0.57321968866E+03  0.57321968866E+03  0.00000000000E+00 0. -1.
         21   -1    0    0  503  504 -0.00000000000E+00 -0.00000000000E+00 -0.37144686033E+02  0.37144686033E+02  0.00000000000E+00 0. -1.
         25    2    1    2    0    0  0.17513326775E+02 -0.28510655677E+02  0.40906078830E+03  0.42904433800E+03  0.12501496448E+03 0.  0.
         25    2    1    2    0    0 -0.17513326775E+02  0.28510655677E+02  0.12701421433E+03  0.18132003669E+03  0.12499908385E+03 0.  0.
          5    1    3    3  501    0 -0.31957047748E+02  0.22547160101E+02  0.53627758404E+02  0.66540617677E+02  0.47000000000E+01 0. -1.
         -5    1    3    3    0  501  0.49470374522E+02 -0.51057815778E+02  0.35543302990E+03  0.36250372033E+03  0.47000000000E+01 0. -1.
          5    1    4    4  502    0  0.40582100337E+02  0.14198141659E+02  0.11111113968E+03  0.11923199846E+03  0.47000000000E+01 0.  1.
         -5    1    4    4    0  502 -0.58095427111E+02  0.14312514018E+02  0.15903074644E+02  0.62088038235E+02  0.47000000000E+01 0.  1.
<mgrwt>
<rscale>  0 0.29183602E+03</rscale>
<asrwt>0</asrwt>
<pdfrwt beam="1">  1       21 0.88187638E-01 0.29183602E+03</pdfrwt>
<pdfrwt beam="2">  1       21 0.57145675E-02 0.29183602E+03</pdfrwt>
<totfact> 0.22946016E+05</totfact>
</mgrwt>
</event>
<event>
 8    1  0.9569852E-006  0.2675942E+03  0.7546771E-02  0.1102664E+00
         21   -1    0    0  504  503  0.00000000000E+00  0.00000000000E+00  0.31995705226E+02  0.31995705226E+02  0.00000000000E+00 0. -1.
         21   -1    0    0  503  504 -0.00000000000E+00 -0.00000000000E+00 -0.55950212245E+03  0.55950212245E+03  0.00000000000E+00 0. -1.
         25    2    1    2    0    0  0.15230428338E+01  0.47640353167E+02 -0.25899654170E+03  0.29150651398E+03  0.12499966468E+03 0.  0.
         25    2    1    2    0    0 -0.15230428338E+01 -0.47640353167E+02 -0.26850987552E+03  0.29999131369E+03  0.12500124852E+03 0.  0.
          5    1    3    3  501    0 -0.27888651408E+02  0.75819094216E+02 -0.22196879944E+03  0.23625949685E+03  0.47000000000E+01 0. -1.
         -5    1    3    3    0  501  0.29411694242E+02 -0.28178741048E+02 -0.37027742264E+02  0.55247017136E+02  0.47000000000E+01 0. -1.
          5    1    4    4  502    0  0.44868313386E+02  0.84205780562E+01 -0.17769105019E+03  0.18352185428E+03  0.47000000000E+01 0. -1.
         -5    1    4    4    0  502 -0.46391356220E+02 -0.56060931223E+02 -0.90818825328E+02  0.11646945941E+03  0.47000000000E+01 0. -1.
<mgrwt>
<rscale>  0 0.26759421E+03</rscale>
<asrwt>0</asrwt>
<pdfrwt beam="1">  1       21 0.49224165E-02 0.26759421E+03</pdfrwt>
<pdfrwt beam="2">  1       21 0.86077244E-01 0.26759421E+03</pdfrwt>
<totfact> 0.31528534E+05</totfact>
</mgrwt>
</event>
<event>
 8    1  0.9569852E-006  0.3440416E+03  0.7546771E-02  0.1065088E+00
         21   -1    0    0  504  503  0.00000000000E+00  0.00000000000E+00  0.20799447305E+04  0.20799447305E+04  0.00000000000E+00 0. -1.
         21   -1    0    0  503  504 -0.00000000000E+00 -0.00000000000E+00 -0.14226893606E+02  0.14226893606E+02  0.00000000000E+00 0. -1.
         25    2    1    2    0    0  0.49813632168E+02  0.69147011587E+02  0.53447148710E+03  0.55546985451E+03  0.12499712629E+03 0.  0.
         25    2    1    2    0    0 -0.49813632168E+02 -0.69147011587E+02  0.15312463498E+04  0.15387017696E+04  0.12500017941E+03 0.  0.
          5    1    3    3  501    0 -0.30159281576E+02 -0.12041815862E+02  0.18408026190E+03  0.18698187189E+03  0.47000000000E+01 0.  1.
         -5    1    3    3    0  501  0.79972913744E+02  0.81188827449E+02  0.35039122521E+03  0.36848798262E+03  0.47000000000E+01 0.  1.
          5    1    4    4  502    0 -0.24450360459E+02  0.21197757088E+02  0.12135473764E+03  0.12568304332E+03  0.47000000000E+01 0.  1.
         -5    1    4    4    0  502 -0.25363271709E+02 -0.90344768676E+02  0.14098916121E+04  0.14130187262E+04  0.47000000000E+01 0.  1.
<mgrwt>
<rscale>  0 0.34404158E+03</rscale>
<asrwt>0</asrwt>
<pdfrwt beam="1">  1       21 0.31999126E+00 0.34404158E+03</pdfrwt>
<pdfrwt beam="2">  1       21 0.21887545E-02 0.34404158E+03</pdfrwt>
<totfact> 0.24812309E+04</totfact>
</mgrwt>
</event>
<event>
 8    1  0.9569852E-006  0.2852775E+03  0.7546771E-02  0.1092841E+00
         21   -1    0    0  504  503  0.00000000000E+00  0.00000000000E+00  0.32701465710E+03  0.32701465710E+03  0.00000000000E+00 0.  1.
         21   -1    0    0  503  504 -0.00000000000E+00 -0.00000000000E+00 -0.62216802846E+02  0.62216802846E+02  0.00000000000E+00 0.  1.
         25    2    1    2    0    0  0.67130089458E+02  0.32632273737E+01  0.11289376224E+03  0.18134553965E+03  0.12499642249E+03 0.  0.
         25    2    1    2    0    0 -0.67130089458E+02 -0.32632273737E+01  0.15190409202E+03  0.20788592030E+03  0.12499842048E+03 0.  0.
          5    1    3    3  501    0  0.29896943278E+02  0.45809807636E+02 -0.10541375763E+00  0.54904160180E+02  0.47000000000E+01 0.  1.
         -5    1    3    3    0  501  0.37233146180E+02 -0.42546580262E+02  0.11299917599E+03  0.12644137947E+03  0.47000000000E+01 0.  1.
          5    1    4    4  502    0 -0.30429817444E+02  0.26046647667E+02  0.15540599335E+03  0.16055377421E+03  0.47000000000E+01 0. -1.
         -5    1    4    4    0  502 -0.36700272013E+02 -0.29309875041E+02 -0.35019013262E+01  0.47332146092E+02  0.47000000000E+01 0. -1.
<mgrwt>
<rscale>  0 0.28527745E+03</rscale>
<asrwt>0</asrwt>
<pdfrwt beam="1">  1       21 0.50309946E-01 0.28527745E+03</pdfrwt>
<pdfrwt beam="2">  1       21 0.95718160E-02 0.28527745E+03</pdfrwt>
<totfact> 0.32265508E+05</totfact>
</mgrwt>
</event>
<event>
 8    1  0.9569852E-006  0.2696018E+03  0.7546771E-02  0.1101508E+00
         21   -1    0    0  504  503  0.00000000000E+00  0.00000000000E+00  0.64071411015E+03  0.64071411015E+03  0.00000000000E+00 0. -1.
         21   -1    0    0  503  504 -0.00000000000E+00 -0.00000000000E+00 -0.28360981503E+02  0.28360981503E+02  0.00000000000E+00 0. -1.
         25    2    1    2    0    0  0.26954863684E+02  0.31594365019E+02  0.23505792724E+03  0.26944802688E+03  0.12500096580E+03 0.  0.
         25    2    1    2    0    0 -0.26954863684E+02 -0.31594365019E+02  0.37729520141E+03  0.39962706478E+03  0.12500141327E+03 0.  0.
          5    1    3    3  501    0  0.57684074893E+02  0.15371076749E+02  0.22519718051E+03  0.23302270835E+03  0.47000000000E+01 0. -1.
         -5    1    3    3    0  501 -0.30729211209E+02  0.16223288271E+02  0.98607467321E+01  0.36425318529E+02  0.47000000000E+01 0. -1.
          5    1    4    4  502    0 -0.82164554546E+01  0.19377991516E+02  0.31932915636E+03  0.32005658374E+03  0.47000000000E+01 0. -1.
         -5    1    4    4    0  502 -0.18738408230E+02 -0.50972356536E+02  0.57966045054E+02  0.79570481040E+02  0.47000000000E+01 0. -1.
<mgrwt>
<rscale>  0 0.26960179E+03</rscale>
<asrwt>0</asrwt>
<pdfrwt beam="1">  1       21 0.98571391E-01 0.26960179E+03</pdfrwt>
<pdfrwt beam="2">  1       21 0.43632284E-02 0.26960179E+03</pdfrwt>
<totfact> 0.28142495E+05</totfact>
</mgrwt>
</event>
<event>
 8    1  0.9569852E-006  0.4081123E+03  0.7546771E-02  0.1041006E+00
         21   -1    0    0  504  503  0.00000000000E+00  0.00000000000E+00  0.23781020953E+02  0.23781020953E+02  0.00000000000E+00 0.  1.
         21   -1    0    0  503  504 -0.00000000000E+00 -0.00000000000E+00 -0.17509307714E+04  0.17509307714E+04  0.00000000000E+00 0.  1.
         25    2    1    2    0    0  0.65376126466E+02  0.13491516620E+03 -0.11219358136E+04  0.11387895988E+04  0.12500256241E+03 0.  0.
         25    2    1    2    0    0 -0.65376126466E+02 -0.13491516620E+03 -0.60521393687E+03  0.63592219354E+03  0.12504793826E+03 0.  0.
          5    1    3    3  501    0  0.48661638533E+02  0.12981083328E+03 -0.11060345537E+04  0.11146987626E+04  0.47000000000E+01 0. -1.
         -5    1    3    3    0  501  0.16714487933E+02  0.51043329294E+01 -0.15901259902E+02  0.24090836183E+02  0.47000000000E+01 0. -1.
          5    1    4    4  502    0 -0.95615419653E+01  0.23906742632E+02 -0.65200479942E+02  0.70257725644E+02  0.47000000000E+01 0. -1.
         -5    1    4    4    0  502 -0.55814584501E+02 -0.15882190884E+03 -0.54001345693E+03  0.56566446789E+03  0.47000000000E+01 0. -1.
<mgrwt>
<rscale>  0 0.40811234E+03</rscale>
<asrwt>0</asrwt>
<pdfrwt beam="1">  1       21 0.36586197E-02 0.40811234E+03</pdfrwt>
<pdfrwt beam="2">  1       21 0.26937388E+00 0.40811234E+03</pdfrwt>
<totfact> 0.20415841E+04</totfact>
</mgrwt>
</event>
<event>
 8    1  0.9569852E-006  0.2938881E+03  0.7546771E-02  0.1088336E+00
         21   -1    0    0  504  503  0.00000000000E+00  0.00000000000E+00  0.32401830123E+03  0.32401830123E+03  0.00000000000E+00 0. -1.
         21   -1    0    0  503  504 -0.00000000000E+00 -0.00000000000E+00 -0.66639904820E+02  0.66639904820E+02  0.00000000000E+00 0. -1.
         25    2    1    2    0    0 -0.49939452347E+02  0.58017840694E+02  0.11470212281E+03  0.18610648068E+03  0.12497610345E+03 0.  0.
         25    2    1    2    0    0  0.49939452347E+02 -0.58017840694E+02  0.14267627359E+03  0.20455172537E+03  0.12499948226E+03 0.  0.
          5    1    3    3  501    0 -0.16074859884E+02 -0.16632231015E+02 -0.18255849232E+02  0.29839541887E+02  0.47000000000E+01 0. -1.
         -5    1    3    3    0  501 -0.33864592463E+02  0.74650071710E+02  0.13295797204E+03  0.15626693879E+03  0.47000000000E+01 0. -1.
          5    1    4    4  502    0  0.65875124841E+02 -0.14159505300E+02  0.15915798381E+02  0.69393272738E+02  0.47000000000E+01 0.  1.
         -5    1    4    4    0  502 -0.15935672494E+02 -0.43858335395E+02  0.12676047521E+03  0.13515845263E+03  0.47000000000E+01 0.  1.
<mgrwt>
<rscale>  0 0.29388807E+03</rscale>
<asrwt>0</asrwt>
<pdfrwt beam="1">  1       21 0.49848969E-01 0.29388807E+03</pdfrwt>
<pdfrwt beam="2">  1       21 0.10252293E-01 0.29388807E+03</pdfrwt>
<totfact> 0.29057683E+05</totfact>
</mgrwt>
</event>
<event>
 8    1  0.9569852E-006  0.2830989E+03  0.7546771E-02  0.1094008E+00
         21   -1    0    0  504  503  0.00000000000E+00  0.00000000000E+00  0.11752002389E+04  0.11752002389E+04  0.00000000000E+00 0. -1.
         21   -1    0    0  503  504 -0.00000000000E+00 -0.00000000000E+00 -0.17049222691E+02  0.17049222691E+02  0.00000000000E+00 0. -1.
         25    2    1    2    0    0 -0.38583589407E+02  0.45853282423E+02  0.69954624121E+03  0.71315305295E+03  0.12502446345E+03 0.  0.
         25    2    1    2    0    0  0.38583589407E+02 -0.45853282423E+02  0.45860477504E+03  0.47909640868E+03  0.12499524888E+03 0.  0.
          5    1    3    3  501    0 -0.61823935911E+02  0.44069376976E+02  0.67390135498E+03  0.67818097532E+03  0.47000000000E+01 0.  1.
         -5    1    3    3    0  501  0.23240346504E+02  0.17839054474E+01  0.25644886234E+02  0.34972077636E+02  0.47000000000E+01 0.  1.
          5    1    4    4  502    0 -0.42651664021E+02  0.40330420582E+01  0.13553260919E+03  0.14222027994E+03  0.47000000000E+01 0.  1.
         -5    1    4    4    0  502  0.81235253428E+02 -0.49886324481E+02  0.32307216585E+03  0.33687612874E+03  0.47000000000E+01 0.  1.
<mgrwt>
<rscale>  0 0.28309893E+03</rscale>
<asrwt>0</asrwt>
<pdfrwt beam="1">  1       21 0.18079997E+00 0.28309893E+03</pdfrwt>
<pdfrwt beam="2">  1       21 0.26229583E-02 0.28309893E+03</pdfrwt>
<totfact> 0.13640295E+05</totfact>
</mgrwt>
</event>
<event>
 8    1  0.9569852E-006  0.2661316E+03  0.7546771E-02  0.1103514E+00
         21   -1    0    0  504  503  0.00000000000E+00  0.00000000000E+00  0.55328004792E+02  0.55328004792E+02  0.00000000000E+00 0.  1.
         21   -1    0    0  503  504 -0.00000000000E+00 -0.00000000000E+00 -0.32002799212E+03  0.32002799212E+03  0.00000000000E+00 0.  1.
         25    2    1    2    0    0  0.27332867032E+02 -0.36002868894E+02 -0.12365471124E+03  0.18154470443E+03  0.12499879962E+03 0.  0.
         25    2    1    2    0    0 -0.27332867032E+02  0.36002868894E+02 -0.14104527609E+03  0.19381129248E+03  0.12500301995E+03 0.  0.
          5    1    3    3  501    0  0.22021644226E+02 -0.31157596575E+02  0.15990391263E+02  0.41635696842E+02  0.47000000000E+01 0.  1.
         -5    1    3    3    0  501  0.53112228060E+01 -0.48452723188E+01 -0.13964510251E+03  0.13990900759E+03  0.47000000000E+01 0.  1.
          5    1    4    4  502    0  0.15366280570E+02  0.14910437860E+02  0.17595578590E+02  0.28109395612E+02  0.47000000000E+01 0.  1.
         -5    1    4    4    0  502 -0.42699147602E+02  0.21092431033E+02 -0.15864085468E+03  0.16570189687E+03  0.47000000000E+01 0.  1.
<mgrwt>
<rscale>  0 0.26613162E+03</rscale>
<asrwt>0</asrwt>
<pdfrwt beam="1">  1       21 0.85120007E-02 0.26613162E+03</pdfrwt>
<pdfrwt beam="2">  1       21 0.49235076E-01 0.26613162E+03</pdfrwt>
<totfact> 0.41707415E+05</totfact>
</mgrwt>
</event>
<event>
 8    1  0.9569852E-006  0.2514343E+03  0.7546771E-02  0.1112402E+00
         21   -1    0    0  504  503  0.00000000000E+00  0.00000000000E+00  0.12436174390E+03  0.12436174390E+03  0.00000000000E+00 0. -1.
         21   -1    0    0  503  504 -0.00000000000E+00 -0.00000000000E+00 -0.12708728101E+03  0.12708728101E+03  0.00000000000E+00 0. -1.
         25    2    1    2    0    0  0.54601966257E+01 -0.11847973961E+02  0.20042651354E+01  0.12568952930E+03  0.12499460974E+03 0.  0.
         25    2    1    2    0    0 -0.54601966257E+01  0.11847973961E+02 -0.47298022434E+01  0.12575949561E+03  0.12499156560E+03 0.  0.
          5    1    3    3  501    0 -0.17267365014E+02  0.19688655444E+02 -0.52336445708E+02  0.58711145424E+02  0.47000000000E+01 0. -1.
         -5    1    3    3    0  501  0.22727561639E+02 -0.31536629404E+02  0.54340710843E+02  0.66978383880E+02  0.47000000000E+01 0. -1.
          5    1    4    4  502    0 -0.17029534224E+02 -0.50870293476E+02  0.19645457792E+02  0.57322123182E+02  0.47000000000E+01 0.  1.
         -5    1    4    4    0  502  0.11569337598E+02  0.62718267437E+02 -0.24375260036E+02  0.68437372426E+02  0.47000000000E+01 0.  1.
<mgrwt>
<rscale>  0 0.25143425E+03</rscale>
<asrwt>0</asrwt>
<pdfrwt beam="1">  1       21 0.19132576E-01 0.25143425E+03</pdfrwt>
<pdfrwt beam="2">  1       21 0.19551889E-01 0.25143425E+03</pdfrwt>
<totfact> 0.59752540E+05</totfact>
</mgrwt>
</event>
<event>
 8    1  0.9569852E-006  0.3465210E+03  0.7546771E-02  0.1064052E+00
         21   -1    0    0  504  503  0.00000000000E+00  0.00000000000E+00  0.37609401966E+03  0.37609401966E+03  0.00000000000E+00 0. -1.
         21   -1    0    0  503  504 -0.00000000000E+00 -0.00000000000E+00 -0.79818338860E+02  0.79818338860E+02  0.00000000000E+00 0. -1.
         25    2    1    2    0    0 -0.89173003213E+02  0.32507699260E+02  0.51585845090E+02  0.16521251915E+03  0.12500200822E+03 0.  0.
         25    2    1    2    0    0  0.89173003213E+02 -0.32507699260E+02  0.24468983571E+03  0.29069983937E+03  0.12499882357E+03 0.  0.
          5    1    3    3  501    0 -0.49160632293E+02 -0.27057355583E+02  0.71103220962E+02  0.90700751318E+02  0.47000000000E+01 0. -1.
         -5    1    3    3    0  501 -0.40012370921E+02  0.59565054843E+02 -0.19517375872E+02  0.74511767836E+02  0.47000000000E+01 0. -1.
          5    1    4    4  502    0  0.91650448834E+01  0.31811155438E+02  0.10648852173E+02  0.35091818286E+02  0.47000000000E+01 0. -1.
         -5    1    4    4    0  502  0.80007958330E+02 -0.64318854698E+02  0.23404098354E+03  0.25560802108E+03  0.47000000000E+01 0. -1.
<mgrwt>
<rscale>  0 0.34652099E+03</rscale>
<asrwt>0</asrwt>
<pdfrwt beam="1">  1       21 0.57860617E-01 0.34652099E+03</pdfrwt>
<pdfrwt beam="2">  1       21 0.12279745E-01 0.34652099E+03</pdfrwt>
<totfact> 0.15106915E+05</totfact>
</mgrwt>
</event>
<event>
 8    1  0.9569852E-006  0.3407347E+03  0.7546771E-02  0.1066483E+00
         21   -1    0    0  504  503  0.00000000000E+00  0.00000000000E+00  0.33071604232E+03  0.33071604232E+03  0.00000000000E+00 0.  1.
         21   -1    0    0  503  504 -0.00000000000E+00 -0.00000000000E+00 -0.87764190067E+02  0.87764190067E+02  0.00000000000E+00 0.  1.
         25    2    1    2    0    0  0.63712193448E+01  0.11320480246E+03  0.14992125429E+03  0.22573912127E+03  0.12500339456E+03 0.  0.
         25    2    1    2    0    0 -0.63712193448E+01 -0.11320480246E+03  0.93030597969E+02  0.19274111112E+03  0.12505408438E+03 0.  0.
          5    1    3    3  501    0  0.23879834103E+02  0.12071731733E+03  0.16139252606E+03  0.20300875510E+03  0.47000000000E+01 0.  1.
         -5    1    3    3    0  501 -0.17508614758E+02 -0.75125148731E+01 -0.11471271768E+02  0.22730366175E+02  0.47000000000E+01 0.  1.
          5    1    4    4  502    0 -0.20763799267E+02 -0.51775276342E+02  0.11324175090E+03  0.12632338955E+03  0.47000000000E+01 0.  1.
         -5    1    4    4    0  502  0.14392579922E+02 -0.61429526118E+02 -0.20211152927E+02  0.66417721570E+02  0.47000000000E+01 0.  1.
<mgrwt>
<rscale>  0 0.34073465E+03</rscale>
<asrwt>0</asrwt>
<pdfrwt beam="1">  1       21 0.50879391E-01 0.34073465E+03</pdfrwt>
<pdfrwt beam="2">  1       21 0.13502183E-01 0.34073465E+03</pdfrwt>
<totfact> 0.16756665E+05</totfact>
</mgrwt>
</event>
<event>
 8    1  0.9569852E-006  0.2722639E+03  0.7546771E-02  0.1099991E+00
         21   -1    0    0  504  503  0.00000000000E+00  0.00000000000E+00  0.41513842445E+03  0.41513842445E+03  0.00000000000E+00 0. -1.
         21   -1    0    0  503  504 -0.00000000000E+00 -0.00000000000E+00 -0.44640314737E+02  0.44640314737E+02  0.00000000000E+00 0. -1.
         25    2    1    2    0    0 -0.63984992990E+01 -0.48581977255E+02  0.22320974904E+03  0.26047950337E+03  0.12500332118E+03 0.  0.
         25    2    1    2    0    0  0.63984992990E+01  0.48581977255E+02  0.14728836067E+03  0.19929923581E+03  0.12500069959E+03 0.  0.
          5    1    3    3  501    0  0.21260079106E+02  0.36001185001E+02  0.99363352151E+02  0.10790385552E+03  0.47000000000E+01 0. -1.
         -5    1    3    3    0  501 -0.27658578405E+02 -0.84583162255E+02  0.12384639688E+03  0.15257564785E+03  0.47000000000E+01 0. -1.
          5    1    4    4  502    0  0.63255127159E+02  0.41828234754E+02  0.94726349045E+02  0.12143304138E+03  0.47000000000E+01 0.  1.
         -5    1    4    4    0  502 -0.56856627860E+02  0.67537425002E+01  0.52562011628E+02  0.77866194434E+02  0.47000000000E+01 0.  1.
<mgrwt>
<rscale>  0 0.27226392E+03</rscale>
<asrwt>0</asrwt>
<pdfrwt beam="1">  1       21 0.63867447E-01 0.27226392E+03</pdfrwt>
<pdfrwt beam="2">  1       21 0.68677410E-02 0.27226392E+03</pdfrwt>
<totfact> 0.34732756E+05</totfact>
</mgrwt>
</event>
<event>
 8    1  0.9569852E-006  0.4592381E+03  0.7546771E-02  0.1025002E+00
         21   -1    0    0  504  503  0.00000000000E+00  0.00000000000E+00  0.14703055239E+03  0.14703055239E+03  0.00000000000E+00 0. -1.
         21   -1    0    0  503  504 -0.00000000000E+00 -0.00000000000E+00 -0.35859834086E+03  0.35859834086E+03  0.00000000000E+00 0. -1.
         25    2    1    2    0    0 -0.16745951767E+02  0.73672524097E+02  0.89288495071E+02  0.17118932548E+03  0.12500112839E+03 0.  0.
         25    2    1    2    0    0  0.16745951767E+02 -0.73672524097E+02 -0.30085628354E+03  0.33443956778E+03  0.12500901343E+03 0.  0.
          5    1    3    3  501    0 -0.86332007683E+01  0.85392338722E+02  0.11369894845E+03  0.14253394173E+03  0.47000000000E+01 0. -1.
         -5    1    3    3    0  501 -0.81127509984E+01 -0.11719814625E+02 -0.24410453376E+02  0.28655383746E+02  0.47000000000E+01 0. -1.
          5    1    4    4  502    0  0.61700419195E+02 -0.17800350404E+02 -0.83070150121E+02  0.10510249305E+03  0.47000000000E+01 0. -1.
         -5    1    4    4    0  502 -0.44954467428E+02 -0.55872173693E+02 -0.21778613342E+03  0.22933707473E+03  0.47000000000E+01 0. -1.
<mgrwt>
<rscale>  0 0.45923812E+03</rscale>
<asrwt>0</asrwt>
<pdfrwt beam="1">  1       21 0.22620085E-01 0.45923812E+03</pdfrwt>
<pdfrwt beam="2">  1       21 0.55168976E-01 0.45923812E+03</pdfrwt>
<totfact> 0.52200417E+04</totfact>
</mgrwt>
</event>
<event>
 8    1  0.9569852E-006  0.2628804E+03  0.7546771E-02  0.1105425E+00
         21   -1    0    0  504  503  0.00000000000E+00  0.00000000000E+00  0.52147019039E+03  0.52147019039E+03  0.00000000000E+00 0. -1.
         21   -1    0    0  503  504 -0.00000000000E+00 -0.00000000000E+00 -0.33130414917E+02  0.33130414917E+02  0.00000000000E+00 0. -1.
         25    2    1    2    0    0  0.10866210555E+02  0.38735625193E+02  0.23261964322E+03  0.26712467640E+03  0.12500068456E+03 0.  0.
         25    2    1    2    0    0 -0.10866210555E+02 -0.38735625193E+02  0.25572013225E+03  0.28747592890E+03  0.12502439949E+03 0.  0.
          5    1    3    3  501    0  0.30513561532E+02  0.40722650849E+02  0.22180655678E+02  0.55708915048E+02  0.47000000000E+01 0. -1.
         -5    1    3    3    0  501 -0.19647350977E+02 -0.19870256563E+01  0.21043898754E+03  0.21141576135E+03  0.47000000000E+01 0. -1.
          5    1    4    4  502    0  0.28479173407E+02 -0.15092240046E+02  0.23438861213E+03  0.23664097389E+03  0.47000000000E+01 0. -1.
         -5    1    4    4    0  502 -0.39345383962E+02 -0.23643385147E+02  0.21331520121E+02  0.50834955012E+02  0.47000000000E+01 0. -1.
<mgrwt>
<rscale>  0 0.26288038E+03</rscale>
<asrwt>0</asrwt>
<pdfrwt beam="1">  1       21 0.80226177E-01 0.26288038E+03</pdfrwt>
<pdfrwt beam="2">  1       21 0.50969873E-02 0.26288038E+03</pdfrwt>
<totfact> 0.34959149E+05</totfact>
</mgrwt>
</event>
<event>
 8    1  0.9569852E-006  0.4137613E+03  0.7546771E-02  0.1039116E+00
         21   -1    0    0  504  503  0.00000000000E+00  0.00000000000E+00  0.58425237706E+02  0.58425237706E+02  0.00000000000E+00 0.  1.
         21   -1    0    0  503  504 -0.00000000000E+00 -0.00000000000E+00 -0.73255337180E+03  0.73255337180E+03  0.00000000000E+00 0.  1.
         25    2    1    2    0    0  0.14831602383E+03 -0.66530947042E+02 -0.38946607716E+03  0.44014830615E+03  0.12499078491E+03 0.  0.
         25    2    1    2    0    0 -0.14831602383E+03  0.66530947042E+02 -0.28466205694E+03  0.35083030336E+03  0.12500162102E+03 0.  0.
          5    1    3    3  501    0  0.30633301192E+01 -0.44569918997E+02 -0.17129124087E+03  0.17708371148E+03  0.47000000000E+01 0. -1.
         -5    1    3    3    0  501  0.14525269371E+03 -0.21961028045E+02 -0.21817483629E+03  0.26306459467E+03  0.47000000000E+01 0. -1.
          5    1    4    4  502    0 -0.52209225365E+02 -0.17720589130E+02 -0.23666026883E+02  0.60182998603E+02  0.47000000000E+01 0.  1.
         -5    1    4    4    0  502 -0.96106798461E+02  0.84251536173E+02 -0.26099603006E+03  0.29064730476E+03  0.47000000000E+01 0.  1.
<mgrwt>
<rscale>  0 0.41376131E+03</rscale>
<asrwt>0</asrwt>
<pdfrwt beam="1">  1       21 0.89884986E-02 0.41376131E+03</pdfrwt>
<pdfrwt beam="2">  1       21 0.11270051E+00 0.41376131E+03</pdfrwt>
<totfact> 0.55751303E+04</totfact>
</mgrwt>
</event>
<event>
 8    1  0.9569852E-006  0.3398329E+03  0.7546771E-02  0.1066867E+00
         21   -1    0    0  504  503  0.00000000000E+00  0.00000000000E+00  0.54263843194E+02  0.54263843194E+02  0.00000000000E+00 0.  1.
         21   -1    0    0  503  504 -0.00000000000E+00 -0.00000000000E+00 -0.53205954479E+03  0.53205954479E+03  0.00000000000E+00 0.  1.
         25    2    1    2    0    0 -0.48427637689E+02  0.17722664053E+02 -0.61370076604E+02  0.14849349331E+03  0.12499880935E+03 0.  0.
         25    2    1    2    0    0  0.48427637689E+02 -0.17722664053E+02 -0.41642562499E+03  0.43782989467E+03  0.12500154641E+03 0.  0.
          5    1    3    3  501    0 -0.93139318140E+01  0.94087110057E+01  0.38408791656E+02  0.40897413672E+02  0.47000000000E+01 0. -1.
         -5    1    3    3    0  501 -0.39113705875E+02  0.83139530475E+01 -0.99778868259E+02  0.10759607964E+03  0.47000000000E+01 0. -1.
          5    1    4    4  502    0  0.82476394816E+02 -0.38964095848E+02 -0.23892775225E+03  0.25579115947E+03  0.47000000000E+01 0. -1.
         -5    1    4    4    0  502 -0.34048757127E+02  0.21241431795E+02 -0.17749787274E+03  0.18203873520E+03  0.47000000000E+01 0. -1.
<mgrwt>
<rscale>  0 0.33983287E+03</rscale>
<asrwt>0</asrwt>
<pdfrwt beam="1">  1       21 0.83482837E-02 0.33983287E+03</pdfrwt>
<pdfrwt beam="2">  1       21 0.81855313E-01 0.33983287E+03</pdfrwt>
<totfact> 0.13920550E+05</totfact>
</mgrwt>
</event>
<event>
 8    1  0.9569852E-006  0.2860833E+03  0.7546771E-02  0.1092412E+00
         21   -1    0    0  504  503  0.00000000000E+00  0.00000000000E+00  0.49514372195E+03  0.49514372195E+03  0.00000000000E+00 0.  1.
         21   -1    0    0  503  504 -0.00000000000E+00 -0.00000000000E+00 -0.41323183148E+02  0.41323183148E+02  0.00000000000E+00 0.  1.
         25    2    1    2    0    0 -0.25915523057E+02 -0.63987956185E+02  0.24247749632E+03  0.28140491319E+03  0.12500926396E+03 0.  0.
         25    2    1    2    0    0  0.25915523057E+02  0.63987956185E+02  0.21134304248E+03  0.25506199190E+03  0.12499866094E+03 0.  0.
          5    1    3    3  501    0  0.19529465916E+02  0.31006457804E+02  0.53491233477E+02  0.65009249522E+02  0.47000000000E+01 0.  1.
         -5    1    3    3    0  501 -0.45444988973E+02 -0.94994413989E+02  0.18898626284E+03  0.21639566367E+03  0.47000000000E+01 0.  1.
          5    1    4    4  502    0 -0.43940994386E+02  0.41557699852E+02  0.53284384688E+02  0.80741371403E+02  0.47000000000E+01 0. -1.
         -5    1    4    4    0  502  0.69856517443E+02  0.22430256333E+02  0.15805865779E+03  0.17432062050E+03  0.47000000000E+01 0. -1.
<mgrwt>
<rscale>  0 0.28608331E+03</rscale>
<asrwt>0</asrwt>
<pdfrwt beam="1">  1       21 0.76175953E-01 0.28608331E+03</pdfrwt>
<pdfrwt beam="2">  1       21 0.63574131E-02 0.28608331E+03</pdfrwt>
<totfact> 0.26750789E+05</totfact>
</mgrwt>
</event>
<event>
 8    1  0.9569852E-006  0.2851067E+03  0.7546771E-02  0.1092932E+00
         21   -1    0    0  504  503  0.00000000000E+00  0.00000000000E+00  0.76340825072E+03  0.76340825072E+03  0.00000000000E+00 0. -1.
         21   -1    0    0  503  504 -0.00000000000E+00 -0.00000000000E+00 -0.26619392961E+02  0.26619392961E+02  0.00000000000E+00 0. -1.
         25    2    1    2    0    0 -0.54084550643E+02  0.41203613806E+02  0.39216350929E+03  0.41718091892E+03  0.12499929872E+03 0.  0.
         25    2    1    2    0    0  0.54084550643E+02 -0.41203613806E+02  0.34462534847E+03  0.37284672476E+03  0.12500069180E+03 0.  0.
          5    1    3    3  501    0 -0.76725395220E+02  0.28952836756E+02  0.37916822916E+03  0.38796351508E+03  0.47000000000E+01 0. -1.
         -5    1    3    3    0  501  0.22640844577E+02  0.12250777050E+02  0.12995280130E+02  0.29217403840E+02  0.47000000000E+01 0. -1.
          5    1    4    4  502    0 -0.26911312990E+02  0.22887782002E+02  0.12705483310E+03  0.13195866757E+03  0.47000000000E+01 0.  1.
         -5    1    4    4    0  502  0.80995863633E+02 -0.64091395808E+02  0.21757051537E+03  0.24088805719E+03  0.47000000000E+01 0.  1.
<mgrwt>
<rscale>  0 0.28510675E+03</rscale>
<asrwt>0</asrwt>
<pdfrwt beam="1">  1       21 0.11744741E+00 0.28510675E+03</pdfrwt>
<pdfrwt beam="2">  1       21 0.40952918E-02 0.28510675E+03</pdfrwt>
<totfact> 0.20363517E+05</totfact>
</mgrwt>
</event>
<event>
 8    1  0.9569852E-006  0.3279082E+03  0.7546771E-02  0.1072066E+00
         21   -1    0    0  504  503  0.00000000000E+00  0.00000000000E+00  0.16762076127E+03  0.16762076127E+03  0.00000000000E+00 0. -1.
         21   -1    0    0  503  504 -0.00000000000E+00 -0.00000000000E+00 -0.16036763337E+03  0.16036763337E+03  0.00000000000E+00 0. -1.
         25    2    1    2    0    0 -0.10127833423E+03  0.19178470892E+02  0.28738494615E+02  0.16454919446E+03  0.12500168637E+03 0.  0.
         25    2    1    2    0    0  0.10127833423E+03 -0.19178470892E+02 -0.21485366710E+02  0.16343920018E+03  0.12500254574E+03 0.  0.
          5    1    3    3  501    0 -0.10437906270E+03  0.18305684367E+01  0.65626284439E+02  0.12339869902E+03  0.47000000000E+01 0.  1.
         -5    1    3    3    0  501  0.31007284699E+01  0.17347902455E+02 -0.36887789824E+02  0.41150495437E+02  0.47000000000E+01 0.  1.
          5    1    4    4  502    0  0.70867678883E+02  0.25016127884E+02 -0.60784449701E+02  0.96772278520E+02  0.47000000000E+01 0.  1.
         -5    1    4    4    0  502  0.30410655349E+02 -0.44194598776E+02  0.39299082991E+02  0.66666921661E+02  0.47000000000E+01 0.  1.
<mgrwt>
<rscale>  0 0.32790819E+03</rscale>
<asrwt>0</asrwt>
<pdfrwt beam="1">  1       21 0.25787810E-01 0.32790819E+03</pdfrwt>
<pdfrwt beam="2">  1       21 0.24671943E-01 0.32790819E+03</pdfrwt>
<totfact> 0.21435734E+05</totfact>
</mgrwt>
</event>
<event>
 8    1  0.9569852E-006  0.3496903E+03  0.7546771E-02  0.1062742E+00
         21   -1    0    0  504  503  0.00000000000E+00  0.00000000000E+00  0.69587511065E+03  0.69587511065E+03  0.00000000000E+00 0.  1.
         21   -1    0    0  503  504 -0.00000000000E+00 -0.00000000000E+00 -0.43931481931E+02  0.43931481931E+02  0.00000000000E+00 0.  1.
         25    2    1    2    0    0  0.10821849719E+02 -0.48685746144E+02  0.56207254933E+03  0.57796134071E+03  0.12500538523E+03 0.  0.
         25    2    1    2    0    0 -0.10821849719E+02  0.48685746144E+02  0.89871079388E+02  0.16184525187E+03  0.12501863995E+03 0.  0.
          5    1    3    3  501    0 -0.38361462442E+02  0.10052463723E+02  0.75873405601E+02  0.85740990810E+02  0.47000000000E+01 0. -1.
         -5    1    3    3    0  501  0.49183312161E+02 -0.58738209867E+02  0.48619914372E+03  0.49222034990E+03  0.47000000000E+01 0. -1.
          5    1    4    4  502    0 -0.39348965024E+02 -0.30269597562E+02  0.25881220165E+02  0.56182890120E+02  0.47000000000E+01 0. -1.
         -5    1    4    4    0  502  0.28527115304E+02  0.78955343706E+02  0.63989859224E+02  0.10566236175E+03  0.47000000000E+01 0. -1.
<mgrwt>
<rscale>  0 0.34969029E+03</rscale>
<asrwt>0</asrwt>
<pdfrwt beam="1">  1       21 0.10705770E+00 0.34969029E+03</pdfrwt>
<pdfrwt beam="2">  1       21 0.67586900E-02 0.34969029E+03</pdfrwt>
<totfact> 0.10635695E+05</totfact>
</mgrwt>
</event>
<event>
 8    1  0.9569852E-006  0.2786693E+03  0.7546771E-02  0.1096418E+00
         21   -1    0    0  504  503  0.00000000000E+00  0.00000000000E+00  0.16992651973E+02  0.16992651973E+02  0.00000000000E+00 0. -1.
         21   -1    0    0  503  504 -0.00000000000E+00 -0.00000000000E+00 -0.11425022786E+04  0.11425022786E+04  0.00000000000E+00 0. -1.
         25    2    1    2    0    0 -0.16936466321E+02  0.36843384033E+02 -0.75539958527E+03  0.76674517937E+03  0.12500143129E+03 0.  0.
         25    2    1    2    0    0  0.16936466321E+02 -0.36843384033E+02 -0.37011004138E+03  0.39274975123E+03  0.12500658190E+03 0.  0.
          5    1    3    3  501    0  0.44711132483E+02  0.47504292256E+02 -0.30020006882E+03  0.30724243599E+03  0.47000000000E+01 0. -1.
         -5    1    3    3    0  501 -0.61647598804E+02 -0.10660908223E+02 -0.45519951644E+03  0.45950274338E+03  0.47000000000E+01 0. -1.
          5    1    4    4  502    0 -0.43799370778E+02  0.82871276657E+01 -0.22069757496E+03  0.22520339909E+03  0.47000000000E+01 0. -1.
         -5    1    4    4    0  502  0.60735837098E+02 -0.45130511699E+02 -0.14941246642E+03  0.16754635214E+03  0.47000000000E+01 0. -1.
<mgrwt>
<rscale>  0 0.27866929E+03</rscale>
<asrwt>0</asrwt>
<pdfrwt beam="1">  1       21 0.26142534E-02 0.27866929E+03</pdfrwt>
<pdfrwt beam="2">  1       21 0.17576963E+00 0.27866929E+03</pdfrwt>
<totfact> 0.14891046E+05</totfact>
</mgrwt>
</event>
<event>
 8    1  0.9569852E-006  0.2591285E+03  0.7546771E-02  0.1107668E+00
         21   -1    0    0  504  503  0.00000000000E+00  0.00000000000E+00  0.29031232773E+03  0.29031232773E+03  0.00000000000E+00 0.  1.
         21   -1    0    0  503  504 -0.00000000000E+00 -0.00000000000E+00 -0.57823556318E+02  0.57823556318E+02  0.00000000000E+00 0.  1.
         25    2    1    2    0    0 -0.13311382608E+02  0.11219496253E+02  0.15569452200E+03  0.20040353068E+03  0.12497088031E+03 0.  0.
         25    2    1    2    0    0  0.13311382608E+02 -0.11219496253E+02  0.76794249415E+02  0.14773235337E+03  0.12499768592E+03 0.  0.
          5    1    3    3  501    0  0.34452526118E+02  0.13419286538E+02  0.14690736888E+03  0.15156160080E+03  0.47000000000E+01 0.  1.
         -5    1    3    3    0  501 -0.47763908726E+02 -0.21997902849E+01  0.87871531204E+01  0.48841929877E+02  0.47000000000E+01 0.  1.
          5    1    4    4  502    0  0.38007594994E+02 -0.30988113283E+02 -0.14209857553E+02  0.51272317031E+02  0.47000000000E+01 0. -1.
         -5    1    4    4    0  502 -0.24696212386E+02  0.19768617030E+02  0.91004106968E+02  0.96460036339E+02  0.47000000000E+01 0. -1.
<mgrwt>
<rscale>  0 0.25912847E+03</rscale>
<asrwt>0</asrwt>
<pdfrwt beam="1">  1       21 0.44663434E-01 0.25912847E+03</pdfrwt>
<pdfrwt beam="2">  1       21 0.88959319E-02 0.25912847E+03</pdfrwt>
<totfact> 0.47328229E+05</totfact>
</mgrwt>
</event>
<event>
 8    1  0.9569852E-006  0.3028582E+03  0.7546771E-02  0.1083820E+00
         21   -1    0    0  504  503  0.00000000000E+00  0.00000000000E+00  0.92324442127E+01  0.92324442127E+01  0.00000000000E+00 0. -1.
         21   -1    0    0  503  504 -0.00000000000E+00 -0.00000000000E+00 -0.24837164543E+04  0.24837164543E+04  0.00000000000E+00 0. -1.
         25    2    1    2    0    0  0.61489607564E+02 -0.56247333016E+02 -0.10808968229E+04  0.10912869694E+04  0.12499829439E+03 0.  0.
         25    2    1    2    0    0 -0.61489607564E+02  0.56247333016E+02 -0.13935871873E+04  0.14016619291E+04  0.12500472317E+03 0.  0.
          5    1    3    3  501    0 -0.21862037825E+02 -0.53305834376E+02 -0.63553551751E+03  0.63815902775E+03  0.47000000000E+01 0. -1.
         -5    1    3    3    0  501  0.83351645390E+02 -0.29414986399E+01 -0.44536130537E+03  0.45312794167E+03  0.47000000000E+01 0. -1.
          5    1    4    4  502    0 -0.97127597888E+02  0.42506724981E+02 -0.11684309115E+04  0.11732405878E+04  0.47000000000E+01 0.  1.
         -5    1    4    4    0  502  0.35637990324E+02  0.13740608036E+02 -0.22515627577E+03  0.22842134135E+03  0.47000000000E+01 0.  1.
<mgrwt>
<rscale>  0 0.30285821E+03</rscale>
<asrwt>0</asrwt>
<pdfrwt beam="1">  1       21 0.14203731E-02 0.30285821E+03</pdfrwt>
<pdfrwt beam="2">  1       21 0.38211102E+00 0.30285821E+03</pdfrwt>
<totfact> 0.21721040E+04</totfact>
</mgrwt>
</event>
<event>
 8    1  0.9569852E-006  0.3023538E+03  0.7546771E-02  0.1084070E+00
         21   -1    0    0  504  503  0.00000000000E+00  0.00000000000E+00  0.16107507779E+02  0.16107507779E+02  0.00000000000E+00 0.  1.
         21   -1    0    0  503  504 -0.00000000000E+00 -0.00000000000E+00 -0.14188699847E+04  0.14188699847E+04  0.00000000000E+00 0.  1.
         25    2    1    2    0    0 -0.41809510694E+02 -0.71208740012E+02 -0.60528043249E+03  0.62354599865E+03  0.12500596239E+03 0.  0.
         25    2    1    2    0    0  0.41809510694E+02  0.71208740012E+02 -0.79748204442E+03  0.81143149382E+03  0.12499895261E+03 0.  0.
          5    1    3    3  501    0  0.26381647159E+02 -0.58381686880E+02 -0.43330409517E+03  0.43803988581E+03  0.47000000000E+01 0.  1.
         -5    1    3    3    0  501 -0.68191157853E+02 -0.12827053132E+02 -0.17197633732E+03  0.18550611284E+03  0.47000000000E+01 0.  1.
          5    1    4    4  502    0 -0.29030560024E+02  0.12283089548E+01 -0.41928361501E+03  0.42031550289E+03  0.47000000000E+01 0. -1.
         -5    1    4    4    0  502  0.70840070717E+02  0.69980431058E+02 -0.37819842942E+03  0.39111599093E+03  0.47000000000E+01 0. -1.
<mgrwt>
<rscale>  0 0.30235383E+03</rscale>
<asrwt>0</asrwt>
<pdfrwt beam="1">  1       21 0.24780777E-02 0.30235383E+03</pdfrwt>
<pdfrwt beam="2">  1       21 0.21828773E+00 0.30235383E+03</pdfrwt>
<totfact> 0.84381341E+04</totfact>
</mgrwt>
</event>
<event>
 8    1  0.9569852E-006  0.3089543E+03  0.7546771E-02  0.1080848E+00
         21   -1    0    0  504  503  0.00000000000E+00  0.00000000000E+00  0.44728016871E+03  0.44728016871E+03  0.00000000000E+00 0.  1.
         21   -1    0    0  503  504 -0.00000000000E+00 -0.00000000000E+00 -0.53351785165E+02  0.53351785165E+02  0.00000000000E+00 0.  1.
         25    2    1    2    0    0  0.18602242754E+02 -0.47079175022E+02  0.74884200334E+02  0.15425676617E+03  0.12500005718E+03 0.  0.
         25    2    1    2    0    0 -0.18602242754E+02  0.47079175022E+02  0.31904418321E+03  0.34637518770E+03  0.12499635058E+03 0.  0.
          5    1    3    3  501    0 -0.19919320503E+02  0.35127905393E+02  0.39566993415E+02  0.56730820852E+02  0.47000000000E+01 0.  1.
         -5    1    3    3    0  501  0.38521563257E+02 -0.82207080416E+02  0.35317206919E+02  0.97525945321E+02  0.47000000000E+01 0.  1.
          5    1    4    4  502    0  0.14454584403E+02 -0.18998689515E+02  0.65024064552E+01  0.25184449632E+02  0.47000000000E+01 0.  1.
         -5    1    4    4    0  502 -0.33056827157E+02  0.66077864538E+02  0.31254177676E+03  0.32119073807E+03  0.47000000000E+01 0.  1.
<mgrwt>
<rscale>  0 0.30895434E+03</rscale>
<asrwt>0</asrwt>
<pdfrwt beam="1">  1       21 0.68812331E-01 0.30895434E+03</pdfrwt>
<pdfrwt beam="2">  1       21 0.82079673E-02 0.30895434E+03</pdfrwt>
<totfact> 0.21396885E+05</totfact>
</mgrwt>
</event>
<event>
 8    1  0.9569852E-006  0.3890082E+03  0.7546771E-02  0.1047654E+00
         21   -1    0    0  504  503  0.00000000000E+00  0.00000000000E+00  0.45533955421E+03  0.45533955421E+03  0.00000000000E+00 0.  1.
         21   -1    0    0  503  504 -0.00000000000E+00 -0.00000000000E+00 -0.83084907209E+02  0.83084907209E+02  0.00000000000E+00 0.  1.
         25    2    1    2    0    0 -0.86331405321E+01 -0.59160711970E+02 -0.27971259970E+01  0.13859494549E+03  0.12500485608E+03 0.  0.
         25    2    1    2    0    0  0.86331405321E+01  0.59160711970E+02  0.37505177300E+03  0.39982951593E+03  0.12500115370E+03 0.  0.
          5    1    3    3  501    0  0.36990279675E+02 -0.66073173353E+02 -0.33537087517E+02  0.82950414505E+02  0.47000000000E+01 0.  1.
         -5    1    3    3    0  501 -0.45623420208E+02  0.69124613830E+01  0.30739961520E+02  0.55644530981E+02  0.47000000000E+01 0.  1.
          5    1    4    4  502    0 -0.34781588959E+02  0.20887111817E+02  0.31966470817E+02  0.51864974955E+02  0.47000000000E+01 0.  1.
         -5    1    4    4    0  502  0.43414729491E+02  0.38273600153E+02  0.34308530218E+03  0.34796454098E+03  0.47000000000E+01 0.  1.
<mgrwt>
<rscale>  0 0.38900820E+03</rscale>
<asrwt>0</asrwt>
<pdfrwt beam="1">  1       21 0.70052238E-01 0.38900820E+03</pdfrwt>
<pdfrwt beam="2">  1       21 0.12782294E-01 0.38900820E+03</pdfrwt>
<totfact> 0.91279355E+04</totfact>
</mgrwt>
</event>
<event>
 8    1  0.9569852E-006  0.3067147E+03  0.7546771E-02  0.1081931E+00
         21   -1    0    0  504  503  0.00000000000E+00  0.00000000000E+00  0.47110549883E+02  0.47110549883E+02  0.00000000000E+00 0. -1.
         21   -1    0    0  503  504 -0.00000000000E+00 -0.00000000000E+00 -0.49921880525E+03  0.49921880525E+03  0.00000000000E+00 0. -1.
         25    2    1    2    0    0  0.82385782888E+01  0.80861469423E+01 -0.38294785871E+03  0.40300057248E+03  0.12500855563E+03 0.  0.
         25    2    1    2    0    0 -0.82385782888E+01 -0.80861469423E+01 -0.69160396651E+02  0.14332878265E+03  0.12500687792E+03 0.  0.
          5    1    3    3  501    0  0.36328918273E+02  0.10198730333E+02 -0.36946891662E+03  0.37142048241E+03  0.47000000000E+01 0.  1.
         -5    1    3    3    0  501 -0.28090339985E+02 -0.21125833903E+01 -0.13478942092E+02  0.31580090072E+02  0.47000000000E+01 0.  1.
          5    1    4    4  502    0 -0.13114487344E+02 -0.49268299525E+02  0.11531585441E+02  0.52482593106E+02  0.47000000000E+01 0.  1.
         -5    1    4    4    0  502  0.48759090551E+01  0.41182152583E+02 -0.80691982092E+02  0.90846189542E+02  0.47000000000E+01 0.  1.
<mgrwt>
<rscale>  0 0.30671467E+03</rscale>
<asrwt>0</asrwt>
<pdfrwt beam="1">  1       21 0.72477772E-02 0.30671467E+03</pdfrwt>
<pdfrwt beam="2">  1       21 0.76802890E-01 0.30671467E+03</pdfrwt>
<totfact> 0.20805159E+05</totfact>
</mgrwt>
</event>
<event>
 8    1  0.9569852E-006  0.3304044E+03  0.7546771E-02  0.1070958E+00
         21   -1    0    0  504  503  0.00000000000E+00  0.00000000000E+00  0.11900051572E+03  0.11900051572E+03  0.00000000000E+00 0.  1.
         21   -1    0    0  503  504 -0.00000000000E+00 -0.00000000000E+00 -0.22934156548E+03  0.22934156548E+03  0.00000000000E+00 0.  1.
         25    2    1    2    0    0  0.11501879514E+02  0.84233962032E+02  0.15081510221E+02  0.15191682136E+03  0.12499446015E+03 0.  0.
         25    2    1    2    0    0 -0.11501879514E+02 -0.84233962032E+02 -0.12542255998E+03  0.19642525985E+03  0.12499764222E+03 0.  0.
          5    1    3    3  501    0  0.42933562042E+02  0.54697728587E+02  0.58162027111E+02  0.90774686229E+02  0.47000000000E+01 0.  1.
         -5    1    3    3    0  501 -0.31431682528E+02  0.29536233445E+02 -0.43080516891E+02  0.61142135130E+02  0.47000000000E+01 0.  1.
          5    1    4    4  502    0  0.12427945744E+02 -0.49312112817E+01 -0.11137930289E+03  0.11227737881E+03  0.47000000000E+01 0.  1.
         -5    1    4    4    0  502 -0.23929825257E+02 -0.79302750751E+02 -0.14043257093E+02  0.84147881038E+02  0.47000000000E+01 0.  1.
<mgrwt>
<rscale>  0 0.33040439E+03</rscale>
<asrwt>0</asrwt>
<pdfrwt beam="1">  1       21 0.18307772E-01 0.33040439E+03</pdfrwt>
<pdfrwt beam="2">  1       21 0.35283317E-01 0.33040439E+03</pdfrwt>
<totfact> 0.20345470E+05</totfact>
</mgrwt>
</event>
<event>
 8    1  0.9569852E-006  0.3325409E+03  0.7546771E-02  0.1070018E+00
         21   -1    0    0  504  503  0.00000000000E+00  0.00000000000E+00  0.26043391288E+02  0.26043391288E+02  0.00000000000E+00 0.  1.
         21   -1    0    0  503  504 -0.00000000000E+00 -0.00000000000E+00 -0.10615305654E+04  0.10615305654E+04  0.00000000000E+00 0.  1.
         25    2    1    2    0    0  0.27063431875E+02  0.10467621233E+03 -0.57723661205E+03  0.60043065830E+03  0.12500132142E+03 0.  0.
         25    2    1    2    0    0 -0.27063431875E+02 -0.10467621233E+03 -0.45825056204E+03  0.48714329837E+03  0.12500190704E+03 0.  0.
          5    1    3    3  501    0 -0.42088089330E+02  0.42922083193E+02 -0.34672047829E+03  0.35192455520E+03  0.47000000000E+01 0. -1.
         -5    1    3    3    0  501  0.69151521205E+02  0.61754129139E+02 -0.23051613376E+03  0.24850610309E+03  0.47000000000E+01 0. -1.
          5    1    4    4  502    0 -0.67290713803E+01 -0.10929871957E+03 -0.20046315614E+03  0.22847113050E+03  0.47000000000E+01 0.  1.
         -5    1    4    4    0  502 -0.20334360495E+02  0.46225072409E+01 -0.25778740590E+03  0.25867216787E+03  0.47000000000E+01 0.  1.
<mgrwt>
<rscale>  0 0.33254086E+03</rscale>
<asrwt>0</asrwt>
<pdfrwt beam="1">  1       21 0.40066754E-02 0.33254086E+03</pdfrwt>
<pdfrwt beam="2">  1       21 0.16331240E+00 0.33254086E+03</pdfrwt>
<totfact> 0.87820079E+04</totfact>
</mgrwt>
</event>
<event>
 8    1  0.9569852E-006  0.3266735E+03  0.7546771E-02  0.1072618E+00
         21   -1    0    0  504  503  0.00000000000E+00  0.00000000000E+00  0.13198141132E+04  0.13198141132E+04  0.00000000000E+00 0.  1.
         21   -1    0    0  503  504 -0.00000000000E+00 -0.00000000000E+00 -0.20214132531E+02  0.20214132531E+02  0.00000000000E+00 0.  1.
         25    2    1    2    0    0 -0.61415714267E+02  0.16604069152E+02  0.30645343629E+03  0.33702638574E+03  0.12500196398E+03 0.  0.
         25    2    1    2    0    0  0.61415714267E+02 -0.16604069152E+02  0.99314654437E+03  0.10030018600E+04  0.12500034986E+03 0.  0.
          5    1    3    3  501    0  0.17002763240E+02  0.50677271657E+02  0.13781360547E+03  0.14789171603E+03  0.47000000000E+01 0.  1.
         -5    1    3    3    0  501 -0.78418477507E+02 -0.34073202504E+02  0.16863983082E+03  0.18913466970E+03  0.47000000000E+01 0.  1.
          5    1    4    4  502    0  0.10536356626E+01 -0.15664953400E+02  0.12820683147E+02  0.20807710818E+02  0.47000000000E+01 0.  1.
         -5    1    4    4    0  502  0.60362078604E+02 -0.93911575237E+00  0.98032586123E+03  0.98219414917E+03  0.47000000000E+01 0.  1.
<mgrwt>
<rscale>  0 0.32667352E+03</rscale>
<asrwt>0</asrwt>
<pdfrwt beam="1">  1       21 0.20304826E+00 0.32667352E+03</pdfrwt>
<pdfrwt beam="2">  1       21 0.31098676E-02 0.32667352E+03</pdfrwt>
<totfact> 0.71671214E+04</totfact>
</mgrwt>
</event>
<event>
 8    1  0.9569852E-006  0.4123639E+03  0.7546771E-02  0.1039581E+00
         21   -1    0    0  504  503  0.00000000000E+00  0.00000000000E+00  0.72207285640E+03  0.72207285640E+03  0.00000000000E+00 0.  1.
         21   -1    0    0  503  504 -0.00000000000E+00 -0.00000000000E+00 -0.58873553140E+02  0.58873553140E+02  0.00000000000E+00 0.  1.
         25    2    1    2    0    0 -0.13120403043E+03  0.51923729879E+02  0.48976618084E+03  0.52479296553E+03  0.12500469367E+03 0.  0.
         25    2    1    2    0    0  0.13120403043E+03 -0.51923729879E+02  0.17343312242E+03  0.25615344402E+03  0.12499987042E+03 0.  0.
          5    1    3    3  501    0 -0.83062719093E+01  0.49019379952E+02  0.61581630236E+02  0.79286070317E+02  0.47000000000E+01 0.  1.
         -5    1    3    3    0  501 -0.12289775852E+03  0.29043499277E+01  0.42818455061E+03  0.44550689521E+03  0.47000000000E+01 0.  1.
          5    1    4    4  502    0  0.28122703967E+02  0.78439024758E+01  0.12329886039E+03  0.12679555299E+03  0.47000000000E+01 0.  1.
         -5    1    4    4    0  502  0.10308132646E+03 -0.59767632355E+02  0.50134262030E+02  0.12935789103E+03  0.47000000000E+01 0.  1.
<mgrwt>
<rscale>  0 0.41236389E+03</rscale>
<asrwt>0</asrwt>
<pdfrwt beam="1">  1       21 0.11108813E+00 0.41236389E+03</pdfrwt>
<pdfrwt beam="2">  1       21 0.90574702E-02 0.41236389E+03</pdfrwt>
<totfact> 0.57019137E+04</totfact>
</mgrwt>
</event>
<event>
 8    1  0.9569852E-006  0.3104505E+03  0.7546771E-02  0.1080130E+00
         21   -1    0    0  504  503  0.00000000000E+00  0.00000000000E+00  0.10816363247E+03  0.10816363247E+03  0.00000000000E+00 0.  1.
         21   -1    0    0  503  504 -0.00000000000E+00 -0.00000000000E+00 -0.22276323819E+03  0.22276323819E+03  0.00000000000E+00 0.  1.
         25    2    1    2    0    0  0.73814510986E+02  0.21647511154E+02 -0.34418095202E+01  0.14681249418E+03  0.12499946249E+03 0.  0.
         25    2    1    2    0    0 -0.73814510986E+02 -0.21647511154E+02 -0.11115779619E+03  0.18411437648E+03  0.12499940480E+03 0.  0.
          5    1    3    3  501    0  0.38635624573E+02  0.35241486751E+02 -0.59329804367E+02  0.79226192391E+02  0.47000000000E+01 0. -1.
         -5    1    3    3    0  501  0.35178886412E+02 -0.13593975597E+02  0.55887994847E+02  0.67586301791E+02  0.47000000000E+01 0. -1.
          5    1    4    4  502    0  0.10925558816E+02 -0.32182083074E+01  0.21954532746E+02  0.25175706709E+02  0.47000000000E+01 0.  1.
         -5    1    4    4    0  502 -0.84740069802E+02 -0.18429302846E+02 -0.13311232894E+03  0.15893866977E+03  0.47000000000E+01 0.  1.
<mgrwt>
<rscale>  0 0.31045052E+03</rscale>
<asrwt>0</asrwt>
<pdfrwt beam="1">  1       21 0.16640559E-01 0.31045052E+03</pdfrwt>
<pdfrwt beam="2">  1       21 0.34271267E-01 0.31045052E+03</pdfrwt>
<totfact> 0.25877513E+05</totfact>
</mgrwt>
</event>
<event>
 8    1  0.9569852E-006  0.2703094E+03  0.7546771E-02  0.1101103E+00
         21   -1    0    0  504  503  0.00000000000E+00  0.00000000000E+00  0.35643305874E+02  0.35643305874E+02  0.00000000000E+00 0.  1.
         21   -1    0    0  503  504 -0.00000000000E+00 -0.00000000000E+00 -0.51248882598E+03  0.51248882598E+03  0.00000000000E+00 0.  1.
         25    2    1    2    0    0 -0.45837787208E+01  0.45030665374E+02 -0.18899554139E+03  0.23106537588E+03  0.12499248544E+03 0.  0.
         25    2    1    2    0    0  0.45837787208E+01 -0.45030665374E+02 -0.28784997872E+03  0.31706675597E+03  0.12499978257E+03 0.  0.
          5    1    3    3  501    0  0.11955402394E+02 -0.13473587739E+01 -0.18039949745E+03  0.18086131621E+03  0.47000000000E+01 0. -1.
         -5    1    3    3    0  501 -0.16539181115E+02  0.46378024148E+02 -0.85960439336E+01  0.50204059668E+02  0.47000000000E+01 0. -1.
          5    1    4    4  502    0  0.14321258493E+02 -0.81996747831E+02 -0.12885986296E+03  0.15347807460E+03  0.47000000000E+01 0. -1.
         -5    1    4    4    0  502 -0.97374797726E+01  0.36966082457E+02 -0.15899011576E+03  0.16358868137E+03  0.47000000000E+01 0. -1.
<mgrwt>
<rscale>  0 0.27030942E+03</rscale>
<asrwt>0</asrwt>
<pdfrwt beam="1">  1       21 0.54835856E-02 0.27030942E+03</pdfrwt>
<pdfrwt beam="2">  1       21 0.78844433E-01 0.27030942E+03</pdfrwt>
<totfact> 0.32037488E+05</totfact>
</mgrwt>
</event>
<event>
 8    1  0.9569852E-006  0.3444497E+03  0.7546771E-02  0.1064916E+00
         21   -1    0    0  504  503  0.00000000000E+00  0.00000000000E+00  0.52216155931E+02  0.52216155931E+02  0.00000000000E+00 0.  1.
         21   -1    0    0  503  504 -0.00000000000E+00 -0.00000000000E+00 -0.56805019048E+03  0.56805019048E+03  0.00000000000E+00 0.  1.
         25    2    1    2    0    0  0.50533851608E+02  0.35072006802E+02 -0.75607609343E+02  0.15852211092E+03  0.12501613193E+03 0.  0.
         25    2    1    2    0    0 -0.50533851608E+02 -0.35072006802E+02 -0.44022642520E+03  0.46174423548E+03  0.12499887094E+03 0.  0.
          5    1    3    3  501    0 -0.21611262550E+02 -0.23828806762E+02  0.77735905058E+01  0.33427195665E+02  0.47000000000E+01 0.  1.
         -5    1    3    3    0  501  0.72145114158E+02  0.58900813564E+02 -0.83381199848E+02  0.12509491526E+03  0.47000000000E+01 0.  1.
          5    1    4    4  502    0  0.36749748953E+02 -0.11250262500E+02 -0.64326529979E+02  0.75080656054E+02  0.47000000000E+01 0.  1.
         -5    1    4    4    0  502 -0.87283600561E+02 -0.23821744302E+02 -0.37589989522E+03  0.38666357943E+03  0.47000000000E+01 0.  1.
<mgrwt>
<rscale>  0 0.34444969E+03</rscale>
<asrwt>0</asrwt>
<pdfrwt beam="1">  1       21 0.80332547E-02 0.34444969E+03</pdfrwt>
<pdfrwt beam="2">  1       21 0.87392338E-01 0.34444969E+03</pdfrwt>
<totfact> 0.12784662E+05</totfact>
</mgrwt>
</event>
<event>
 8    1  0.9569852E-006  0.4296020E+03  0.7546771E-02  0.1033986E+00
         21   -1    0    0  504  503  0.00000000000E+00  0.00000000000E+00  0.20330777127E+03  0.20330777127E+03  0.00000000000E+00 0.  1.
         21   -1    0    0  503  504 -0.00000000000E+00 -0.00000000000E+00 -0.22694390192E+03  0.22694390192E+03  0.00000000000E+00 0.  1.
         25    2    1    2    0    0 -0.78621427258E+02 -0.15598653152E+03 -0.11046839389E+02  0.21508139217E+03  0.12499938303E+03 0.  0.
         25    2    1    2    0    0  0.78621427258E+02  0.15598653152E+03 -0.12589291265E+02  0.21517028102E+03  0.12500653078E+03 0.  0.
          5    1    3    3  501    0 -0.12028247961E+02  0.98167366837E+01 -0.31245307747E+02  0.35205203086E+02  0.47000000000E+01 0.  1.
         -5    1    3    3    0  501 -0.66593179297E+02 -0.16580326821E+03  0.20198468357E+02  0.17987618909E+03  0.47000000000E+01 0.  1.
          5    1    4    4  502    0 -0.21399165956E+02  0.10895614633E+02  0.24931848482E+02  0.34933161760E+02  0.47000000000E+01 0. -1.
         -5    1    4    4    0  502  0.10002059321E+03  0.14509091689E+03 -0.37521139747E+02  0.18023711926E+03  0.47000000000E+01 0. -1.
<mgrwt>
<rscale>  0 0.42960195E+03</rscale>
<asrwt>0</asrwt>
<pdfrwt beam="1">  1       21 0.31278119E-01 0.42960195E+03</pdfrwt>
<pdfrwt beam="2">  1       21 0.34914447E-01 0.42960195E+03</pdfrwt>
<totfact> 0.72346306E+04</totfact>
</mgrwt>
</event>
<event>
 8    1  0.9569852E-006  0.2812447E+03  0.7546771E-02  0.1095011E+00
         21   -1    0    0  504  503  0.00000000000E+00  0.00000000000E+00  0.94465184889E+03  0.94465184889E+03  0.00000000000E+00 0. -1.
         21   -1    0    0  503  504 -0.00000000000E+00 -0.00000000000E+00 -0.20933266393E+02  0.20933266393E+02  0.00000000000E+00 0. -1.
         25    2    1    2    0    0  0.41109700587E+01 -0.41259538906E+02  0.29263261947E+03  0.32090089413E+03  0.12499713695E+03 0.  0.
         25    2    1    2    0    0 -0.41109700587E+01  0.41259538906E+02  0.63108596303E+03  0.64468422116E+03  0.12501600960E+03 0.  0.
          5    1    3    3  501    0 -0.38379509727E+02 -0.35743334445E+02  0.44175099350E+02  0.68732104047E+02  0.47000000000E+01 0. -1.
         -5    1    3    3    0  501  0.42490479786E+02 -0.55162044612E+01  0.24845752012E+03  0.25216879008E+03  0.47000000000E+01 0. -1.
          5    1    4    4  502    0  0.53796155424E+02  0.42859641610E+02  0.42516906111E+03  0.43072241147E+03  0.47000000000E+01 0. -1.
         -5    1    4    4    0  502 -0.57907125483E+02 -0.16001027040E+01  0.20591690192E+03  0.21396180969E+03  0.47000000000E+01 0. -1.
<mgrwt>
<rscale>  0 0.28124472E+03</rscale>
<asrwt>0</asrwt>
<pdfrwt beam="1">  1       21 0.14533102E+00 0.28124472E+03</pdfrwt>
<pdfrwt beam="2">  1       21 0.32205033E-02 0.28124472E+03</pdfrwt>
<totfact> 0.17684474E+05</totfact>
</mgrwt>
</event>
<event>
 8    1  0.9569852E-006  0.6597032E+03  0.7546771E-02  0.9788740E-01
         21   -1    0    0  504  503  0.00000000000E+00  0.00000000000E+00  0.85499581192E+02  0.85499581192E+02  0.00000000000E+00 0. -1.
         21   -1    0    0  503  504 -0.00000000000E+00 -0.00000000000E+00 -0.12725449881E+04  0.12725449881E+04  0.00000000000E+00 0. -1.
         25    2    1    2    0    0  0.15801732086E+03 -0.23014734851E+03 -0.33939186602E+03  0.45688990095E+03  0.12499706856E+03 0.  0.
         25    2    1    2    0    0 -0.15801732086E+03  0.23014734851E+03 -0.84765354084E+03  0.90115466830E+03  0.12500374068E+03 0.  0.
          5    1    3    3  501    0  0.12620745715E+03 -0.93067148748E+02 -0.12592425198E+03  0.20116864481E+03  0.47000000000E+01 0. -1.
         -5    1    3    3    0  501  0.31809863708E+02 -0.13708019976E+03 -0.21346761405E+03  0.25572125614E+03  0.47000000000E+01 0. -1.
          5    1    4    4  502    0 -0.13455334010E+03  0.13844946496E+03 -0.69625637365E+03  0.72254265170E+03  0.47000000000E+01 0.  1.
         -5    1    4    4    0  502 -0.23463980765E+02  0.91697883550E+02 -0.15139716720E+03  0.17861201660E+03  0.47000000000E+01 0.  1.
<mgrwt>
<rscale>  0 0.65970316E+03</rscale>
<asrwt>0</asrwt>
<pdfrwt beam="1">  1       21 0.13153781E-01 0.65970316E+03</pdfrwt>
<pdfrwt beam="2">  1       21 0.19577616E+00 0.65970316E+03</pdfrwt>
<totfact> 0.57715081E+03</totfact>
</mgrwt>
</event>
<event>
 8    1  0.9569852E-006  0.3006263E+03  0.7546771E-02  0.1084928E+00
         21   -1    0    0  504  503  0.00000000000E+00  0.00000000000E+00  0.53669948002E+03  0.53669948002E+03  0.00000000000E+00 0.  1.
         21   -1    0    0  503  504 -0.00000000000E+00 -0.00000000000E+00 -0.42098113771E+02  0.42098113771E+02  0.00000000000E+00 0.  1.
         25    2    1    2    0    0  0.50092560408E+02  0.60344985706E+02  0.19221317868E+03  0.24232501414E+03  0.12499889803E+03 0.  0.
         25    2    1    2    0    0 -0.50092560408E+02 -0.60344985706E+02  0.30238818756E+03  0.33647257965E+03  0.12499759587E+03 0.  0.
          5    1    3    3  501    0 -0.10426755163E+01  0.40569514411E+02  0.18178422314E+03  0.18631845442E+03  0.47000000000E+01 0. -1.
         -5    1    3    3    0  501  0.51135235925E+02  0.19775471295E+02  0.10428955541E+02  0.56006559720E+02  0.47000000000E+01 0. -1.
          5    1    4    4  502    0 -0.38935800442E+02 -0.87450190186E+02  0.28791192735E+03  0.30344505306E+03  0.47000000000E+01 0.  1.
         -5    1    4    4    0  502 -0.11156759966E+02  0.27105204480E+02  0.14476260215E+02  0.33027526590E+02  0.47000000000E+01 0.  1.
<mgrwt>
<rscale>  0 0.30062625E+03</rscale>
<asrwt>0</asrwt>
<pdfrwt beam="1">  1       21 0.82569146E-01 0.30062625E+03</pdfrwt>
<pdfrwt beam="2">  1       21 0.64766333E-02 0.30062625E+03</pdfrwt>
<totfact> 0.21480062E+05</totfact>
</mgrwt>
</event>
<event>
 8    1  0.9569852E-006  0.3129924E+03  0.7546771E-02  0.1078920E+00
         21   -1    0    0  504  503  0.00000000000E+00  0.00000000000E+00  0.18229972250E+03  0.18229972250E+03  0.00000000000E+00 0.  1.
         21   -1    0    0  503  504 -0.00000000000E+00 -0.00000000000E+00 -0.13434498364E+03  0.13434498364E+03  0.00000000000E+00 0.  1.
         25    2    1    2    0    0 -0.41415661806E+02 -0.47671970488E+02  0.94607653212E+02  0.16901243121E+03  0.12500687999E+03 0.  0.
         25    2    1    2    0    0  0.41415661806E+02  0.47671970488E+02 -0.46652914356E+02  0.14763227492E+03  0.12502367923E+03 0.  0.
          5    1    3    3  501    0 -0.62757688491E+02  0.11598868664E+02  0.12147432429E+02  0.65136098545E+02  0.47000000000E+01 0. -1.
         -5    1    3    3    0  501  0.21342026686E+02 -0.59270839152E+02  0.82460220783E+02  0.10387633267E+03  0.47000000000E+01 0. -1.
          5    1    4    4  502    0 -0.34486132949E+02  0.67325949232E+01 -0.49893083170E+02  0.61204827819E+02  0.47000000000E+01 0. -1.
         -5    1    4    4    0  502  0.75901794755E+02  0.40939375565E+02  0.32401688145E+01  0.86427447102E+02  0.47000000000E+01 0. -1.
<mgrwt>
<rscale>  0 0.31299235E+03</rscale>
<asrwt>0</asrwt>
<pdfrwt beam="1">  1       21 0.28046111E-01 0.31299235E+03</pdfrwt>
<pdfrwt beam="2">  1       21 0.20668459E-01 0.31299235E+03</pdfrwt>
<totfact> 0.25612645E+05</totfact>
</mgrwt>
</event>
<event>
 8    1  0.9569852E-006  0.2983916E+03  0.7546771E-02  0.1086047E+00
         21   -1    0    0  504  503  0.00000000000E+00  0.00000000000E+00  0.22967446263E+02  0.22967446263E+02  0.00000000000E+00 0. -1.
         21   -1    0    0  503  504 -0.00000000000E+00 -0.00000000000E+00 -0.96917147548E+03  0.96917147548E+03  0.00000000000E+00 0. -1.
         25    2    1    2    0    0 -0.54824736920E+02  0.47500055187E+02 -0.59627792710E+03  0.61354140590E+03  0.12499473342E+03 0.  0.
         25    2    1    2    0    0  0.54824736920E+02 -0.47500055187E+02 -0.34992610212E+03  0.37859751585E+03  0.12500318012E+03 0.  0.
          5    1    3    3  501    0 -0.92582430140E+02  0.39380459559E+02 -0.34979357268E+03  0.36400544014E+03  0.47000000000E+01 0.  1.
         -5    1    3    3    0  501  0.37757693220E+02  0.81195956276E+01 -0.24648435442E+03  0.24953596576E+03  0.47000000000E+01 0.  1.
          5    1    4    4  502    0  0.51004157911E+02 -0.21882222915E+02 -0.42538337059E+02  0.70084634005E+02  0.47000000000E+01 0. -1.
         -5    1    4    4    0  502  0.38205790084E+01 -0.25617832272E+02 -0.30738776506E+03  0.30851288184E+03  0.47000000000E+01 0. -1.
<mgrwt>
<rscale>  0 0.29839165E+03</rscale>
<asrwt>0</asrwt>
<pdfrwt beam="1">  1       21 0.35334540E-02 0.29839165E+03</pdfrwt>
<pdfrwt beam="2">  1       21 0.14910327E+00 0.29839165E+03</pdfrwt>
<totfact> 0.14064678E+05</totfact>
</mgrwt>
</event>
<event>
 8    1  0.9569852E-006  0.4503337E+03  0.7546771E-02  0.1027623E+00
         21   -1    0    0  504  503  0.00000000000E+00  0.00000000000E+00  0.12584759822E+04  0.12584759822E+04  0.00000000000E+00 0.  1.
         21   -1    0    0  503  504 -0.00000000000E+00 -0.00000000000E+00 -0.40286918791E+02  0.40286918791E+02  0.00000000000E+00 0.  1.
         25    2    1    2    0    0  0.14988950075E+03 -0.95240101180E+02  0.43752091711E+03  0.48845115362E+03  0.12498974858E+03 0.  0.
         25    2    1    2    0    0 -0.14988950075E+03  0.95240101180E+02  0.78066814626E+03  0.81031174734E+03  0.12499933592E+03 0.  0.
          5    1    3    3  501    0 -0.18200177198E+02 -0.43693466952E+01  0.87899476155E+02  0.89993030558E+02  0.47000000000E+01 0.  1.
         -5    1    3    3    0  501  0.16808967795E+03 -0.90870754485E+02  0.34962144096E+03  0.39845812306E+03  0.47000000000E+01 0.  1.
          5    1    4    4  502    0 -0.29637666858E+02 -0.29513021674E+02  0.11551901426E+03  0.12294772223E+03  0.47000000000E+01 0.  1.
         -5    1    4    4    0  502 -0.12025183389E+03  0.12475312285E+03  0.66514913200E+03  0.68736402511E+03  0.47000000000E+01 0.  1.
<mgrwt>
<rscale>  0 0.45033374E+03</rscale>
<asrwt>0</asrwt>
<pdfrwt beam="1">  1       21 0.19361166E+00 0.45033374E+03</pdfrwt>
<pdfrwt beam="2">  1       21 0.61979885E-02 0.45033374E+03</pdfrwt>
<totfact> 0.24422066E+04</totfact>
</mgrwt>
</event>
<event>
 8    1  0.9569852E-006  0.2940653E+03  0.7546771E-02  0.1088246E+00
         21   -1    0    0  504  503  0.00000000000E+00  0.00000000000E+00  0.24776832069E+03  0.24776832069E+03  0.00000000000E+00 0.  1.
         21   -1    0    0  503  504 -0.00000000000E+00 -0.00000000000E+00 -0.87253280240E+02  0.87253280240E+02  0.00000000000E+00 0.  1.
         25    2    1    2    0    0  0.11666046275E+02 -0.73123037241E+02  0.54679479889E+02  0.15527440332E+03  0.12504886882E+03 0.  0.
         25    2    1    2    0    0 -0.11666046275E+02  0.73123037241E+02  0.10583556056E+03  0.17974719761E+03  0.12499925583E+03 0.  0.
          5    1    3    3  501    0  0.60207413623E+02 -0.97174405330E+01  0.42207905747E+02  0.74316610615E+02  0.47000000000E+01 0.  1.
         -5    1    3    3    0  501 -0.48541367348E+02 -0.63405596708E+02  0.12471574142E+02  0.80957792704E+02  0.47000000000E+01 0.  1.
          5    1    4    4  502    0  0.16163236317E+02  0.66542472910E+01  0.10600014628E+03  0.10753441415E+03  0.47000000000E+01 0. -1.
         -5    1    4    4    0  502 -0.27829282593E+02  0.66468789950E+02 -0.16458571689E+00  0.72212783463E+02  0.47000000000E+01 0. -1.
<mgrwt>
<rscale>  0 0.29406529E+03</rscale>
<asrwt>0</asrwt>
<pdfrwt beam="1">  1       21 0.38118203E-01 0.29406529E+03</pdfrwt>
<pdfrwt beam="2">  1       21 0.13423582E-01 0.29406529E+03</pdfrwt>
<totfact> 0.31106976E+05</totfact>
</mgrwt>
</event>
<event>
 8    1  0.9569852E-006  0.2668524E+03  0.7546771E-02  0.1103095E+00
         21   -1    0    0  504  503  0.00000000000E+00  0.00000000000E+00  0.87361456682E+02  0.87361456682E+02  0.00000000000E+00 0. -1.
         21   -1    0    0  503  504 -0.00000000000E+00 -0.00000000000E+00 -0.20378037671E+03  0.20378037671E+03  0.00000000000E+00 0. -1.
         25    2    1    2    0    0  0.14534031045E+02 -0.16654492244E+02 -0.13349561303E+02  0.12763420636E+03  0.12499467859E+03 0.  0.
         25    2    1    2    0    0 -0.14534031045E+02  0.16654492244E+02 -0.10306935872E+03  0.16350762702E+03  0.12499136457E+03 0.  0.
          5    1    3    3  501    0  0.19331962613E+02 -0.50569468248E+02  0.37585263519E+02  0.66073731022E+02  0.47000000000E+01 0. -1.
         -5    1    3    3    0  501 -0.47979315686E+01  0.33914976004E+02 -0.50934824821E+02  0.61560475341E+02  0.47000000000E+01 0. -1.
          5    1    4    4  502    0  0.23765100309E+01 -0.27405258775E+02  0.18184430832E+02  0.33308550451E+02  0.47000000000E+01 0. -1.
         -5    1    4    4    0  502 -0.16910541076E+02  0.44059751019E+02 -0.12125378955E+03  0.13019907657E+03  0.47000000000E+01 0. -1.
<mgrwt>
<rscale>  0 0.26685240E+03</rscale>
<asrwt>0</asrwt>
<pdfrwt beam="1">  1       21 0.13440224E-01 0.26685240E+03</pdfrwt>
<pdfrwt beam="2">  1       21 0.31350827E-01 0.26685240E+03</pdfrwt>
<totfact> 0.46114643E+05</totfact>
</mgrwt>
</event>
<event>
 8    1  0.9569852E-006  0.3276031E+03  0.7546771E-02  0.1072202E+00
         21   -1    0    0  504  503  0.00000000000E+00  0.00000000000E+00  0.10725513107E+04  0.10725513107E+04  0.00000000000E+00 0.  1.
         21   -1    0    0  503  504 -0.00000000000E+00 -0.00000000000E+00 -0.25016008203E+02  0.25016008203E+02  0.00000000000E+00 0.  1.
         25    2    1    2    0    0 -0.36299407698E+01  0.81673827452E+02  0.29847484338E+03  0.33376102573E+03  0.12500159843E+03 0.  0.
         25    2    1    2    0    0  0.36299407698E+01 -0.81673827452E+02  0.74906045908E+03  0.76380629313E+03  0.12499876603E+03 0.  0.
          5    1    3    3  501    0 -0.50681929344E+02  0.34857507092E+02  0.23060165404E+03  0.23871094782E+03  0.47000000000E+01 0.  1.
         -5    1    3    3    0  501  0.47051988574E+02  0.46816320361E+02  0.67873189342E+02  0.95050077919E+02  0.47000000000E+01 0.  1.
          5    1    4    4  502    0  0.69905255736E+01 -0.46506842681E+01 -0.10955058872E+01  0.96843401998E+01  0.47000000000E+01 0. -1.
         -5    1    4    4    0  502 -0.33605848038E+01 -0.77023143184E+02  0.75015596497E+03  0.75412195293E+03  0.47000000000E+01 0. -1.
<mgrwt>
<rscale>  0 0.32760313E+03</rscale>
<asrwt>0</asrwt>
<pdfrwt beam="1">  1       21 0.16500786E+00 0.32760313E+03</pdfrwt>
<pdfrwt beam="2">  1       21 0.38486175E-02 0.32760313E+03</pdfrwt>
<totfact> 0.91503679E+04</totfact>
</mgrwt>
</event>
<event>
 8    1  0.9569852E-006  0.3248899E+03  0.7546771E-02  0.1073421E+00
         21   -1    0    0  504  503  0.00000000000E+00  0.00000000000E+00  0.48273324612E+02  0.48273324612E+02  0.00000000000E+00 0. -1.
         21   -1    0    0  503  504 -0.00000000000E+00 -0.00000000000E+00 -0.54664463133E+03  0.54664463133E+03  0.00000000000E+00 0. -1.
         25    2    1    2    0    0 -0.65595025510E+02 -0.39775902873E+02 -0.37707651386E+03  0.40459476249E+03  0.12500157882E+03 0.  0.
         25    2    1    2    0    0  0.65595025510E+02  0.39775902873E+02 -0.12129479286E+03  0.19032319345E+03  0.12500264545E+03 0.  0.
          5    1    3    3  501    0  0.23042110726E+02 -0.36547108011E+02 -0.52858529553E+02  0.68430578816E+02  0.47000000000E+01 0.  1.
         -5    1    3    3    0  501 -0.88637136235E+02 -0.32287948621E+01 -0.32421798431E+03  0.33616418367E+03  0.47000000000E+01 0.  1.
          5    1    4    4  502    0  0.63844912420E+02 -0.16980346333E+02 -0.11538195345E+03  0.13303980677E+03  0.47000000000E+01 0.  1.
         -5    1    4    4    0  502  0.17501130892E+01  0.56756249206E+02 -0.59128394062E+01  0.57283386681E+02  0.47000000000E+01 0.  1.
<mgrwt>
<rscale>  0 0.32488985E+03</rscale>
<asrwt>0</asrwt>
<pdfrwt beam="1">  1       21 0.74266650E-02 0.32488985E+03</pdfrwt>
<pdfrwt beam="2">  1       21 0.84099177E-01 0.32488985E+03</pdfrwt>
<totfact> 0.16123400E+05</totfact>
</mgrwt>
</event>
<event>
 8    1  0.9569852E-006  0.3321748E+03  0.7546771E-02  0.1070179E+00
         21   -1    0    0  504  503  0.00000000000E+00  0.00000000000E+00  0.65949264854E+03  0.65949264854E+03  0.00000000000E+00 0. -1.
         21   -1    0    0  503  504 -0.00000000000E+00 -0.00000000000E+00 -0.41827655809E+02  0.41827655809E+02  0.00000000000E+00 0. -1.
         25    2    1    2    0    0  0.10606592416E+03 -0.29999288279E+01  0.36474293270E+03  0.39990199248E+03  0.12500086718E+03 0.  0.
         25    2    1    2    0    0 -0.10606592416E+03  0.29999288279E+01  0.25292206003E+03  0.30141831187E+03  0.12499780173E+03 0.  0.
          5    1    3    3  501    0  0.85787182504E+02 -0.41419631311E+02  0.13062173323E+03  0.16173791680E+03  0.47000000000E+01 0. -1.
         -5    1    3    3    0  501  0.20278741653E+02  0.38419702483E+02  0.23412119948E+03  0.23816407568E+03  0.47000000000E+01 0. -1.
          5    1    4    4  502    0 -0.13028595655E+02  0.22481344805E+02 -0.46628754000E+01  0.26813943686E+02  0.47000000000E+01 0.  1.
         -5    1    4    4    0  502 -0.93037328502E+02 -0.19481415977E+02  0.25758493543E+03  0.27460436818E+03  0.47000000000E+01 0.  1.
<mgrwt>
<rscale>  0 0.33217484E+03</rscale>
<asrwt>0</asrwt>
<pdfrwt beam="1">  1       21 0.10146040E+00 0.33217484E+03</pdfrwt>
<pdfrwt beam="2">  1       21 0.64350245E-02 0.33217484E+03</pdfrwt>
<totfact> 0.13264639E+05</totfact>
</mgrwt>
</event>
<event>
 8    1  0.9569852E-006  0.2677956E+03  0.7546771E-02  0.1102548E+00
         21   -1    0    0  504  503  0.00000000000E+00  0.00000000000E+00  0.38491158908E+02  0.38491158908E+02  0.00000000000E+00 0.  1.
         21   -1    0    0  503  504 -0.00000000000E+00 -0.00000000000E+00 -0.46578556417E+03  0.46578556417E+03  0.00000000000E+00 0.  1.
         25    2    1    2    0    0  0.47528991396E+02 -0.60671095396E+01 -0.21885445255E+03  0.25655122665E+03  0.12500178261E+03 0.  0.
         25    2    1    2    0    0 -0.47528991396E+02  0.60671095396E+01 -0.20843995271E+03  0.24772549642E+03  0.12499957140E+03 0.  0.
          5    1    3    3  501    0 -0.21992528926E+02 -0.45944714150E+02 -0.62288529029E+02  0.80601110014E+02  0.47000000000E+01 0. -1.
         -5    1    3    3    0  501  0.69521520322E+02  0.39877604611E+02 -0.15656592352E+03  0.17595011664E+03  0.47000000000E+01 0. -1.
          5    1    4    4  502    0 -0.85551651249E+02 -0.11930840413E+02 -0.10556511514E+03  0.13648264915E+03  0.47000000000E+01 0.  1.
         -5    1    4    4    0  502  0.38022659853E+02  0.17997949953E+02 -0.10287483756E+03  0.11124284727E+03  0.47000000000E+01 0.  1.
<mgrwt>
<rscale>  0 0.26779564E+03</rscale>
<asrwt>0</asrwt>
<pdfrwt beam="1">  1       21 0.59217169E-02 0.26779564E+03</pdfrwt>
<pdfrwt beam="2">  1       21 0.71659316E-01 0.26779564E+03</pdfrwt>
<totfact> 0.34835289E+05</totfact>
</mgrwt>
</event>
<event>
 8    1  0.9569852E-006  0.3705325E+03  0.7546771E-02  0.1054490E+00
         21   -1    0    0  504  503  0.00000000000E+00  0.00000000000E+00  0.60987677085E+03  0.60987677085E+03  0.00000000000E+00 0. -1.
         21   -1    0    0  503  504 -0.00000000000E+00 -0.00000000000E+00 -0.56279552499E+02  0.56279552499E+02  0.00000000000E+00 0. -1.
         25    2    1    2    0    0 -0.21396567490E+01  0.71504570451E+02  0.67290096814E+02  0.15897062996E+03  0.12500488925E+03 0.  0.
         25    2    1    2    0    0  0.21396567490E+01 -0.71504570451E+02  0.48630712154E+03  0.50718569339E+03  0.12500091756E+03 0.  0.
          5    1    3    3  501    0 -0.32892241022E+02  0.54917032747E+02  0.94638143666E+02  0.11435142431E+03  0.47000000000E+01 0. -1.
         -5    1    3    3    0  501  0.30752584273E+02  0.16587537704E+02 -0.27348046853E+02  0.44619205654E+02  0.47000000000E+01 0. -1.
          5    1    4    4  502    0  0.12615865212E+02 -0.63232168712E+02  0.91008292701E+02  0.11163362645E+03  0.47000000000E+01 0. -1.
         -5    1    4    4    0  502 -0.10476208463E+02 -0.82724017397E+01  0.39529882884E+03  0.39555206693E+03  0.47000000000E+01 0. -1.
<mgrwt>
<rscale>  0 0.37053255E+03</rscale>
<asrwt>0</asrwt>
<pdfrwt beam="1">  1       21 0.93827191E-01 0.37053255E+03</pdfrwt>
<pdfrwt beam="2">  1       21 0.86583931E-02 0.37053255E+03</pdfrwt>
<totfact> 0.94119614E+04</totfact>
</mgrwt>
</event>
<event>
 8    1  0.9569852E-006  0.2988887E+03  0.7546771E-02  0.1085797E+00
         21   -1    0    0  504  503  0.00000000000E+00  0.00000000000E+00  0.50821740489E+02  0.50821740489E+02  0.00000000000E+00 0.  1.
         21   -1    0    0  503  504 -0.00000000000E+00 -0.00000000000E+00 -0.43945005448E+03  0.43945005448E+03  0.00000000000E+00 0.  1.
         25    2    1    2    0    0 -0.12350917919E+02  0.24263653675E+00 -0.61474654867E+02  0.13983346226E+03  0.12498663901E+03 0.  0.
         25    2    1    2    0    0  0.12350917919E+02 -0.24263653675E+00 -0.32715365913E+03  0.35043833271E+03  0.12499961722E+03 0.  0.
          5    1    3    3  501    0  0.88341056482E-01 -0.55964662559E+02 -0.59818067865E+02  0.82050853150E+02  0.47000000000E+01 0. -1.
         -5    1    3    3    0  501 -0.12439258976E+02  0.56207299096E+02 -0.16565870019E+01  0.57782609114E+02  0.47000000000E+01 0. -1.
          5    1    4    4  502    0 -0.22190800771E+02 -0.26540915684E+02 -0.20081043827E+02  0.40276421954E+02  0.47000000000E+01 0.  1.
         -5    1    4    4    0  502  0.34541718690E+02  0.26298279147E+02 -0.30707261530E+03  0.31016191075E+03  0.47000000000E+01 0.  1.
<mgrwt>
<rscale>  0 0.29888872E+03</rscale>
<asrwt>0</asrwt>
<pdfrwt beam="1">  1       21 0.78187297E-02 0.29888872E+03</pdfrwt>
<pdfrwt beam="2">  1       21 0.67607698E-01 0.29888872E+03</pdfrwt>
<totfact> 0.24290938E+05</totfact>
</mgrwt>
</event>
<event>
 8    1  0.9569852E-006  0.2946342E+03  0.7546771E-02  0.1087954E+00
         21   -1    0    0  504  503  0.00000000000E+00  0.00000000000E+00  0.19196329513E+02  0.19196329513E+02  0.00000000000E+00 0.  1.
         21   -1    0    0  503  504 -0.00000000000E+00 -0.00000000000E+00 -0.11305454005E+04  0.11305454005E+04  0.00000000000E+00 0.  1.
         25    2    1    2    0    0  0.62434660821E+02 -0.42939170036E+02 -0.48469546159E+03  0.50626511096E+03  0.12503124767E+03 0.  0.
         25    2    1    2    0    0 -0.62434660821E+02  0.42939170036E+02 -0.62665360937E+03  0.64347661902E+03  0.12500221559E+03 0.  0.
          5    1    3    3  501    0  0.92586515851E+02 -0.47308691877E+02 -0.43882231707E+03  0.45099610996E+03  0.47000000000E+01 0.  1.
         -5    1    3    3    0  501 -0.30151855030E+02  0.43695218407E+01 -0.45873144526E+02  0.55269001000E+02  0.47000000000E+01 0.  1.
          5    1    4    4  502    0 -0.11885987611E+02  0.96211131462E+01 -0.22828414674E+01  0.16159946931E+02  0.47000000000E+01 0. -1.
         -5    1    4    4    0  502 -0.50548673211E+02  0.33318056890E+02 -0.62437076790E+03  0.62731667209E+03  0.47000000000E+01 0. -1.
<mgrwt>
<rscale>  0 0.29463416E+03</rscale>
<asrwt>0</asrwt>
<pdfrwt beam="1">  1       21 0.29532803E-02 0.29463416E+03</pdfrwt>
<pdfrwt beam="2">  1       21 0.17393013E+00 0.29463416E+03</pdfrwt>
<totfact> 0.12456162E+05</totfact>
</mgrwt>
</event>
<event>
 8    1  0.9569852E-006  0.2944249E+03  0.7546771E-02  0.1088061E+00
         21   -1    0    0  504  503  0.00000000000E+00  0.00000000000E+00  0.48827642770E+03  0.48827642770E+03  0.00000000000E+00 0.  1.
         21   -1    0    0  503  504 -0.00000000000E+00 -0.00000000000E+00 -0.44383690260E+02  0.44383690260E+02  0.00000000000E+00 0.  1.
         25    2    1    2    0    0 -0.43031027615E+02 -0.59229944616E+02  0.26933314775E+03  0.30581640959E+03  0.12499390475E+03 0.  0.
         25    2    1    2    0    0  0.43031027615E+02  0.59229944616E+02  0.17455958969E+03  0.22684370836E+03  0.12500864768E+03 0.  0.
          5    1    3    3  501    0 -0.48535334498E+02  0.27052079937E+02  0.78830102089E+02  0.96559664038E+02  0.47000000000E+01 0. -1.
         -5    1    3    3    0  501  0.55043068836E+01 -0.86282024553E+02  0.19050304566E+03  0.20925674555E+03  0.47000000000E+01 0. -1.
          5    1    4    4  502    0  0.25528164158E+02 -0.34170426595E+02  0.89359124305E+02  0.99128443524E+02  0.47000000000E+01 0.  1.
         -5    1    4    4    0  502  0.17502863457E+02  0.93400371211E+02  0.85200465385E+02  0.12771526484E+03  0.47000000000E+01 0.  1.
<mgrwt>
<rscale>  0 0.29442493E+03</rscale>
<asrwt>0</asrwt>
<pdfrwt beam="1">  1       21 0.75119447E-01 0.29442493E+03</pdfrwt>
<pdfrwt beam="2">  1       21 0.68282604E-02 0.29442493E+03</pdfrwt>
<totfact> 0.24341402E+05</totfact>
</mgrwt>
</event>
<event>
 8    1  0.9569852E-006  0.2759361E+03  0.7546771E-02  0.1097929E+00
         21   -1    0    0  504  503  0.00000000000E+00  0.00000000000E+00  0.26972373755E+03  0.26972373755E+03  0.00000000000E+00 0. -1.
         21   -1    0    0  503  504 -0.00000000000E+00 -0.00000000000E+00 -0.70572906600E+02  0.70572906600E+02  0.00000000000E+00 0. -1.
         25    2    1    2    0    0 -0.45347435076E+02 -0.26600781013E+02  0.68306438909E+02  0.15186322971E+03  0.12503071431E+03 0.  0.
         25    2    1    2    0    0  0.45347435076E+02  0.26600781013E+02  0.13084439204E+03  0.18843341445E+03  0.12499162105E+03 0.  0.
          5    1    3    3  501    0  0.20157685364E+02 -0.53679523260E+02  0.68624499050E+01  0.57939681699E+02  0.47000000000E+01 0. -1.
         -5    1    3    3    0  501 -0.65505120440E+02  0.27078742247E+02  0.61443989004E+02  0.93923548007E+02  0.47000000000E+01 0. -1.
          5    1    4    4  502    0  0.69450152635E+02 -0.20432384262E+02  0.10926408805E+03  0.13115462998E+03  0.47000000000E+01 0. -1.
         -5    1    4    4    0  502 -0.24102717559E+02  0.47033165275E+02  0.21580303993E+02  0.57278784466E+02  0.47000000000E+01 0. -1.
<mgrwt>
<rscale>  0 0.27593614E+03</rscale>
<asrwt>0</asrwt>
<pdfrwt beam="1">  1       21 0.41495959E-01 0.27593614E+03</pdfrwt>
<pdfrwt beam="2">  1       21 0.10857370E-01 0.27593614E+03</pdfrwt>
<totfact> 0.38517437E+05</totfact>
</mgrwt>
</event>
<event>
 8    1  0.9569852E-006  0.3073619E+03  0.7546771E-02  0.1081617E+00
         21   -1    0    0  504  503  0.00000000000E+00  0.00000000000E+00  0.11359227715E+03  0.11359227715E+03  0.00000000000E+00 0. -1.
         21   -1    0    0  503  504 -0.00000000000E+00 -0.00000000000E+00 -0.20791766380E+03  0.20791766380E+03  0.00000000000E+00 0. -1.
         25    2    1    2    0    0  0.87766511451E+02 -0.14356594821E+02 -0.37671205351E+02  0.15796592649E+03  0.12500016749E+03 0.  0.
         25    2    1    2    0    0 -0.87766511451E+02  0.14356594821E+02 -0.56654181301E+02  0.16354401446E+03  0.12501150371E+03 0.  0.
          5    1    3    3  501    0  0.94973383087E+02  0.34053509330E+02 -0.40254189964E+02  0.10872936495E+03  0.47000000000E+01 0.  1.
         -5    1    3    3    0  501 -0.72068716361E+01 -0.48410104151E+02  0.25829846128E+01  0.49236561539E+02  0.47000000000E+01 0.  1.
          5    1    4    4  502    0 -0.15261611953E+02  0.63366308246E+02 -0.30266434253E+02  0.72016337470E+02  0.47000000000E+01 0.  1.
         -5    1    4    4    0  502 -0.72504899497E+02 -0.49009713425E+02 -0.26387747048E+02  0.91527676991E+02  0.47000000000E+01 0.  1.
<mgrwt>
<rscale>  0 0.30736194E+03</rscale>
<asrwt>0</asrwt>
<pdfrwt beam="1">  1       21 0.17475735E-01 0.30736194E+03</pdfrwt>
<pdfrwt beam="2">  1       21 0.31987333E-01 0.30736194E+03</pdfrwt>
<totfact> 0.27123095E+05</totfact>
</mgrwt>
</event>
<event>
 8    1  0.9569852E-006  0.3102144E+03  0.7546771E-02  0.1080243E+00
         21   -1    0    0  504  503  0.00000000000E+00  0.00000000000E+00  0.96480532172E+02  0.96480532172E+02  0.00000000000E+00 0.  1.
         21   -1    0    0  503  504 -0.00000000000E+00 -0.00000000000E+00 -0.24935850310E+03  0.24935850310E+03  0.00000000000E+00 0.  1.
         25    2    1    2    0    0  0.38426286177E+02  0.83274683330E+02 -0.81795646432E+02  0.17528988052E+03  0.12499904833E+03 0.  0.
         25    2    1    2    0    0 -0.38426286177E+02 -0.83274683330E+02 -0.71082324498E+02  0.17054915475E+03  0.12499225967E+03 0.  0.
          5    1    3    3  501    0  0.26768250847E+02 -0.30262040400E+02 -0.24675876456E+02  0.47574354662E+02  0.47000000000E+01 0.  1.
         -5    1    3    3    0  501  0.11658035330E+02  0.11353672373E+03 -0.57119769976E+02  0.12771552586E+03  0.47000000000E+01 0.  1.
          5    1    4    4  502    0  0.15866757324E+00 -0.96168848644E+02 -0.83823974865E+02  0.12765978767E+03  0.47000000000E+01 0.  1.
         -5    1    4    4    0  502 -0.38584953750E+02  0.12894165314E+02  0.12741650367E+02  0.42889367087E+02  0.47000000000E+01 0.  1.
<mgrwt>
<rscale>  0 0.31021438E+03</rscale>
<asrwt>0</asrwt>
<pdfrwt beam="1">  1       21 0.14843159E-01 0.31021438E+03</pdfrwt>
<pdfrwt beam="2">  1       21 0.38362846E-01 0.31021438E+03</pdfrwt>
<totfact> 0.25462955E+05</totfact>
</mgrwt>
</event>
<event>
 8    1  0.9569852E-006  0.2569155E+03  0.7546771E-02  0.1109011E+00
         21   -1    0    0  504  503  0.00000000000E+00  0.00000000000E+00  0.15326410571E+03  0.15326410571E+03  0.00000000000E+00 0. -1.
         21   -1    0    0  503  504 -0.00000000000E+00 -0.00000000000E+00 -0.10766637829E+03  0.10766637829E+03  0.00000000000E+00 0. -1.
         25    2    1    2    0    0 -0.24326270925E+02  0.88112890759E+01  0.81894820441E+01  0.12791076989E+03  0.12499876466E+03 0.  0.
         25    2    1    2    0    0  0.24326270925E+02 -0.88112890759E+01  0.37408245375E+02  0.13301971410E+03  0.12500184497E+03 0.  0.
          5    1    3    3  501    0 -0.15760442720E+02 -0.40368729543E+02  0.47298114495E+02  0.64321283526E+02  0.47000000000E+01 0.  1.
         -5    1    3    3    0  501 -0.85658282056E+01  0.49180018619E+02 -0.39108632451E+02  0.63589486366E+02  0.47000000000E+01 0.  1.
          5    1    4    4  502    0 -0.36136253568E+01  0.48098162392E+02 -0.14892185345E+02  0.50698705092E+02  0.47000000000E+01 0.  1.
         -5    1    4    4    0  502  0.27939896282E+02 -0.56909451468E+02  0.52300430719E+02  0.82321009008E+02  0.47000000000E+01 0.  1.
<mgrwt>
<rscale>  0 0.25691548E+03</rscale>
<asrwt>0</asrwt>
<pdfrwt beam="1">  1       21 0.23579093E-01 0.25691548E+03</pdfrwt>
<pdfrwt beam="2">  1       21 0.16564058E-01 0.25691548E+03</pdfrwt>
<totfact> 0.54752573E+05</totfact>
</mgrwt>
</event>
<event>
 8    1  0.9569852E-006  0.4871411E+03  0.7546771E-02  0.1017191E+00
         21   -1    0    0  504  503  0.00000000000E+00  0.00000000000E+00  0.18382873367E+03  0.18382873367E+03  0.00000000000E+00 0.  1.
         21   -1    0    0  503  504 -0.00000000000E+00 -0.00000000000E+00 -0.32272765749E+03  0.32272765749E+03  0.00000000000E+00 0.  1.
         25    2    1    2    0    0  0.12275623869E+03 -0.14533318897E+03  0.20684567247E+02  0.22856569650E+03  0.12499438524E+03 0.  0.
         25    2    1    2    0    0 -0.12275623869E+03  0.14533318897E+03 -0.15958349107E+03  0.27799069465E+03  0.12498442199E+03 0.  0.
          5    1    3    3  501    0 -0.23128840545E+02 -0.34498175030E+02 -0.93923400650E+01  0.42841258119E+02  0.47000000000E+01 0. -1.
         -5    1    3    3    0  501  0.14588507923E+03 -0.11083501394E+03  0.30076907312E+02  0.18572443838E+03  0.47000000000E+01 0. -1.
          5    1    4    4  502    0 -0.56510999334E+02  0.90394620524E+02 -0.15937541868E+03  0.19180014219E+03  0.47000000000E+01 0. -1.
         -5    1    4    4    0  502 -0.66245239356E+02  0.54938568445E+02 -0.20807239233E+00  0.86190552465E+02  0.47000000000E+01 0. -1.
<mgrwt>
<rscale>  0 0.48714112E+03</rscale>
<asrwt>0</asrwt>
<pdfrwt beam="1">  1       21 0.28281344E-01 0.48714112E+03</pdfrwt>
<pdfrwt beam="2">  1       21 0.49650408E-01 0.48714112E+03</pdfrwt>
<totfact> 0.42077764E+04</totfact>
</mgrwt>
</event>
<event>
 8    1  0.9569852E-006  0.2896813E+03  0.7546771E-02  0.1090516E+00
         21   -1    0    0  504  503  0.00000000000E+00  0.00000000000E+00  0.15185415338E+03  0.15185415338E+03  0.00000000000E+00 0.  1.
         21   -1    0    0  503  504 -0.00000000000E+00 -0.00000000000E+00 -0.13815108029E+03  0.13815108029E+03  0.00000000000E+00 0.  1.
         25    2    1    2    0    0  0.42746305698E+02 -0.23737618912E+02  0.61344086889E+02  0.14757875892E+03  0.12500268751E+03 0.  0.
         25    2    1    2    0    0 -0.42746305698E+02  0.23737618912E+02 -0.47641013808E+02  0.14242647475E+03  0.12499965325E+03 0.  0.
          5    1    3    3  501    0 -0.10876314110E+01  0.39778519542E+02 -0.11149583938E+02  0.41592268284E+02  0.47000000000E+01 0. -1.
         -5    1    3    3    0  501  0.43833937109E+02 -0.63516138454E+02  0.72493670827E+02  0.10598649063E+03  0.47000000000E+01 0. -1.
          5    1    4    4  502    0  0.22350395968E+02 -0.37067182446E+02 -0.58812919030E+01  0.43933993773E+02  0.47000000000E+01 0. -1.
         -5    1    4    4    0  502 -0.65096701665E+02  0.60804801359E+02 -0.41759721905E+02  0.98492480980E+02  0.47000000000E+01 0. -1.
<mgrwt>
<rscale>  0 0.28968131E+03</rscale>
<asrwt>0</asrwt>
<pdfrwt beam="1">  1       21 0.23362178E-01 0.28968131E+03</pdfrwt>
<pdfrwt beam="2">  1       21 0.21254012E-01 0.28968131E+03</pdfrwt>
<totfact> 0.34745939E+05</totfact>
</mgrwt>
</event>
<event>
 8    1  0.9569852E-006  0.4191120E+03  0.7546771E-02  0.1037356E+00
         21   -1    0    0  504  503  0.00000000000E+00  0.00000000000E+00  0.96393261823E+02  0.96393261823E+02  0.00000000000E+00 0. -1.
         21   -1    0    0  503  504 -0.00000000000E+00 -0.00000000000E+00 -0.45556825256E+03  0.45556825256E+03  0.00000000000E+00 0. -1.
         25    2    1    2    0    0 -0.12699284822E+03  0.10818823580E+03 -0.15171507714E+03  0.25784722551E+03  0.12504338930E+03 0.  0.
         25    2    1    2    0    0  0.12699284822E+03 -0.10818823580E+03 -0.20745991360E+03  0.29411428887E+03  0.12502688233E+03 0.  0.
          5    1    3    3  501    0 -0.14544432227E+03  0.78686068858E+02 -0.93951067022E+02  0.19024836743E+03  0.47000000000E+01 0.  1.
         -5    1    3    3    0  501  0.18451474054E+02  0.29502166944E+02 -0.57764010121E+02  0.67598858086E+02  0.47000000000E+01 0.  1.
          5    1    4    4  502    0  0.77700386046E+02  0.94591889053E+01 -0.10123567347E+03  0.12805302741E+03  0.47000000000E+01 0. -1.
         -5    1    4    4    0  502  0.49292462174E+02 -0.11764742471E+03 -0.10622424013E+03  0.16606126146E+03  0.47000000000E+01 0. -1.
<mgrwt>
<rscale>  0 0.41911197E+03</rscale>
<asrwt>0</asrwt>
<pdfrwt beam="1">  1       21 0.14829733E-01 0.41911197E+03</pdfrwt>
<pdfrwt beam="2">  1       21 0.70087423E-01 0.41911197E+03</pdfrwt>
<totfact> 0.68921598E+04</totfact>
</mgrwt>
</event>
<event>
 8    1  0.9569852E-006  0.2609907E+03  0.7546771E-02  0.1106549E+00
         21   -1    0    0  504  503  0.00000000000E+00  0.00000000000E+00  0.16280092015E+03  0.16280092015E+03  0.00000000000E+00 0.  1.
         21   -1    0    0  503  504 -0.00000000000E+00 -0.00000000000E+00 -0.10460037977E+03  0.10460037977E+03  0.00000000000E+00 0.  1.
         25    2    1    2    0    0  0.34539368651E+02  0.14126317601E+02  0.25970899810E+02  0.13300430611E+03  0.12499254767E+03 0.  0.
         25    2    1    2    0    0 -0.34539368651E+02 -0.14126317601E+02  0.32229640573E+02  0.13439699380E+03  0.12502512298E+03 0.  0.
          5    1    3    3  501    0  0.25245492906E+02  0.56451307590E+02 -0.24174947762E+02  0.66562775933E+02  0.47000000000E+01 0. -1.
         -5    1    3    3    0  501  0.92938757449E+01 -0.42324989989E+02  0.50145847572E+02  0.66441530180E+02  0.47000000000E+01 0. -1.
          5    1    4    4  502    0  0.44392562919E+02 -0.17040857020E+02  0.27498408141E+02  0.55130235813E+02  0.47000000000E+01 0.  1.
         -5    1    4    4    0  502 -0.78931931570E+02  0.29145394194E+01  0.47312324318E+01  0.79266757987E+02  0.47000000000E+01 0.  1.
<mgrwt>
<rscale>  0 0.26099071E+03</rscale>
<asrwt>0</asrwt>
<pdfrwt beam="1">  1       21 0.25046296E-01 0.26099071E+03</pdfrwt>
<pdfrwt beam="2">  1       21 0.16092366E-01 0.26099071E+03</pdfrwt>
<totfact> 0.51406190E+05</totfact>
</mgrwt>
</event>
<event>
 8    1  0.9569852E-006  0.5698945E+03  0.7546771E-02  0.9969912E-01
         21   -1    0    0  504  503  0.00000000000E+00  0.00000000000E+00  0.24585710504E+03  0.24585710504E+03  0.00000000000E+00 0.  1.
         21   -1    0    0  503  504 -0.00000000000E+00 -0.00000000000E+00 -0.33025254833E+03  0.33025254833E+03  0.00000000000E+00 0.  1.
         25    2    1    2    0    0  0.15979207287E+03 -0.54885108156E+02 -0.23671881683E+03  0.31654450891E+03  0.12497498241E+03 0.  0.
         25    2    1    2    0    0 -0.15979207287E+03  0.54885108156E+02  0.15232337354E+03  0.25956514446E+03  0.12500308974E+03 0.  0.
          5    1    3    3  501    0 -0.10233537497E+02 -0.18160177973E+02  0.16350409554E+01  0.21430835556E+02  0.47000000000E+01 0. -1.
         -5    1    3    3    0  501  0.17002561036E+03 -0.36724930184E+02 -0.23835385779E+03  0.29511367335E+03  0.47000000000E+01 0. -1.
          5    1    4    4  502    0 -0.14728981540E+01 -0.26409321078E+02  0.42824924879E+02  0.50553791744E+02  0.47000000000E+01 0. -1.
         -5    1    4    4    0  502 -0.15831917471E+03  0.81294429235E+02  0.10949844866E+03  0.20901135272E+03  0.47000000000E+01 0. -1.
<mgrwt>
<rscale>  0 0.56989450E+03</rscale>
<asrwt>0</asrwt>
<pdfrwt beam="1">  1       21 0.37824170E-01 0.56989450E+03</pdfrwt>
<pdfrwt beam="2">  1       21 0.50808084E-01 0.56989450E+03</pdfrwt>
<totfact> 0.21929378E+04</totfact>
</mgrwt>
</event>
<event>
 8    1  0.9569852E-006  0.3346646E+03  0.7546771E-02  0.1069091E+00
         21   -1    0    0  504  503  0.00000000000E+00  0.00000000000E+00  0.53079133525E+03  0.53079133525E+03  0.00000000000E+00 0.  1.
         21   -1    0    0  503  504 -0.00000000000E+00 -0.00000000000E+00 -0.52751615639E+02  0.52751615639E+02  0.00000000000E+00 0.  1.
         25    2    1    2    0    0 -0.28086468332E+02 -0.64294250833E+02  0.38954330540E+03  0.41508088770E+03  0.12500222463E+03 0.  0.
         25    2    1    2    0    0  0.28086468332E+02  0.64294250833E+02  0.88496414217E+02  0.16846206319E+03  0.12500100404E+03 0.  0.
          5    1    3    3  501    0 -0.49155687296E+02  0.11825891456E+02  0.24590260113E+03  0.25109024781E+03  0.47000000000E+01 0. -1.
         -5    1    3    3    0  501  0.21069218964E+02 -0.76120142289E+02  0.14364070427E+03  0.16399063989E+03  0.47000000000E+01 0. -1.
          5    1    4    4  502    0  0.30567601696E+02  0.10432106634E+02 -0.26058133206E+02  0.41765098210E+02  0.47000000000E+01 0. -1.
         -5    1    4    4    0  502 -0.24811333639E+01  0.53862144199E+02  0.11455454742E+03  0.12669696498E+03  0.47000000000E+01 0. -1.
<mgrwt>
<rscale>  0 0.33466461E+03</rscale>
<asrwt>0</asrwt>
<pdfrwt beam="1">  1       21 0.81660202E-01 0.33466461E+03</pdfrwt>
<pdfrwt beam="2">  1       21 0.81156335E-02 0.33466461E+03</pdfrwt>
<totfact> 0.14731134E+05</totfact>
</mgrwt>
</event>
<event>
 8    1  0.9569852E-006  0.2577278E+03  0.7546771E-02  0.1108516E+00
         21   -1    0    0  504  503  0.00000000000E+00  0.00000000000E+00  0.51627326577E+03  0.51627326577E+03  0.00000000000E+00 0. -1.
         21   -1    0    0  503  504 -0.00000000000E+00 -0.00000000000E+00 -0.32164951579E+02  0.32164951579E+02  0.00000000000E+00 0. -1.
         25    2    1    2    0    0 -0.60803487187E+01 -0.38053080747E+01  0.30697266936E+03  0.33152609551E+03  0.12500352501E+03 0.  0.
         25    2    1    2    0    0  0.60803487187E+01  0.38053080747E+01  0.17713564483E+03  0.21691212183E+03  0.12498952323E+03 0.  0.
          5    1    3    3  501    0 -0.34266436490E+01 -0.59982365988E+02  0.97821243754E+02  0.11489435080E+03  0.47000000000E+01 0. -1.
         -5    1    3    3    0  501 -0.26537050697E+01  0.56177057913E+02  0.20915142560E+03  0.21663174471E+03  0.47000000000E+01 0. -1.
          5    1    4    4  502    0  0.42012928020E+02  0.50561899458E+02  0.98322951865E+02  0.11836842764E+03  0.47000000000E+01 0.  1.
         -5    1    4    4    0  502 -0.35932579301E+02 -0.46756591383E+02  0.78812692968E+02  0.98543694197E+02  0.47000000000E+01 0.  1.
<mgrwt>
<rscale>  0 0.25772780E+03</rscale>
<asrwt>0</asrwt>
<pdfrwt beam="1">  1       21 0.79426650E-01 0.25772780E+03</pdfrwt>
<pdfrwt beam="2">  1       21 0.49484545E-02 0.25772780E+03</pdfrwt>
<totfact> 0.37660515E+05</totfact>
</mgrwt>
</event>
<event>
 8    1  0.9569852E-006  0.3587921E+03  0.7546771E-02  0.1059063E+00
         21   -1    0    0  504  503  0.00000000000E+00  0.00000000000E+00  0.16161922434E+03  0.16161922434E+03  0.00000000000E+00 0.  1.
         21   -1    0    0  503  504 -0.00000000000E+00 -0.00000000000E+00 -0.19912815615E+03  0.19912815615E+03  0.00000000000E+00 0.  1.
         25    2    1    2    0    0 -0.67901695289E+02 -0.10918284950E+03 -0.24249836117E+02  0.18093526315E+03  0.12497191704E+03 0.  0.
         25    2    1    2    0    0  0.67901695289E+02  0.10918284950E+03 -0.13259095692E+02  0.17981211734E+03  0.12500023630E+03 0.  0.
          5    1    3    3  501    0 -0.32544637485E+02  0.22505274530E+02  0.82345400777E+01  0.40688308653E+02  0.47000000000E+01 0. -1.
         -5    1    3    3    0  501 -0.35357057804E+02 -0.13168812403E+03 -0.32484376195E+02  0.14024695449E+03  0.47000000000E+01 0. -1.
          5    1    4    4  502    0  0.35791129523E+02  0.11300758715E+03  0.33035113963E+02  0.12314677609E+03  0.47000000000E+01 0.  1.
         -5    1    4    4    0  502  0.32110565766E+02 -0.38247376470E+01 -0.46294209655E+02  0.56665341254E+02  0.47000000000E+01 0.  1.
<mgrwt>
<rscale>  0 0.35879207E+03</rscale>
<asrwt>0</asrwt>
<pdfrwt beam="1">  1       21 0.24864496E-01 0.35879207E+03</pdfrwt>
<pdfrwt beam="2">  1       21 0.30635101E-01 0.35879207E+03</pdfrwt>
<totfact> 0.14970566E+05</totfact>
</mgrwt>
</event>
<event>
 8    1  0.9569852E-006  0.2756111E+03  0.7546771E-02  0.1098111E+00
         21   -1    0    0  504  503  0.00000000000E+00  0.00000000000E+00  0.37753510344E+03  0.37753510344E+03  0.00000000000E+00 0. -1.
         21   -1    0    0  503  504 -0.00000000000E+00 -0.00000000000E+00 -0.50300923494E+02  0.50300923494E+02  0.00000000000E+00 0. -1.
         25    2    1    2    0    0 -0.28819383637E+01  0.54907453009E+02  0.13492104119E+03  0.19197095080E+03  0.12500409845E+03 0.  0.
         25    2    1    2    0    0  0.28819383637E+01 -0.54907453009E+02  0.19231313875E+03  0.23586507613E+03  0.12499942735E+03 0.  0.
          5    1    3    3  501    0 -0.97288718420E+01  0.89405053714E+02  0.12687519700E+03  0.15558701807E+03  0.47000000000E+01 0.  1.
         -5    1    3    3    0  501  0.68469334784E+01 -0.34497600705E+02  0.80458441920E+01  0.36383932734E+02  0.47000000000E+01 0.  1.
          5    1    4    4  502    0 -0.56711774465E+02 -0.44128906114E+02  0.76325613519E+02  0.10493462249E+03  0.47000000000E+01 0. -1.
         -5    1    4    4    0  502  0.59593712828E+02 -0.10778546895E+02  0.11598752523E+03  0.13093045365E+03  0.47000000000E+01 0. -1.
<mgrwt>
<rscale>  0 0.27561106E+03</rscale>
<asrwt>0</asrwt>
<pdfrwt beam="1">  1       21 0.58082322E-01 0.27561106E+03</pdfrwt>
<pdfrwt beam="2">  1       21 0.77386038E-02 0.27561106E+03</pdfrwt>
<totfact> 0.34636919E+05</totfact>
</mgrwt>
</event>
<event>
 8    1  0.9569852E-006  0.2770176E+03  0.7546771E-02  0.1097329E+00
         21   -1    0    0  504  503  0.00000000000E+00  0.00000000000E+00  0.27171586541E+03  0.27171586541E+03  0.00000000000E+00 0.  1.
         21   -1    0    0  503  504 -0.00000000000E+00 -0.00000000000E+00 -0.70605680376E+02  0.70605680376E+02  0.00000000000E+00 0.  1.
         25    2    1    2    0    0 -0.13069432194E+02 -0.54722652143E+02  0.12508921045E+03  0.18557415524E+03  0.12500031123E+03 0.  0.
         25    2    1    2    0    0  0.13069432194E+02  0.54722652143E+02  0.76020974588E+02  0.15674739055E+03  0.12500070861E+03 0.  0.
          5    1    3    3  501    0 -0.27636172278E+02 -0.16441230852E+02  0.13846730681E+03  0.14222994461E+03  0.47000000000E+01 0.  1.
         -5    1    3    3    0  501  0.14566740083E+02 -0.38281421291E+02 -0.13378096357E+02  0.43344210626E+02  0.47000000000E+01 0.  1.
          5    1    4    4  502    0 -0.38393863563E+02 -0.21988133935E+02  0.27391190368E+02  0.52248771306E+02  0.47000000000E+01 0.  1.
         -5    1    4    4    0  502  0.51463295757E+02  0.76710786078E+02  0.48629784219E+02  0.10449861924E+03  0.47000000000E+01 0.  1.
<mgrwt>
<rscale>  0 0.27701757E+03</rscale>
<asrwt>0</asrwt>
<pdfrwt beam="1">  1       21 0.41802440E-01 0.27701757E+03</pdfrwt>
<pdfrwt beam="2">  1       21 0.10862413E-01 0.27701757E+03</pdfrwt>
<totfact> 0.37901587E+05</totfact>
</mgrwt>
</event>
<event>
 8    1  0.9569852E-006  0.3095456E+03  0.7546771E-02  0.1080564E+00
         21   -1    0    0  504  503  0.00000000000E+00  0.00000000000E+00  0.11879297389E+04  0.11879297389E+04  0.00000000000E+00 0.  1.
         21   -1    0    0  503  504 -0.00000000000E+00 -0.00000000000E+00 -0.20165007392E+02  0.20165007392E+02  0.00000000000E+00 0.  1.
         25    2    1    2    0    0  0.68805068812E+02  0.59944239192E+02  0.59079213073E+03  0.61072605439E+03  0.12499408976E+03 0.  0.
         25    2    1    2    0    0 -0.68805068812E+02 -0.59944239192E+02  0.57697260075E+03  0.59736869187E+03  0.12499809080E+03 0.  0.
          5    1    3    3  501    0 -0.57017184249E+01 -0.21170919195E+02  0.28118958917E+03  0.28208224416E+03  0.47000000000E+01 0.  1.
         -5    1    3    3    0  501  0.74506787237E+02  0.81115158387E+02  0.30960254156E+03  0.32864381023E+03  0.47000000000E+01 0.  1.
          5    1    4    4  502    0 -0.40328323875E+02 -0.95718386643E+01  0.49591045163E+03  0.49766179263E+03  0.47000000000E+01 0.  1.
         -5    1    4    4    0  502 -0.28476744937E+02 -0.50372400528E+02  0.81062149116E+02  0.99706899242E+02  0.47000000000E+01 0.  1.
<mgrwt>
<rscale>  0 0.30954555E+03</rscale>
<asrwt>0</asrwt>
<pdfrwt beam="1">  1       21 0.18275837E+00 0.30954555E+03</pdfrwt>
<pdfrwt beam="2">  1       21 0.31023098E-02 0.30954555E+03</pdfrwt>
<totfact> 0.99027433E+04</totfact>
</mgrwt>
</event>
<event>
 8    1  0.9569852E-006  0.2983913E+03  0.7546771E-02  0.1086048E+00
         21   -1    0    0  504  503  0.00000000000E+00  0.00000000000E+00  0.19247313418E+03  0.19247313418E+03  0.00000000000E+00 0.  1.
         21   -1    0    0  503  504 -0.00000000000E+00 -0.00000000000E+00 -0.11564905806E+03  0.11564905806E+03  0.00000000000E+00 0.  1.
         25    2    1    2    0    0 -0.44274315691E+02 -0.65447509743E+02  0.58816484685E+02  0.15914850882E+03  0.12500110971E+03 0.  0.
         25    2    1    2    0    0  0.44274315691E+02  0.65447509743E+02  0.18007591437E+02  0.14897368342E+03  0.12500117376E+03 0.  0.
          5    1    3    3  501    0 -0.31561218593E+02  0.62594361568E+01 -0.29968416889E+02  0.44220889531E+02  0.47000000000E+01 0.  1.
         -5    1    3    3    0  501 -0.12713097097E+02 -0.71706945900E+02  0.88784901575E+02  0.11492761929E+03  0.47000000000E+01 0.  1.
          5    1    4    4  502    0 -0.30492368796E+02  0.58087931791E+02 -0.13882894614E+02  0.67222147671E+02  0.47000000000E+01 0.  1.
         -5    1    4    4    0  502  0.74766684486E+02  0.73595779518E+01  0.31890486051E+02  0.81751535749E+02  0.47000000000E+01 0.  1.
<mgrwt>
<rscale>  0 0.29839126E+03</rscale>
<asrwt>0</asrwt>
<pdfrwt beam="1">  1       21 0.29611251E-01 0.29839126E+03</pdfrwt>
<pdfrwt beam="2">  1       21 0.17792163E-01 0.29839126E+03</pdfrwt>
<totfact> 0.30604900E+05</totfact>
</mgrwt>
</event>
<event>
 8    1  0.9569852E-006  0.2670275E+03  0.7546771E-02  0.1102993E+00
         21   -1    0    0  504  503  0.00000000000E+00  0.00000000000E+00  0.25711450466E+03  0.25711450466E+03  0.00000000000E+00 0. -1.
         21   -1    0    0  503  504 -0.00000000000E+00 -0.00000000000E+00 -0.69330649030E+02  0.69330649030E+02  0.00000000000E+00 0. -1.
         25    2    1    2    0    0  0.44691938223E+02  0.63132609510E+00  0.76384288147E+02  0.15315604663E+03  0.12499778890E+03 0.  0.
         25    2    1    2    0    0 -0.44691938223E+02 -0.63132609510E+00  0.11139956748E+03  0.17328910706E+03  0.12498593151E+03 0.  0.
          5    1    3    3  501    0  0.63890692566E+02  0.47446884362E+02  0.59954433001E+02  0.99748942193E+02  0.47000000000E+01 0.  1.
         -5    1    3    3    0  501 -0.19198754343E+02 -0.46815558267E+02  0.16429855146E+02  0.53407104437E+02  0.47000000000E+01 0.  1.
          5    1    4    4  502    0  0.23343232262E+02 -0.45178403151E+02  0.47718481646E+02  0.69893762914E+02  0.47000000000E+01 0.  1.
         -5    1    4    4    0  502 -0.68035170485E+02  0.44547077056E+02  0.63681085833E+02  0.10339534414E+03  0.47000000000E+01 0.  1.
<mgrwt>
<rscale>  0 0.26702746E+03</rscale>
<asrwt>0</asrwt>
<pdfrwt beam="1">  1       21 0.39556077E-01 0.26702746E+03</pdfrwt>
<pdfrwt beam="2">  1       21 0.10666254E-01 0.26702746E+03</pdfrwt>
<totfact> 0.43915086E+05</totfact>
</mgrwt>
</event>
<event>
 8    1  0.9569852E-006  0.3374449E+03  0.7546771E-02  0.1067889E+00
         21   -1    0    0  504  503  0.00000000000E+00  0.00000000000E+00  0.89733359886E+02  0.89733359886E+02  0.00000000000E+00 0.  1.
         21   -1    0    0  503  504 -0.00000000000E+00 -0.00000000000E+00 -0.31724274389E+03  0.31724274389E+03  0.00000000000E+00 0.  1.
         25    2    1    2    0    0 -0.12478644159E+02  0.25752681169E+02 -0.24600316659E+03  0.27741818856E+03  0.12499750486E+03 0.  0.
         25    2    1    2    0    0  0.12478644159E+02 -0.25752681169E+02  0.18493782583E+02  0.12955791522E+03  0.12499726499E+03 0.  0.
          5    1    3    3  501    0  0.20574758921E+02 -0.58948004939E+01 -0.22632631635E+03  0.22738460997E+03  0.47000000000E+01 0.  1.
         -5    1    3    3    0  501 -0.33053403080E+02  0.31647481663E+02 -0.19676850237E+02  0.50033578585E+02  0.47000000000E+01 0.  1.
          5    1    4    4  502    0  0.15340276731E+02  0.48393748071E+02  0.21062137120E+02  0.55163235607E+02  0.47000000000E+01 0.  1.
         -5    1    4    4    0  502 -0.28616325722E+01 -0.74146429240E+02 -0.25683545362E+01  0.74394679615E+02  0.47000000000E+01 0.  1.
<mgrwt>
<rscale>  0 0.33744485E+03</rscale>
<asrwt>0</asrwt>
<pdfrwt beam="1">  1       21 0.13805132E-01 0.33744485E+03</pdfrwt>
<pdfrwt beam="2">  1       21 0.48806576E-01 0.33744485E+03</pdfrwt>
<totfact> 0.17579756E+05</totfact>
</mgrwt>
</event>
<event>
 8    1  0.9569852E-006  0.3705697E+03  0.7546771E-02  0.1054475E+00
         21   -1    0    0  504  503  0.00000000000E+00  0.00000000000E+00  0.15131827712E+03  0.15131827712E+03  0.00000000000E+00 0. -1.
         21   -1    0    0  503  504 -0.00000000000E+00 -0.00000000000E+00 -0.22687596145E+03  0.22687596145E+03  0.00000000000E+00 0. -1.
         25    2    1    2    0    0  0.48068194015E+02  0.88315207019E+02  0.56840676647E+02  0.17019396897E+03  0.12499998994E+03 0.  0.
         25    2    1    2    0    0 -0.48068194015E+02 -0.88315207019E+02 -0.13239836098E+03  0.20800026959E+03  0.12499863637E+03 0.  0.
          5    1    3    3  501    0  0.27694044061E+02 -0.27963646572E+02  0.13285769368E+01  0.39658299544E+02  0.47000000000E+01 0. -1.
         -5    1    3    3    0  501  0.20374149954E+02  0.11627885359E+03  0.55512099710E+02  0.13053566943E+03  0.47000000000E+01 0. -1.
          5    1    4    4  502    0  0.33681776101E+02 -0.57261621006E+02 -0.86370947322E+02  0.10906597005E+03  0.47000000000E+01 0. -1.
         -5    1    4    4    0  502 -0.81749970116E+02 -0.31053586013E+02 -0.46027413656E+02  0.98934299543E+02  0.47000000000E+01 0. -1.
<mgrwt>
<rscale>  0 0.37056972E+03</rscale>
<asrwt>0</asrwt>
<pdfrwt beam="1">  1       21 0.23279735E-01 0.37056972E+03</pdfrwt>
<pdfrwt beam="2">  1       21 0.34903994E-01 0.37056972E+03</pdfrwt>
<totfact> 0.13066695E+05</totfact>
</mgrwt>
</event>
<event>
 8    1  0.9569852E-006  0.2806002E+03  0.7546771E-02  0.1095362E+00
         21   -1    0    0  504  503  0.00000000000E+00  0.00000000000E+00  0.16944564276E+04  0.16944564276E+04  0.00000000000E+00 0. -1.
         21   -1    0    0  503  504 -0.00000000000E+00 -0.00000000000E+00 -0.11616775717E+02  0.11616775717E+02  0.00000000000E+00 0. -1.
         25    2    1    2    0    0 -0.62697865031E+02  0.11111203753E+02  0.85616513172E+03  0.86758078400E+03  0.12499281127E+03 0.  0.
         25    2    1    2    0    0  0.62697865031E+02 -0.11111203753E+02  0.82667452012E+03  0.83849241927E+03  0.12499717529E+03 0.  0.
          5    1    3    3  501    0  0.72916518521E+01 -0.33709511817E+02  0.52359733309E+03  0.52475304344E+03  0.47000000000E+01 0.  1.
         -5    1    3    3    0  501 -0.69989516883E+02  0.44820715570E+02  0.33256779863E+03  0.34282774056E+03  0.47000000000E+01 0.  1.
          5    1    4    4  502    0  0.86776889384E+01 -0.11202418065E+02  0.70642237375E+03  0.70658011336E+03  0.47000000000E+01 0.  1.
         -5    1    4    4    0  502  0.54020176092E+02  0.91214311790E-01  0.12025214636E+03  0.13191230591E+03  0.47000000000E+01 0.  1.
<mgrwt>
<rscale>  0 0.28060022E+03</rscale>
<asrwt>0</asrwt>
<pdfrwt beam="1">  1       21 0.26068541E+00 0.28060022E+03</pdfrwt>
<pdfrwt beam="2">  1       21 0.17871976E-02 0.28060022E+03</pdfrwt>
<totfact> 0.80473238E+04</totfact>
</mgrwt>
</event>
<event>
 8    1  0.9569852E-006  0.3579561E+03  0.7546771E-02  0.1059396E+00
         21   -1    0    0  504  503  0.00000000000E+00  0.00000000000E+00  0.64325199853E+02  0.64325199853E+02  0.00000000000E+00 0.  1.
         21   -1    0    0  503  504 -0.00000000000E+00 -0.00000000000E+00 -0.49798749012E+03  0.49798749012E+03  0.00000000000E+00 0.  1.
         25    2    1    2    0    0 -0.12032112097E+03 -0.36534115157E+02 -0.17848123521E+03  0.25158101424E+03  0.12500216670E+03 0.  0.
         25    2    1    2    0    0  0.12032112097E+03  0.36534115157E+02 -0.25518105505E+03  0.31073167573E+03  0.12499955890E+03 0.  0.
          5    1    3    3  501    0 -0.76303367021E+02 -0.56430291213E+02 -0.36935182878E+02  0.10194547228E+03  0.47000000000E+01 0. -1.
         -5    1    3    3    0  501 -0.44017753946E+02  0.19896176056E+02 -0.14154605233E+03  0.14963554195E+03  0.47000000000E+01 0. -1.
          5    1    4    4  502    0  0.53811297254E+02  0.80443547483E+02 -0.15224574827E+03  0.18046517091E+03  0.47000000000E+01 0. -1.
         -5    1    4    4    0  502  0.66509823713E+02 -0.43909432326E+02 -0.10293530678E+03  0.13026650483E+03  0.47000000000E+01 0. -1.
<mgrwt>
<rscale>  0 0.35795611E+03</rscale>
<asrwt>0</asrwt>
<pdfrwt beam="1">  1       21 0.98961849E-02 0.35795611E+03</pdfrwt>
<pdfrwt beam="2">  1       21 0.76613458E-01 0.35795611E+03</pdfrwt>
<totfact> 0.11921762E+05</totfact>
</mgrwt>
</event>
<event>
 8    1  0.9569852E-006  0.2916431E+03  0.7546771E-02  0.1089494E+00
         21   -1    0    0  504  503  0.00000000000E+00  0.00000000000E+00  0.12641003453E+04  0.12641003453E+04  0.00000000000E+00 0. -1.
         21   -1    0    0  503  504 -0.00000000000E+00 -0.00000000000E+00 -0.16821389318E+02  0.16821389318E+02  0.00000000000E+00 0. -1.
         25    2    1    2    0    0 -0.40248872353E+02  0.54339071583E+02  0.76705159898E+03  0.78010689314E+03  0.12500361117E+03 0.  0.
         25    2    1    2    0    0  0.40248872353E+02 -0.54339071583E+02  0.48022735703E+03  0.50081484151E+03  0.12499793840E+03 0.  0.
          5    1    3    3  501    0 -0.60210667245E+02 -0.15506077147E+02  0.23636041558E+03  0.24444651548E+03  0.47000000000E+01 0.  1.
         -5    1    3    3    0  501  0.19961794893E+02  0.69845148729E+02  0.53069118340E+03  0.53566037766E+03  0.47000000000E+01 0.  1.
          5    1    4    4  502    0  0.52431751955E+02  0.25405455780E+02  0.25245162244E+03  0.25913015546E+03  0.47000000000E+01 0.  1.
         -5    1    4    4    0  502 -0.12182879603E+02 -0.79744527363E+02  0.22777573459E+03  0.24168468604E+03  0.47000000000E+01 0.  1.
<mgrwt>
<rscale>  0 0.29164310E+03</rscale>
<asrwt>0</asrwt>
<pdfrwt beam="1">  1       21 0.19447690E+00 0.29164310E+03</pdfrwt>
<pdfrwt beam="2">  1       21 0.25879070E-02 0.29164310E+03</pdfrwt>
<totfact> 0.11237042E+05</totfact>
</mgrwt>
</event>
<event>
 8    1  0.9569852E-006  0.3029491E+03  0.7546771E-02  0.1083776E+00
         21   -1    0    0  504  503  0.00000000000E+00  0.00000000000E+00  0.15296434286E+04  0.15296434286E+04  0.00000000000E+00 0.  1.
         21   -1    0    0  503  504 -0.00000000000E+00 -0.00000000000E+00 -0.14999931154E+02  0.14999931154E+02  0.00000000000E+00 0.  1.
         25    2    1    2    0    0 -0.66476388221E+02  0.16482381101E+02  0.10187338211E+04  0.10286562454E+04  0.12499717490E+03 0.  0.
         25    2    1    2    0    0  0.66476388221E+02 -0.16482381101E+02  0.49590967632E+03  0.51598711439E+03  0.12500206429E+03 0.  0.
          5    1    3    3  501    0 -0.95185277034E+02  0.16293457135E+02  0.50951608590E+03  0.51860818110E+03  0.47000000000E+01 0.  1.
         -5    1    3    3    0  501  0.28708888812E+02  0.18892396586E+00  0.50921773524E+03  0.51004806427E+03  0.47000000000E+01 0.  1.
          5    1    4    4  502    0  0.15478813523E+02 -0.22092436645E+02  0.43646628850E+03  0.43732434236E+03  0.47000000000E+01 0.  1.
         -5    1    4    4    0  502  0.50997574698E+02  0.56100555435E+01  0.59443387814E+02  0.78662772028E+02  0.47000000000E+01 0.  1.
<mgrwt>
<rscale>  0 0.30294915E+03</rscale>
<asrwt>0</asrwt>
<pdfrwt beam="1">  1       21 0.23532963E+00 0.30294915E+03</pdfrwt>
<pdfrwt beam="2">  1       21 0.23076829E-02 0.30294915E+03</pdfrwt>
<totfact> 0.74392248E+04</totfact>
</mgrwt>
</event>
<event>
 8    1  0.9569852E-006  0.3567103E+03  0.7546771E-02  0.1059894E+00
         21   -1    0    0  504  503  0.00000000000E+00  0.00000000000E+00  0.75693034276E+03  0.75693034276E+03  0.00000000000E+00 0.  1.
         21   -1    0    0  503  504 -0.00000000000E+00 -0.00000000000E+00 -0.42025743315E+02  0.42025743315E+02  0.00000000000E+00 0.  1.
         25    2    1    2    0    0 -0.12693639203E+03  0.20011791918E+01  0.37578436794E+03  0.41588527898E+03  0.12501928547E+03 0.  0.
         25    2    1    2    0    0  0.12693639203E+03 -0.20011791918E+01  0.33912023150E+03  0.38307080710E+03  0.12499543791E+03 0.  0.
          5    1    3    3  501    0 -0.70448370321E+02  0.39239842773E+02  0.31371980733E+03  0.32395207308E+03  0.47000000000E+01 0.  1.
         -5    1    3    3    0  501 -0.56488021708E+02 -0.37238663582E+02  0.62064560609E+02  0.91933205891E+02  0.47000000000E+01 0.  1.
          5    1    4    4  502    0  0.96901060949E+02  0.55402497002E+02  0.18990307954E+03  0.22032821405E+03  0.47000000000E+01 0.  1.
         -5    1    4    4    0  502  0.30035331080E+02 -0.57403676193E+02  0.14921715196E+03  0.16274259305E+03  0.47000000000E+01 0.  1.
<mgrwt>
<rscale>  0 0.35671030E+03</rscale>
<asrwt>0</asrwt>
<pdfrwt beam="1">  1       21 0.11645081E+00 0.35671030E+03</pdfrwt>
<pdfrwt beam="2">  1       21 0.64654995E-02 0.35671030E+03</pdfrwt>
<totfact> 0.93180161E+04</totfact>
</mgrwt>
</event>
<event>
 8    1  0.9569852E-006  0.3691568E+03  0.7546771E-02  0.1055016E+00
         21   -1    0    0  504  503  0.00000000000E+00  0.00000000000E+00  0.92244045093E+02  0.92244045093E+02  0.00000000000E+00 0.  1.
         21   -1    0    0  503  504 -0.00000000000E+00 -0.00000000000E+00 -0.36933755751E+03  0.36933755751E+03  0.00000000000E+00 0.  1.
         25    2    1    2    0    0 -0.98154472273E+02  0.88305926816E+02 -0.17831503485E+03  0.25466820890E+03  0.12500963095E+03 0.  0.
         25    2    1    2    0    0  0.98154472273E+02 -0.88305926816E+02 -0.98778477570E+02  0.20691339371E+03  0.12499491080E+03 0.  0.
          5    1    3    3  501    0 -0.12484253689E+03  0.81775922221E+02 -0.12593116945E+03  0.19532974661E+03  0.47000000000E+01 0.  1.
         -5    1    3    3    0  501  0.26688064612E+02  0.65300045955E+01 -0.52383865393E+02  0.59338462284E+02  0.47000000000E+01 0.  1.
          5    1    4    4  502    0  0.12019233798E+03 -0.39063179141E+02 -0.79752618387E+02  0.14951488291E+03  0.47000000000E+01 0. -1.
         -5    1    4    4    0  502 -0.22037865706E+02 -0.49242747675E+02 -0.19025859183E+02  0.57398510792E+02  0.47000000000E+01 0. -1.
<mgrwt>
<rscale>  0 0.36915682E+03</rscale>
<asrwt>0</asrwt>
<pdfrwt beam="1">  1       21 0.14191391E-01 0.36915682E+03</pdfrwt>
<pdfrwt beam="2">  1       21 0.56821165E-01 0.36915682E+03</pdfrwt>
<totfact> 0.12001933E+05</totfact>
</mgrwt>
</event>
<event>
 8    1  0.9569852E-006  0.2565544E+03  0.7546771E-02  0.1109231E+00
         21   -1    0    0  504  503  0.00000000000E+00  0.00000000000E+00  0.14352457527E+02  0.14352457527E+02  0.00000000000E+00 0. -1.
         21   -1    0    0  503  504 -0.00000000000E+00 -0.00000000000E+00 -0.11464967694E+04  0.11464967694E+04  0.00000000000E+00 0. -1.
         25    2    1    2    0    0 -0.25602810796E+02 -0.12463876272E+02 -0.54689488177E+03  0.56172010990E+03  0.12499847209E+03 0.  0.
         25    2    1    2    0    0  0.25602810796E+02  0.12463876272E+02 -0.58524943011E+03  0.59912911704E+03  0.12501180466E+03 0.  0.
          5    1    3    3  501    0 -0.74439800860E+02 -0.16970752502E+02 -0.38367667090E+03  0.39122777021E+03  0.47000000000E+01 0.  1.
         -5    1    3    3    0  501  0.48836990064E+02  0.45068762297E+01 -0.16321821088E+03  0.17049233969E+03  0.47000000000E+01 0.  1.
          5    1    4    4  502    0  0.18255851567E+02 -0.42692575520E+02 -0.45535164019E+03  0.45773697507E+03  0.47000000000E+01 0. -1.
         -5    1    4    4    0  502  0.73469592296E+01  0.55156451792E+02 -0.12989778992E+03  0.14139214196E+03  0.47000000000E+01 0. -1.
<mgrwt>
<rscale>  0 0.25655445E+03</rscale>
<asrwt>0</asrwt>
<pdfrwt beam="1">  1       21 0.22080706E-02 0.25655445E+03</pdfrwt>
<pdfrwt beam="2">  1       21 0.17638410E+00 0.25655445E+03</pdfrwt>
<totfact> 0.19643984E+05</totfact>
</mgrwt>
</event>
<event>
 8    1  0.9569852E-006  0.2564931E+03  0.7546771E-02  0.1109269E+00
         21   -1    0    0  504  503  0.00000000000E+00  0.00000000000E+00  0.25520733618E+03  0.25520733618E+03  0.00000000000E+00 0. -1.
         21   -1    0    0  503  504 -0.00000000000E+00 -0.00000000000E+00 -0.64446335454E+02  0.64446335454E+02  0.00000000000E+00 0. -1.
         25    2    1    2    0    0  0.88506658269E+01 -0.16772028569E+01  0.12931234501E+03  0.18007503120E+03  0.12499674793E+03 0.  0.
         25    2    1    2    0    0 -0.88506658269E+01  0.16772028569E+01  0.61448655715E+02  0.13957864044E+03  0.12500044913E+03 0.  0.
          5    1    3    3  501    0 -0.96099950487E+01 -0.45007456118E+02  0.43698251877E+01  0.46467284009E+02  0.47000000000E+01 0. -1.
         -5    1    3    3    0  501  0.18460660876E+02  0.43330253261E+02  0.12494251983E+03  0.13360774719E+03  0.47000000000E+01 0. -1.
          5    1    4    4  502    0  0.10785771705E+02  0.59247097453E+02  0.47883043137E+02  0.77080654174E+02  0.47000000000E+01 0. -1.
         -5    1    4    4    0  502 -0.19636437532E+02 -0.57569894596E+02  0.13565612578E+02  0.62497986266E+02  0.47000000000E+01 0. -1.
<mgrwt>
<rscale>  0 0.25649310E+03</rscale>
<asrwt>0</asrwt>
<pdfrwt beam="1">  1       21 0.39262667E-01 0.25649310E+03</pdfrwt>
<pdfrwt beam="2">  1       21 0.99148210E-02 0.25649310E+03</pdfrwt>
<totfact> 0.50880100E+05</totfact>
</mgrwt>
</event>
<event>
 8    1  0.9569852E-006  0.3467790E+03  0.7546771E-02  0.1063945E+00
         21   -1    0    0  504  503  0.00000000000E+00  0.00000000000E+00  0.15231406125E+03  0.15231406125E+03  0.00000000000E+00 0.  1.
         21   -1    0    0  503  504 -0.00000000000E+00 -0.00000000000E+00 -0.19738115503E+03  0.19738115503E+03  0.00000000000E+00 0.  1.
         25    2    1    2    0    0 -0.68364532204E+02  0.88162877447E+02 -0.67551653396E+02  0.18065120119E+03  0.12500091357E+03 0.  0.
         25    2    1    2    0    0  0.68364532204E+02 -0.88162877447E+02  0.22484559615E+02  0.16904401509E+03  0.12499568550E+03 0.  0.
          5    1    3    3  501    0 -0.31569262183E+02 -0.22968372909E+02 -0.47706627732E+02  0.61823755939E+02  0.47000000000E+01 0. -1.
         -5    1    3    3    0  501 -0.36795270021E+02  0.11113125036E+03 -0.19845025665E+02  0.11882744525E+03  0.47000000000E+01 0. -1.
          5    1    4    4  502    0 -0.18451443335E+02 -0.75584753829E+02 -0.15701528039E+01  0.77961953236E+02  0.47000000000E+01 0.  1.
         -5    1    4    4    0  502  0.86815975539E+02 -0.12578123618E+02  0.24054712419E+02  0.91082061857E+02  0.47000000000E+01 0.  1.
<mgrwt>
<rscale>  0 0.34677904E+03</rscale>
<asrwt>0</asrwt>
<pdfrwt beam="1">  1       21 0.23432933E-01 0.34677904E+03</pdfrwt>
<pdfrwt beam="2">  1       21 0.30366332E-01 0.34677904E+03</pdfrwt>
<totfact> 0.17122196E+05</totfact>
</mgrwt>
</event>
<event>
 8    1  0.9569852E-006  0.2760856E+03  0.7546771E-02  0.1097846E+00
         21   -1    0    0  504  503  0.00000000000E+00  0.00000000000E+00  0.69525116793E+02  0.69525116793E+02  0.00000000000E+00 0. -1.
         21   -1    0    0  503  504 -0.00000000000E+00 -0.00000000000E+00 -0.27408538306E+03  0.27408538306E+03  0.00000000000E+00 0. -1.
         25    2    1    2    0    0  0.60105292567E+01 -0.55361272990E+02 -0.12489436954E+03  0.18526990765E+03  0.12500135250E+03 0.  0.
         25    2    1    2    0    0 -0.60105292567E+01  0.55361272990E+02 -0.79665896726E+02  0.15834059221E+03  0.12499636407E+03 0.  0.
          5    1    3    3  501    0 -0.51116743125E+02 -0.85878085383E+01 -0.88857083397E+02  0.10297739147E+03  0.47000000000E+01 0. -1.
         -5    1    3    3    0  501  0.57127272381E+02 -0.46773464452E+02 -0.36037286144E+02  0.82292516180E+02  0.47000000000E+01 0. -1.
          5    1    4    4  502    0  0.42049592913E+02  0.28701866246E+01  0.10192276663E+02  0.43616266908E+02  0.47000000000E+01 0.  1.
         -5    1    4    4    0  502 -0.48060122169E+02  0.52491086366E+02 -0.89858173389E+02  0.11472432530E+03  0.47000000000E+01 0.  1.
<mgrwt>
<rscale>  0 0.27608563E+03</rscale>
<asrwt>0</asrwt>
<pdfrwt beam="1">  1       21 0.10696172E-01 0.27608563E+03</pdfrwt>
<pdfrwt beam="2">  1       21 0.42166981E-01 0.27608563E+03</pdfrwt>
<totfact> 0.38281283E+05</totfact>
</mgrwt>
</event>
<event>
 8    1  0.9569852E-006  0.3333556E+03  0.7546771E-02  0.1069662E+00
         21   -1    0    0  504  503  0.00000000000E+00  0.00000000000E+00  0.24882192601E+02  0.24882192601E+02  0.00000000000E+00 0.  1.
         21   -1    0    0  503  504 -0.00000000000E+00 -0.00000000000E+00 -0.11165207144E+04  0.11165207144E+04  0.00000000000E+00 0.  1.
         25    2    1    2    0    0  0.64433956480E+02  0.18954559828E+01 -0.85206798231E+03  0.86359789452E+03  0.12500459768E+03 0.  0.
         25    2    1    2    0    0 -0.64433956480E+02 -0.18954559828E+01 -0.23957053950E+03  0.27780501249E+03  0.12500501617E+03 0.  0.
          5    1    3    3  501    0 -0.17576229004E+01 -0.31772830203E+02 -0.60318590588E+02  0.68359522730E+02  0.47000000000E+01 0. -1.
         -5    1    3    3    0  501  0.66191579381E+02  0.33668286186E+02 -0.79174939172E+03  0.79523837179E+03  0.47000000000E+01 0. -1.
          5    1    4    4  502    0 -0.67475693053E+02  0.45334694618E+02 -0.92491640236E+02  0.12322742066E+03  0.47000000000E+01 0. -1.
         -5    1    4    4    0  502  0.30417365730E+01 -0.47230150601E+02 -0.14707889926E+03  0.15457759183E+03  0.47000000000E+01 0. -1.
<mgrwt>
<rscale>  0 0.33335557E+03</rscale>
<asrwt>0</asrwt>
<pdfrwt beam="1">  1       21 0.38280313E-02 0.33335557E+03</pdfrwt>
<pdfrwt beam="2">  1       21 0.17177234E+00 0.33335557E+03</pdfrwt>
<totfact> 0.82342788E+04</totfact>
</mgrwt>
</event>
<event>
 8    1  0.9569852E-006  0.5022141E+03  0.7546771E-02  0.1013203E+00
         21   -1    0    0  504  503  0.00000000000E+00  0.00000000000E+00  0.55819249640E+02  0.55819249640E+02  0.00000000000E+00 0.  1.
         21   -1    0    0  503  504 -0.00000000000E+00 -0.00000000000E+00 -0.11296235344E+04  0.11296235344E+04  0.00000000000E+00 0.  1.
         25    2    1    2    0    0  0.14859859763E+03  0.57629022988E+02 -0.88721176358E+03  0.91003994209E+03  0.12500134095E+03 0.  0.
         25    2    1    2    0    0 -0.14859859763E+03 -0.57629022988E+02 -0.18659252114E+03  0.27540284192E+03  0.12500923520E+03 0.  0.
          5    1    3    3  501    0  0.39738681686E+02  0.71447469223E+02 -0.53106473214E+03  0.53734136580E+03  0.47000000000E+01 0.  1.
         -5    1    3    3    0  501  0.10885991594E+03 -0.13818446235E+02 -0.35614703145E+03  0.37269857628E+03  0.47000000000E+01 0.  1.
          5    1    4    4  502    0 -0.17088866040E+03 -0.46521457428E+02 -0.16130158507E+03  0.23959856344E+03  0.47000000000E+01 0.  1.
         -5    1    4    4    0  502  0.22290062765E+02 -0.11107565560E+02 -0.25290936068E+02  0.35804278486E+02  0.47000000000E+01 0.  1.
<mgrwt>
<rscale>  0 0.50221405E+03</rscale>
<asrwt>0</asrwt>
<pdfrwt beam="1">  1       21 0.85875769E-02 0.50221405E+03</pdfrwt>
<pdfrwt beam="2">  1       21 0.17378823E+00 0.50221405E+03</pdfrwt>
<totfact> 0.18612011E+04</totfact>
</mgrwt>
</event>
<event>
 8    1  0.9569852E-006  0.3359602E+03  0.7546771E-02  0.1068530E+00
         21   -1    0    0  504  503  0.00000000000E+00  0.00000000000E+00  0.44828268159E+02  0.44828268159E+02  0.00000000000E+00 0. -1.
         21   -1    0    0  503  504 -0.00000000000E+00 -0.00000000000E+00 -0.62945348499E+03  0.62945348499E+03  0.00000000000E+00 0. -1.
         25    2    1    2    0    0  0.76117711354E+02  0.80354651927E+02 -0.32933564797E+03  0.36923937865E+03  0.12499989461E+03 0.  0.
         25    2    1    2    0    0 -0.76117711354E+02 -0.80354651927E+02 -0.25528956886E+03  0.30504237450E+03  0.12500924048E+03 0.  0.
          5    1    3    3  501    0  0.20614158914E+01 -0.14891714679E+02 -0.16268873960E+03  0.16344946801E+03  0.47000000000E+01 0. -1.
         -5    1    3    3    0  501  0.74056295462E+02  0.95246366607E+02 -0.16664690838E+03  0.20578991064E+03  0.47000000000E+01 0. -1.
          5    1    4    4  502    0  0.15585579116E+02  0.20938857785E+02 -0.21207664369E+02  0.33958814315E+02  0.47000000000E+01 0. -1.
         -5    1    4    4    0  502 -0.91703290470E+02 -0.10129350971E+03 -0.23408190449E+03  0.27108356018E+03  0.47000000000E+01 0. -1.
<mgrwt>
<rscale>  0 0.33596017E+03</rscale>
<asrwt>0</asrwt>
<pdfrwt beam="1">  1       21 0.68966570E-02 0.33596017E+03</pdfrwt>
<pdfrwt beam="2">  1       21 0.96838993E-01 0.33596017E+03</pdfrwt>
<totfact> 0.13137785E+05</totfact>
</mgrwt>
</event>
<event>
 8    1  0.9569852E-006  0.3392804E+03  0.7546771E-02  0.1067103E+00
         21   -1    0    0  504  503  0.00000000000E+00  0.00000000000E+00  0.82361650855E+03  0.82361650855E+03  0.00000000000E+00 0. -1.
         21   -1    0    0  503  504 -0.00000000000E+00 -0.00000000000E+00 -0.34940773390E+02  0.34940773390E+02  0.00000000000E+00 0. -1.
         25    2    1    2    0    0 -0.47648803634E+02 -0.88060033821E+02  0.53572483331E+03  0.55915905687E+03  0.12503109938E+03 0.  0.
         25    2    1    2    0    0  0.47648803634E+02  0.88060033821E+02  0.25295090185E+03  0.29939822507E+03  0.12502063983E+03 0.  0.
          5    1    3    3  501    0 -0.68010532429E+02 -0.20722254988E+02  0.39914006214E+03  0.40545002600E+03  0.47000000000E+01 0. -1.
         -5    1    3    3    0  501  0.20361728795E+02 -0.67337778833E+02  0.13658477117E+03  0.15370903088E+03  0.47000000000E+01 0. -1.
          5    1    4    4  502    0  0.16195921576E+02  0.90793508665E+02  0.25096636354E+03  0.26741722967E+03  0.47000000000E+01 0. -1.
         -5    1    4    4    0  502  0.31452882058E+02 -0.27334748440E+01  0.19845383025E+01  0.31980995400E+02  0.47000000000E+01 0. -1.
<mgrwt>
<rscale>  0 0.33928040E+03</rscale>
<asrwt>0</asrwt>
<pdfrwt beam="1">  1       21 0.12671022E+00 0.33928040E+03</pdfrwt>
<pdfrwt beam="2">  1       21 0.53755042E-02 0.33928040E+03</pdfrwt>
<totfact> 0.10409075E+05</totfact>
</mgrwt>
</event>
<event>
 8    1  0.9569852E-006  0.2753557E+03  0.7546771E-02  0.1098253E+00
         21   -1    0    0  504  503  0.00000000000E+00  0.00000000000E+00  0.17640770231E+03  0.17640770231E+03  0.00000000000E+00 0.  1.
         21   -1    0    0  503  504 -0.00000000000E+00 -0.00000000000E+00 -0.10745099864E+03  0.10745099864E+03  0.00000000000E+00 0.  1.
         25    2    1    2    0    0  0.36783084953E+01 -0.57145708064E+02  0.41850244417E+02  0.14371890990E+03  0.12499808080E+03 0.  0.
         25    2    1    2    0    0 -0.36783084953E+01  0.57145708064E+02  0.27106459258E+02  0.14013979104E+03  0.12500095598E+03 0.  0.
          5    1    3    3  501    0 -0.21329083729E+02  0.28246694891E+02 -0.14230022428E+02  0.38436819890E+02  0.47000000000E+01 0. -1.
         -5    1    3    3    0  501  0.25007392224E+02 -0.85392402955E+02  0.56080266845E+02  0.10528209001E+03  0.47000000000E+01 0. -1.
          5    1    4    4  502    0  0.36623064406E+02  0.66828779494E+02  0.51236978926E+02  0.91949185013E+02  0.47000000000E+01 0. -1.
         -5    1    4    4    0  502 -0.40301372902E+02 -0.96830714301E+01 -0.24130519668E+02  0.48190606030E+02  0.47000000000E+01 0. -1.
<mgrwt>
<rscale>  0 0.27535565E+03</rscale>
<asrwt>0</asrwt>
<pdfrwt beam="1">  1       21 0.27139646E-01 0.27535565E+03</pdfrwt>
<pdfrwt beam="2">  1       21 0.16530923E-01 0.27535565E+03</pdfrwt>
<totfact> 0.41781830E+05</totfact>
</mgrwt>
</event>
<event>
 8    1  0.9569852E-006  0.4121930E+03  0.7546771E-02  0.1039638E+00
         21   -1    0    0  504  503  0.00000000000E+00  0.00000000000E+00  0.17913096054E+03  0.17913096054E+03  0.00000000000E+00 0. -1.
         21   -1    0    0  503  504 -0.00000000000E+00 -0.00000000000E+00 -0.23712135101E+03  0.23712135101E+03  0.00000000000E+00 0. -1.
         25    2    1    2    0    0 -0.15472768744E+03 -0.53928552368E+02 -0.27700980101E+02  0.20794398278E+03  0.12499763859E+03 0.  0.
         25    2    1    2    0    0  0.15472768744E+03  0.53928552368E+02 -0.30289410367E+02  0.20830832877E+03  0.12500386168E+03 0.  0.
          5    1    3    3  501    0 -0.55826315104E+02  0.39778555391E+02  0.59934805379E+00  0.68712154276E+02  0.47000000000E+01 0. -1.
         -5    1    3    3    0  501 -0.98901372332E+02 -0.93707107759E+02 -0.28300328155E+02  0.13923182850E+03  0.47000000000E+01 0. -1.
          5    1    4    4  502    0  0.21362899390E+02  0.21170214260E+01  0.42400869044E+02  0.47757501461E+02  0.47000000000E+01 0. -1.
         -5    1    4    4    0  502  0.13336478805E+03  0.51811530942E+02 -0.72690279411E+02  0.16055082731E+03  0.47000000000E+01 0. -1.
<mgrwt>
<rscale>  0 0.41219304E+03</rscale>
<asrwt>0</asrwt>
<pdfrwt beam="1">  1       21 0.27558609E-01 0.41219304E+03</pdfrwt>
<pdfrwt beam="2">  1       21 0.36480208E-01 0.41219304E+03</pdfrwt>
<totfact> 0.85354028E+04</totfact>
</mgrwt>
</event>
<event>
 8    1  0.9569852E-006  0.2573996E+03  0.7546771E-02  0.1108716E+00
         21   -1    0    0  504  503  0.00000000000E+00  0.00000000000E+00  0.14133538825E+02  0.14133538825E+02  0.00000000000E+00 0. -1.
         21   -1    0    0  503  504 -0.00000000000E+00 -0.00000000000E+00 -0.11719387637E+04  0.11719387637E+04  0.00000000000E+00 0. -1.
         25    2    1    2    0    0  0.19864179746E+02 -0.22500905879E+02 -0.60706248004E+03  0.62052466366E+03  0.12500050854E+03 0.  0.
         25    2    1    2    0    0 -0.19864179746E+02  0.22500905879E+02 -0.55074274486E+03  0.56554763889E+03  0.12500273772E+03 0.  0.
          5    1    3    3  501    0  0.35054039580E+02  0.44793181196E+02 -0.33412876598E+03  0.33896804721E+03  0.47000000000E+01 0. -1.
         -5    1    3    3    0  501 -0.15189859834E+02 -0.67294087074E+02 -0.27293371406E+03  0.28155661645E+03  0.47000000000E+01 0. -1.
          5    1    4    4  502    0 -0.16435296231E+02  0.66413895295E+02 -0.45394287124E+03  0.45909383006E+03  0.47000000000E+01 0. -1.
         -5    1    4    4    0  502 -0.34288835151E+01 -0.43912989417E+02 -0.96799873621E+02  0.10645380883E+03  0.47000000000E+01 0. -1.
<mgrwt>
<rscale>  0 0.25739963E+03</rscale>
<asrwt>0</asrwt>
<pdfrwt beam="1">  1       21 0.21743907E-02 0.25739963E+03</pdfrwt>
<pdfrwt beam="2">  1       21 0.18029826E+00 0.25739963E+03</pdfrwt>
<totfact> 0.18920612E+05</totfact>
</mgrwt>
</event>
<event>
 8    1  0.9569852E-006  0.4223174E+03  0.7546771E-02  0.1036315E+00
         21   -1    0    0  504  503  0.00000000000E+00  0.00000000000E+00  0.10022918480E+03  0.10022918480E+03  0.00000000000E+00 0. -1.
         21   -1    0    0  503  504 -0.00000000000E+00 -0.00000000000E+00 -0.44486049804E+03  0.44486049804E+03  0.00000000000E+00 0. -1.
         25    2    1    2    0    0  0.54633530495E+02  0.27582066714E+02 -0.37728511375E+03  0.40213741847E+03  0.12499941288E+03 0.  0.
         25    2    1    2    0    0 -0.54633530495E+02 -0.27582066714E+02  0.32653800507E+02  0.14295226437E+03  0.12499394442E+03 0.  0.
          5    1    3    3  501    0  0.12127772947E+02  0.58514055446E+02 -0.78724075465E+02  0.98947196115E+02  0.47000000000E+01 0.  1.
         -5    1    3    3    0  501  0.42505757548E+02 -0.30931988731E+02 -0.29856103828E+03  0.30319022236E+03  0.47000000000E+01 0.  1.
          5    1    4    4  502    0 -0.19848065664E+02  0.45473514494E+02  0.36555451415E+02  0.61807582538E+02  0.47000000000E+01 0.  1.
         -5    1    4    4    0  502 -0.34785464831E+02 -0.73055581209E+02 -0.39016509087E+01  0.81144681829E+02  0.47000000000E+01 0.  1.
<mgrwt>
<rscale>  0 0.42231744E+03</rscale>
<asrwt>0</asrwt>
<pdfrwt beam="1">  1       21 0.15419875E-01 0.42231744E+03</pdfrwt>
<pdfrwt beam="2">  1       21 0.68440076E-01 0.42231744E+03</pdfrwt>
<totfact> 0.67579223E+04</totfact>
</mgrwt>
</event>
<event>
 8    1  0.9569852E-006  0.3532497E+03  0.7546771E-02  0.1061289E+00
         21   -1    0    0  504  503  0.00000000000E+00  0.00000000000E+00  0.14028627811E+04  0.14028627811E+04  0.00000000000E+00 0.  1.
         21   -1    0    0  503  504 -0.00000000000E+00 -0.00000000000E+00 -0.22237630454E+02  0.22237630454E+02  0.00000000000E+00 0.  1.
         25    2    1    2    0    0  0.56783130220E+02  0.87935105731E+02  0.41629248287E+03  0.44708202007E+03  0.12500397865E+03 0.  0.
         25    2    1    2    0    0 -0.56783130220E+02 -0.87935105731E+02  0.96433266779E+03  0.97801839150E+03  0.12500229296E+03 0.  0.
          5    1    3    3  501    0 -0.20778280444E+02  0.49186212159E+02  0.60417471225E+02  0.80767451575E+02  0.47000000000E+01 0.  1.
         -5    1    3    3    0  501  0.77561410664E+02  0.38748893572E+02  0.35587501164E+03  0.36631456849E+03  0.47000000000E+01 0.  1.
          5    1    4    4  502    0 -0.59433389461E+02 -0.11404328680E+03  0.88544809208E+03  0.89475058693E+03  0.47000000000E+01 0.  1.
         -5    1    4    4    0  502  0.26502592407E+01  0.26108181064E+02  0.78884575710E+02  0.83267804568E+02  0.47000000000E+01 0.  1.
<mgrwt>
<rscale>  0 0.35324974E+03</rscale>
<asrwt>0</asrwt>
<pdfrwt beam="1">  1       21 0.21582497E+00 0.35324974E+03</pdfrwt>
<pdfrwt beam="2">  1       21 0.34211750E-02 0.35324974E+03</pdfrwt>
<totfact> 0.49990641E+04</totfact>
</mgrwt>
</event>
<event>
 8    1  0.9569852E-006  0.3315876E+03  0.7546771E-02  0.1070437E+00
         21   -1    0    0  504  503  0.00000000000E+00  0.00000000000E+00  0.42583683657E+03  0.42583683657E+03  0.00000000000E+00 0. -1.
         21   -1    0    0  503  504 -0.00000000000E+00 -0.00000000000E+00 -0.64549579359E+02  0.64549579359E+02  0.00000000000E+00 0. -1.
         25    2    1    2    0    0  0.87185492337E+02  0.65064583909E+02  0.17271750698E+03  0.23935361744E+03  0.12499642719E+03 0.  0.
         25    2    1    2    0    0 -0.87185492337E+02 -0.65064583909E+02  0.18856975023E+03  0.25103279849E+03  0.12499682021E+03 0.  0.
          5    1    3    3  501    0  0.94373330354E+02  0.13316416986E+02  0.54190327895E+02  0.10973756914E+03  0.47000000000E+01 0.  1.
         -5    1    3    3    0  501 -0.71878380167E+01  0.51748166923E+02  0.11852717908E+03  0.12961604830E+03  0.47000000000E+01 0.  1.
          5    1    4    4  502    0 -0.61615935333E+02 -0.85146360041E+02  0.66134443111E+02  0.12426697341E+03  0.47000000000E+01 0. -1.
         -5    1    4    4    0  502 -0.25569557004E+02  0.20081776132E+02  0.12243530712E+03  0.12676582508E+03  0.47000000000E+01 0. -1.
<mgrwt>
<rscale>  0 0.33158763E+03</rscale>
<asrwt>0</asrwt>
<pdfrwt beam="1">  1       21 0.65513358E-01 0.33158763E+03</pdfrwt>
<pdfrwt beam="2">  1       21 0.99307048E-02 0.33158763E+03</pdfrwt>
<totfact> 0.16930669E+05</totfact>
</mgrwt>
</event>
<event>
 8    1  0.9569852E-006  0.2922537E+03  0.7546771E-02  0.1089178E+00
         21   -1    0    0  504  503  0.00000000000E+00  0.00000000000E+00  0.23891743877E+03  0.23891743877E+03  0.00000000000E+00 0.  1.
         21   -1    0    0  503  504 -0.00000000000E+00 -0.00000000000E+00 -0.89374177378E+02  0.89374177378E+02  0.00000000000E+00 0.  1.
         25    2    1    2    0    0 -0.34575631808E+02  0.10565591858E+02  0.81587457782E-01  0.13012362562E+03  0.12500018097E+03 0.  0.
         25    2    1    2    0    0  0.34575631808E+02 -0.10565591858E+02  0.14946167394E+03  0.19816799053E+03  0.12499861778E+03 0.  0.
          5    1    3    3  501    0  0.65853356385E+01 -0.33173586388E+02 -0.43839457450E+02  0.55568349884E+02  0.47000000000E+01 0. -1.
         -5    1    3    3    0  501 -0.41160967447E+02  0.43739178246E+02  0.43921044907E+02  0.74555275739E+02  0.47000000000E+01 0. -1.
          5    1    4    4  502    0  0.16814091158E+00  0.12353712083E+02 -0.19833384143E+02  0.23834756138E+02  0.47000000000E+01 0.  1.
         -5    1    4    4    0  502  0.34407490897E+02 -0.22919303942E+02  0.16929505808E+03  0.17433323439E+03  0.47000000000E+01 0.  1.
<mgrwt>
<rscale>  0 0.29225365E+03</rscale>
<asrwt>0</asrwt>
<pdfrwt beam="1">  1       21 0.36756529E-01 0.29225365E+03</pdfrwt>
<pdfrwt beam="2">  1       21 0.13749874E-01 0.29225365E+03</pdfrwt>
<totfact> 0.32057110E+05</totfact>
</mgrwt>
</event>
<event>
 8    1  0.9569852E-006  0.3281557E+03  0.7546771E-02  0.1071956E+00
         21   -1    0    0  504  503  0.00000000000E+00  0.00000000000E+00  0.12324632788E+03  0.12324632788E+03  0.00000000000E+00 0.  1.
         21   -1    0    0  503  504 -0.00000000000E+00 -0.00000000000E+00 -0.21843689391E+03  0.21843689391E+03  0.00000000000E+00 0.  1.
         25    2    1    2    0    0 -0.15485663670E+02  0.42953882542E+02  0.52341320053E+02  0.14301188976E+03  0.12501177953E+03 0.  0.
         25    2    1    2    0    0  0.15485663670E+02 -0.42953882542E+02 -0.14753188608E+03  0.19867133203E+03  0.12497919409E+03 0.  0.
          5    1    3    3  501    0 -0.38659167988E+02  0.43044506358E+02  0.84854787552E+02  0.10280946341E+03  0.47000000000E+01 0.  1.
         -5    1    3    3    0  501  0.23173504318E+02 -0.90623816043E-01 -0.32513467499E+02  0.40202426343E+02  0.47000000000E+01 0.  1.
          5    1    4    4  502    0  0.45042455768E+02  0.29919215094E+02 -0.60680310394E+02  0.81413588073E+02  0.47000000000E+01 0. -1.
         -5    1    4    4    0  502 -0.29556792098E+02 -0.72873097637E+02 -0.86851575688E+02  0.11725774396E+03  0.47000000000E+01 0. -1.
<mgrwt>
<rscale>  0 0.32815573E+03</rscale>
<asrwt>0</asrwt>
<pdfrwt beam="1">  1       21 0.18960974E-01 0.32815573E+03</pdfrwt>
<pdfrwt beam="2">  1       21 0.33605676E-01 0.32815573E+03</pdfrwt>
<totfact> 0.21014373E+05</totfact>
</mgrwt>
</event>
<event>
 8    1  0.9569852E-006  0.3919001E+03  0.7546771E-02  0.1046621E+00
         21   -1    0    0  504  503  0.00000000000E+00  0.00000000000E+00  0.13295475716E+03  0.13295475716E+03  0.00000000000E+00 0. -1.
         21   -1    0    0  503  504 -0.00000000000E+00 -0.00000000000E+00 -0.28879318042E+03  0.28879318042E+03  0.00000000000E+00 0. -1.
         25    2    1    2    0    0 -0.94565969963E+02 -0.10572877389E+03 -0.13336377259E+03  0.23135069292E+03  0.12496379865E+03 0.  0.
         25    2    1    2    0    0  0.94565969963E+02  0.10572877389E+03 -0.22474650668E+02  0.19039724465E+03  0.12499881817E+03 0.  0.
          5    1    3    3  501    0 -0.21779232963E+02  0.16958119912E+02  0.93412140202E+01  0.29517132293E+02  0.47000000000E+01 0.  1.
         -5    1    3    3    0  501 -0.72786737000E+02 -0.12268689380E+03 -0.14270498661E+03  0.20183356063E+03  0.47000000000E+01 0.  1.
          5    1    4    4  502    0 -0.21292577956E+02  0.50417220073E+02 -0.28305529490E+02  0.61794522052E+02  0.47000000000E+01 0.  1.
         -5    1    4    4    0  502  0.11585854792E+03  0.55311553813E+02  0.58308788225E+01  0.12860272260E+03  0.47000000000E+01 0.  1.
<mgrwt>
<rscale>  0 0.39190013E+03</rscale>
<asrwt>0</asrwt>
<pdfrwt beam="1">  1       21 0.20454578E-01 0.39190013E+03</pdfrwt>
<pdfrwt beam="2">  1       21 0.44429720E-01 0.39190013E+03</pdfrwt>
<totfact> 0.10162848E+05</totfact>
</mgrwt>
</event>
<event>
 8    1  0.9569852E-006  0.3216417E+03  0.7546771E-02  0.1074896E+00
         21   -1    0    0  504  503  0.00000000000E+00  0.00000000000E+00  0.16713805709E+03  0.16713805709E+03  0.00000000000E+00 0. -1.
         21   -1    0    0  503  504 -0.00000000000E+00 -0.00000000000E+00 -0.15474240082E+03  0.15474240082E+03  0.00000000000E+00 0. -1.
         25    2    1    2    0    0 -0.11750576213E+02  0.46944293333E+02 -0.82728649727E+02  0.15751449911E+03  0.12499978090E+03 0.  0.
         25    2    1    2    0    0  0.11750576213E+02 -0.46944293333E+02  0.95124306002E+02  0.16436595880E+03  0.12500276838E+03 0.  0.
          5    1    3    3  501    0 -0.66193613134E+02  0.43298804782E+02 -0.47107890817E+02  0.92182559589E+02  0.47000000000E+01 0. -1.
         -5    1    3    3    0  501  0.54443036920E+02  0.36454885514E+01 -0.35620758910E+02  0.65331939518E+02  0.47000000000E+01 0. -1.
          5    1    4    4  502    0 -0.19594149468E+02  0.15525437785E+02 -0.18102973887E+02  0.31221428144E+02  0.47000000000E+01 0. -1.
         -5    1    4    4    0  502  0.31344725681E+02 -0.62469731118E+02  0.11322727989E+03  0.13314453066E+03  0.47000000000E+01 0. -1.
<mgrwt>
<rscale>  0 0.32164169E+03</rscale>
<asrwt>0</asrwt>
<pdfrwt beam="1">  1       21 0.25713547E-01 0.32164169E+03</pdfrwt>
<pdfrwt beam="2">  1       21 0.23806523E-01 0.32164169E+03</pdfrwt>
<totfact> 0.23119332E+05</totfact>
</mgrwt>
</event>
<event>
 8    1  0.9569852E-006  0.2649297E+03  0.7546771E-02  0.1104217E+00
         21   -1    0    0  504  503  0.00000000000E+00  0.00000000000E+00  0.36930305076E+02  0.36930305076E+02  0.00000000000E+00 0. -1.
         21   -1    0    0  503  504 -0.00000000000E+00 -0.00000000000E+00 -0.47513666431E+03  0.47513666431E+03  0.00000000000E+00 0. -1.
         25    2    1    2    0    0  0.29466693615E+02  0.29259605841E+02 -0.24631241895E+03  0.27931992900E+03  0.12500161776E+03 0.  0.
         25    2    1    2    0    0 -0.29466693615E+02 -0.29259605841E+02 -0.19189394029E+03  0.23274704039E+03  0.12499395955E+03 0.  0.
          5    1    3    3  501    0 -0.34392740962E+02 -0.24687226647E+02 -0.12385493033E+03  0.13097501120E+03  0.47000000000E+01 0.  1.
         -5    1    3    3    0  501  0.63859434577E+02  0.53946832487E+02 -0.12245748862E+03  0.14834491780E+03  0.47000000000E+01 0.  1.
          5    1    4    4  502    0 -0.21685775555E+02  0.43176004250E+02 -0.12355082272E+03  0.13274538033E+03  0.47000000000E+01 0.  1.
         -5    1    4    4    0  502 -0.77809180600E+01 -0.72435610091E+02 -0.68343117568E+02  0.10000166006E+03  0.47000000000E+01 0.  1.
<mgrwt>
<rscale>  0 0.26492974E+03</rscale>
<asrwt>0</asrwt>
<pdfrwt beam="1">  1       21 0.56815857E-02 0.26492974E+03</pdfrwt>
<pdfrwt beam="2">  1       21 0.73097945E-01 0.26492974E+03</pdfrwt>
<totfact> 0.35802085E+05</totfact>
</mgrwt>
</event>
<event>
 8    1  0.9569852E-006  0.2888408E+03  0.7546771E-02  0.1090956E+00
         21   -1    0    0  504  503  0.00000000000E+00  0.00000000000E+00  0.28883225305E+02  0.28883225305E+02  0.00000000000E+00 0.  1.
         21   -1    0    0  503  504 -0.00000000000E+00 -0.00000000000E+00 -0.72212321128E+03  0.72212321128E+03  0.00000000000E+00 0.  1.
         25    2    1    2    0    0  0.63306948110E+02  0.63949456833E+01 -0.43606955294E+03  0.45807329315E+03  0.12500328749E+03 0.  0.
         25    2    1    2    0    0 -0.63306948110E+02 -0.63949456833E+01 -0.25717043303E+03  0.29293314344E+03  0.12499811954E+03 0.  0.
          5    1    3    3  501    0  0.10892429757E+02 -0.13900930284E+02  0.96851746812E-01  0.18275127059E+02  0.47000000000E+01 0. -1.
         -5    1    3    3    0  501  0.52414518353E+02  0.20295875967E+02 -0.43616640469E+03  0.43979816609E+03  0.47000000000E+01 0. -1.
          5    1    4    4  502    0 -0.88811308906E+02 -0.23135620360E+02 -0.11376822820E+03  0.14624638548E+03  0.47000000000E+01 0.  1.
         -5    1    4    4    0  502  0.25504360796E+02  0.16740674677E+02 -0.14340220483E+03  0.14668675795E+03  0.47000000000E+01 0.  1.
<mgrwt>
<rscale>  0 0.28884077E+03</rscale>
<asrwt>0</asrwt>
<pdfrwt beam="1">  1       21 0.44435732E-02 0.28884077E+03</pdfrwt>
<pdfrwt beam="2">  1       21 0.11109588E+00 0.28884077E+03</pdfrwt>
<totfact> 0.20315572E+05</totfact>
</mgrwt>
</event>
<event>
 8    1  0.9569852E-006  0.3388912E+03  0.7546771E-02  0.1067269E+00
         21   -1    0    0  504  503  0.00000000000E+00  0.00000000000E+00  0.29430753787E+02  0.29430753787E+02  0.00000000000E+00 0. -1.
         21   -1    0    0  503  504 -0.00000000000E+00 -0.00000000000E+00 -0.97557157524E+03  0.97557157524E+03  0.00000000000E+00 0. -1.
         25    2    1    2    0    0 -0.99709605779E+02  0.26530251257E+02 -0.32655080644E+03  0.36456255042E+03  0.12499825705E+03 0.  0.
         25    2    1    2    0    0  0.99709605779E+02 -0.26530251257E+02 -0.61959001502E+03  0.64043977861E+03  0.12500185440E+03 0.  0.
          5    1    3    3  501    0  0.16619534431E+02  0.21288865333E+02 -0.15349171046E+03  0.15592055635E+03  0.47000000000E+01 0.  1.
         -5    1    3    3    0  501 -0.11632914021E+03  0.52413859236E+01 -0.17305909598E+03  0.20864199407E+03  0.47000000000E+01 0.  1.
          5    1    4    4  502    0  0.29712224621E+02  0.34373464926E+02 -0.39149460820E+03  0.39415031350E+03  0.47000000000E+01 0. -1.
         -5    1    4    4    0  502  0.69997381158E+02 -0.60903716182E+02 -0.22809540682E+03  0.24628946511E+03  0.47000000000E+01 0. -1.
<mgrwt>
<rscale>  0 0.33889117E+03</rscale>
<asrwt>0</asrwt>
<pdfrwt beam="1">  1       21 0.45278085E-02 0.33889117E+03</pdfrwt>
<pdfrwt beam="2">  1       21 0.15008793E+00 0.33889117E+03</pdfrwt>
<totfact> 0.89653266E+04</totfact>
</mgrwt>
</event>
<event>
 8    1  0.9569852E-006  0.4288172E+03  0.7546771E-02  0.1034234E+00
         21   -1    0    0  504  503  0.00000000000E+00  0.00000000000E+00  0.71612423288E+03  0.71612423288E+03  0.00000000000E+00 0.  1.
         21   -1    0    0  503  504 -0.00000000000E+00 -0.00000000000E+00 -0.64194242440E+02  0.64194242440E+02  0.00000000000E+00 0.  1.
         25    2    1    2    0    0  0.17131642458E+02 -0.16871999198E+03  0.39842801584E+03  0.45069980789E+03  0.12500201659E+03 0.  0.
         25    2    1    2    0    0 -0.17131642458E+02  0.16871999198E+03  0.25350197459E+03  0.32961866743E+03  0.12500114371E+03 0.  0.
          5    1    3    3  501    0 -0.51793063077E+02 -0.91954837112E+02  0.17235375606E+03  0.20215370558E+03  0.47000000000E+01 0.  1.
         -5    1    3    3    0  501  0.68924705535E+02 -0.76765154869E+02  0.22607425979E+03  0.24854610231E+03  0.47000000000E+01 0.  1.
          5    1    4    4  502    0 -0.48435061237E+02  0.14746396813E+03  0.24576441142E+03  0.29071259514E+03  0.47000000000E+01 0.  1.
         -5    1    4    4    0  502  0.31303418779E+02  0.21256023855E+02  0.77375631760E+01  0.38906072293E+02  0.47000000000E+01 0.  1.
<mgrwt>
<rscale>  0 0.42881722E+03</rscale>
<asrwt>0</asrwt>
<pdfrwt beam="1">  1       21 0.11017295E+00 0.42881722E+03</pdfrwt>
<pdfrwt beam="2">  1       21 0.98760378E-02 0.42881722E+03</pdfrwt>
<totfact> 0.49650248E+04</totfact>
</mgrwt>
</event>
<event>
 8    1  0.9569852E-006  0.4116754E+03  0.7546771E-02  0.1039810E+00
         21   -1    0    0  504  503  0.00000000000E+00  0.00000000000E+00  0.23759633143E+03  0.23759633143E+03  0.00000000000E+00 0. -1.
         21   -1    0    0  503  504 -0.00000000000E+00 -0.00000000000E+00 -0.17832415555E+03  0.17832415555E+03  0.00000000000E+00 0. -1.
         25    2    1    2    0    0  0.83231404555E+01 -0.12385667067E+03 -0.77932680432E+02  0.19263037112E+03  0.12499283044E+03 0.  0.
         25    2    1    2    0    0 -0.83231404555E+01  0.12385667067E+03  0.13720485631E+03  0.22329011586E+03  0.12499421471E+03 0.  0.
          5    1    3    3  501    0 -0.55330701378E+02 -0.84621308400E+02 -0.43166094495E+02  0.11003478570E+03  0.47000000000E+01 0. -1.
         -5    1    3    3    0  501  0.63653841833E+02 -0.39235362270E+02 -0.34766585937E+02  0.82595585416E+02  0.47000000000E+01 0. -1.
          5    1    4    4  502    0 -0.53769457274E+02  0.17461541312E+02  0.67360462461E+02  0.88065781456E+02  0.47000000000E+01 0. -1.
         -5    1    4    4    0  502  0.45446316819E+02  0.10639512936E+03  0.69844393847E+02  0.13522433441E+03  0.47000000000E+01 0. -1.
<mgrwt>
<rscale>  0 0.41167543E+03</rscale>
<asrwt>0</asrwt>
<pdfrwt beam="1">  1       21 0.36553282E-01 0.41167543E+03</pdfrwt>
<pdfrwt beam="2">  1       21 0.27434486E-01 0.41167543E+03</pdfrwt>
<totfact> 0.85774074E+04</totfact>
</mgrwt>
</event>
<event>
 8    1  0.9569852E-006  0.2831586E+03  0.7546771E-02  0.1093976E+00
         21   -1    0    0  504  503  0.00000000000E+00  0.00000000000E+00  0.21020301021E+03  0.21020301021E+03  0.00000000000E+00 0.  1.
         21   -1    0    0  503  504 -0.00000000000E+00 -0.00000000000E+00 -0.95358763698E+02  0.95358763698E+02  0.00000000000E+00 0.  1.
         25    2    1    2    0    0 -0.23143487189E+00 -0.17821148278E+02 -0.11715204048E+02  0.12678682549E+03  0.12498002330E+03 0.  0.
         25    2    1    2    0    0  0.23143487189E+00  0.17821148278E+02  0.12655945056E+03  0.17877494841E+03  0.12500216305E+03 0.  0.
          5    1    3    3  501    0  0.40894972934E+02  0.36034774358E+02 -0.20231089707E+02  0.58329158789E+02  0.47000000000E+01 0.  1.
         -5    1    3    3    0  501 -0.41126407806E+02 -0.53855922636E+02  0.85158856591E+01  0.68457666704E+02  0.47000000000E+01 0.  1.
          5    1    4    4  502    0 -0.16096696390E+01  0.34867168850E+02  0.14730348568E+03  0.15145533135E+03  0.47000000000E+01 0.  1.
         -5    1    4    4    0  502  0.18411045109E+01 -0.17046020572E+02 -0.20744035125E+02  0.27319617062E+02  0.47000000000E+01 0.  1.
<mgrwt>
<rscale>  0 0.28315861E+03</rscale>
<asrwt>0</asrwt>
<pdfrwt beam="1">  1       21 0.32338924E-01 0.28315861E+03</pdfrwt>
<pdfrwt beam="2">  1       21 0.14670579E-01 0.28315861E+03</pdfrwt>
<totfact> 0.36847869E+05</totfact>
</mgrwt>
</event>
<event>
 8    1  0.9569852E-006  0.3250761E+03  0.7546771E-02  0.1073337E+00
         21   -1    0    0  504  503  0.00000000000E+00  0.00000000000E+00  0.82335508361E+03  0.82335508361E+03  0.00000000000E+00 0. -1.
         21   -1    0    0  503  504 -0.00000000000E+00 -0.00000000000E+00 -0.32086543284E+02  0.32086543284E+02  0.00000000000E+00 0. -1.
         25    2    1    2    0    0 -0.59177013249E+01 -0.56661857764E+02  0.62425262670E+03  0.63918913719E+03  0.12500330334E+03 0.  0.
         25    2    1    2    0    0  0.59177013249E+01  0.56661857764E+02  0.16701591362E+03  0.21625248970E+03  0.12500095433E+03 0.  0.
          5    1    3    3  501    0 -0.55929751414E+02 -0.55648756224E+02  0.47936978351E+03  0.48584195013E+03  0.47000000000E+01 0. -1.
         -5    1    3    3    0  501  0.50012050089E+02 -0.10131015405E+01  0.14488284319E+03  0.15334718706E+03  0.47000000000E+01 0. -1.
          5    1    4    4  502    0  0.15894974260E+02 -0.37450028678E+02  0.35772837191E+02  0.54377759566E+02  0.47000000000E+01 0. -1.
         -5    1    4    4    0  502 -0.99772729349E+01  0.94111886442E+02  0.13124307643E+03  0.16187473014E+03  0.47000000000E+01 0. -1.
<mgrwt>
<rscale>  0 0.32507611E+03</rscale>
<asrwt>0</asrwt>
<pdfrwt beam="1">  1       21 0.12667000E+00 0.32507611E+03</pdfrwt>
<pdfrwt beam="2">  1       21 0.49363919E-02 0.32507611E+03</pdfrwt>
<totfact> 0.12107631E+05</totfact>
</mgrwt>
</event>
<event>
 8    1  0.9569852E-006  0.2871126E+03  0.7546771E-02  0.1091866E+00
         21   -1    0    0  504  503  0.00000000000E+00  0.00000000000E+00  0.22333949157E+03  0.22333949157E+03  0.00000000000E+00 0.  1.
         21   -1    0    0  503  504 -0.00000000000E+00 -0.00000000000E+00 -0.92273892295E+02  0.92273892295E+02  0.00000000000E+00 0.  1.
         25    2    1    2    0    0  0.18015453379E+02 -0.64244145196E+02  0.40206398132E+02  0.14729073436E+03  0.12500455682E+03 0.  0.
         25    2    1    2    0    0 -0.18015453379E+02  0.64244145196E+02  0.90859201143E+02  0.16832264951E+03  0.12500101260E+03 0.  0.
          5    1    3    3  501    0  0.31586249604E+02 -0.56924746132E+02  0.80650283964E+02  0.10375295750E+03  0.47000000000E+01 0. -1.
         -5    1    3    3    0  501 -0.13570796225E+02 -0.73193990641E+01 -0.40443885832E+02  0.43537776861E+02  0.47000000000E+01 0. -1.
          5    1    4    4  502    0 -0.15615101386E+02  0.39793344536E+02  0.12143122720E+03  0.12882148345E+03  0.47000000000E+01 0.  1.
         -5    1    4    4    0  502 -0.24003519928E+01  0.24450800660E+02 -0.30572026052E+02  0.39501166053E+02  0.47000000000E+01 0.  1.
<mgrwt>
<rscale>  0 0.28711255E+03</rscale>
<asrwt>0</asrwt>
<pdfrwt beam="1">  1       21 0.34359922E-01 0.28711255E+03</pdfrwt>
<pdfrwt beam="2">  1       21 0.14195983E-01 0.28711255E+03</pdfrwt>
<totfact> 0.34658625E+05</totfact>
</mgrwt>
</event>
<event>
 8    1  0.9569852E-006  0.2987100E+03  0.7546771E-02  0.1085887E+00
         21   -1    0    0  504  503  0.00000000000E+00  0.00000000000E+00  0.21660184321E+03  0.21660184321E+03  0.00000000000E+00 0.  1.
         21   -1    0    0  503  504 -0.00000000000E+00 -0.00000000000E+00 -0.10298581793E+03  0.10298581793E+03  0.00000000000E+00 0.  1.
         25    2    1    2    0    0 -0.33483473136E+01  0.25031488508E+02  0.13997090972E+03  0.18935307763E+03  0.12499978237E+03 0.  0.
         25    2    1    2    0    0  0.33483473136E+01 -0.25031488508E+02 -0.26354884431E+02  0.13023458351E+03  0.12501471899E+03 0.  0.
          5    1    3    3  501    0  0.33215782326E+02  0.11442038607E+02 -0.79315787727E+01  0.36320908371E+02  0.47000000000E+01 0.  1.
         -5    1    3    3    0  501 -0.36564129640E+02  0.13589449900E+02  0.14790248849E+03  0.15303216926E+03  0.47000000000E+01 0.  1.
          5    1    4    4  502    0 -0.20385542539E+02 -0.15896894594E+01  0.45924405290E+02  0.50489983743E+02  0.47000000000E+01 0.  1.
         -5    1    4    4    0  502  0.23733889852E+02 -0.23441799048E+02 -0.72279289720E+02  0.79744599771E+02  0.47000000000E+01 0.  1.
<mgrwt>
<rscale>  0 0.29871001E+03</rscale>
<asrwt>0</asrwt>
<pdfrwt beam="1">  1       21 0.33323360E-01 0.29871001E+03</pdfrwt>
<pdfrwt beam="2">  1       21 0.15843972E-01 0.29871001E+03</pdfrwt>
<totfact> 0.30040826E+05</totfact>
</mgrwt>
</event>
<event>
 8    1  0.9569852E-006  0.2880971E+03  0.7546771E-02  0.1091347E+00
         21   -1    0    0  504  503  0.00000000000E+00  0.00000000000E+00  0.90664882920E+02  0.90664882920E+02  0.00000000000E+00 0. -1.
         21   -1    0    0  503  504 -0.00000000000E+00 -0.00000000000E+00 -0.22886466561E+03  0.22886466561E+03  0.00000000000E+00 0. -1.
         25    2    1    2    0    0  0.57300514551E+02  0.39193546282E+01 -0.21719952831E+02  0.13926766100E+03  0.12500005896E+03 0.  0.
         25    2    1    2    0    0 -0.57300514551E+02 -0.39193546282E+01 -0.11647982986E+03  0.18026188753E+03  0.12501234749E+03 0.  0.
          5    1    3    3  501    0 -0.28109644197E+02 -0.55968537169E+01 -0.41789730728E+02  0.50891536258E+02  0.47000000000E+01 0. -1.
         -5    1    3    3    0  501  0.85410158748E+02  0.95162083451E+01  0.20069777898E+02  0.88376124737E+02  0.47000000000E+01 0. -1.
          5    1    4    4  502    0 -0.11485667674E+02 -0.55304190241E+02 -0.89982476467E+02  0.10634571026E+03  0.47000000000E+01 0.  1.
         -5    1    4    4    0  502 -0.45814846877E+02  0.51384835613E+02 -0.26497353389E+02  0.73916177268E+02  0.47000000000E+01 0.  1.
<mgrwt>
<rscale>  0 0.28809712E+03</rscale>
<asrwt>0</asrwt>
<pdfrwt beam="1">  1       21 0.13948444E-01 0.28809712E+03</pdfrwt>
<pdfrwt beam="2">  1       21 0.35209949E-01 0.28809712E+03</pdfrwt>
<totfact> 0.34075796E+05</totfact>
</mgrwt>
</event>
<event>
 8    1  0.9569852E-006  0.2805650E+03  0.7546771E-02  0.1095381E+00
         21   -1    0    0  504  503  0.00000000000E+00  0.00000000000E+00  0.99512157352E+02  0.99512157352E+02  0.00000000000E+00 0.  1.
         21   -1    0    0  503  504 -0.00000000000E+00 -0.00000000000E+00 -0.19775655712E+03  0.19775655712E+03  0.00000000000E+00 0.  1.
         25    2    1    2    0    0 -0.16814737755E+02  0.24792867039E+02 -0.10865712030E+03  0.16831032820E+03  0.12499830049E+03 0.  0.
         25    2    1    2    0    0  0.16814737755E+02 -0.24792867039E+02  0.10412720528E+02  0.12895838628E+03  0.12499767590E+03 0.  0.
          5    1    3    3  501    0 -0.67402147691E+02  0.34247722938E+02 -0.53572438826E+02  0.92779589575E+02  0.47000000000E+01 0. -1.
         -5    1    3    3    0  501  0.50587409936E+02 -0.94548558994E+01 -0.55084681473E+02  0.75530738624E+02  0.47000000000E+01 0. -1.
          5    1    4    4  502    0  0.57548776219E+02  0.25426013216E+02 -0.11574401184E+01  0.63101295232E+02  0.47000000000E+01 0. -1.
         -5    1    4    4    0  502 -0.40734038463E+02 -0.50218880255E+02  0.11570160646E+02  0.65857091045E+02  0.47000000000E+01 0. -1.
<mgrwt>
<rscale>  0 0.28056501E+03</rscale>
<asrwt>0</asrwt>
<pdfrwt beam="1">  1       21 0.15309563E-01 0.28056501E+03</pdfrwt>
<pdfrwt beam="2">  1       21 0.30424086E-01 0.28056501E+03</pdfrwt>
<totfact> 0.38460739E+05</totfact>
</mgrwt>
</event>
<event>
 8    1  0.9569852E-006  0.3527076E+03  0.7546771E-02  0.1061509E+00
         21   -1    0    0  504  503  0.00000000000E+00  0.00000000000E+00  0.25569849783E+03  0.25569849783E+03  0.00000000000E+00 0.  1.
         21   -1    0    0  503  504 -0.00000000000E+00 -0.00000000000E+00 -0.12163022151E+03  0.12163022151E+03  0.00000000000E+00 0.  1.
         25    2    1    2    0    0  0.21184834105E+02 -0.85695018694E+01  0.19785073346E+03  0.23514601508E+03  0.12500600834E+03 0.  0.
         25    2    1    2    0    0 -0.21184834105E+02  0.85695018694E+01 -0.63782457137E+02  0.14218270425E+03  0.12500194395E+03 0.  0.
          5    1    3    3  501    0 -0.51668105336E+02 -0.13036763071E+02  0.73999848715E+02  0.91310557496E+02  0.47000000000E+01 0. -1.
         -5    1    3    3    0  501  0.72852939441E+02  0.44672612018E+01  0.12385088474E+03  0.14383545759E+03  0.47000000000E+01 0. -1.
          5    1    4    4  502    0 -0.57287693209E+02 -0.23643192851E+02 -0.20915021610E+00  0.62153150404E+02  0.47000000000E+01 0.  1.
         -5    1    4    4    0  502  0.36102859103E+02  0.32212694721E+02 -0.63573306921E+02  0.80029553850E+02  0.47000000000E+01 0.  1.
<mgrwt>
<rscale>  0 0.35270761E+03</rscale>
<asrwt>0</asrwt>
<pdfrwt beam="1">  1       21 0.39338230E-01 0.35270761E+03</pdfrwt>
<pdfrwt beam="2">  1       21 0.18712342E-01 0.35270761E+03</pdfrwt>
<totfact> 0.15590709E+05</totfact>
</mgrwt>
</event>
<event>
 8    1  0.9569852E-006  0.5412416E+03  0.7546771E-02  0.1003542E+00
         21   -1    0    0  504  503  0.00000000000E+00  0.00000000000E+00  0.14181451912E+03  0.14181451912E+03  0.00000000000E+00 0. -1.
         21   -1    0    0  503  504 -0.00000000000E+00 -0.00000000000E+00 -0.51641839816E+03  0.51641839816E+03  0.00000000000E+00 0. -1.
         25    2    1    2    0    0  0.23462951589E+03  0.35599826028E+02 -0.23100163802E+03  0.35398774363E+03  0.12500883382E+03 0.  0.
         25    2    1    2    0    0 -0.23462951589E+03 -0.35599826028E+02 -0.14360224102E+03  0.30424517365E+03  0.12500065889E+03 0.  0.
          5    1    3    3  501    0  0.13400621182E+02  0.25885347784E+02  0.54240149332E+01  0.30018957609E+02  0.47000000000E+01 0.  1.
         -5    1    3    3    0  501  0.22122889470E+03  0.97144782440E+01 -0.23642565295E+03  0.32396878602E+03  0.47000000000E+01 0.  1.
          5    1    4    4  502    0 -0.96924821524E+02  0.59087936880E+01 -0.12618653210E+03  0.15929364631E+03  0.47000000000E+01 0. -1.
         -5    1    4    4    0  502 -0.13770469436E+03 -0.41508619716E+02 -0.17415708917E+02  0.14495152734E+03  0.47000000000E+01 0. -1.
<mgrwt>
<rscale>  0 0.54124163E+03</rscale>
<asrwt>0</asrwt>
<pdfrwt beam="1">  1       21 0.21817618E-01 0.54124163E+03</pdfrwt>
<pdfrwt beam="2">  1       21 0.79448986E-01 0.54124163E+03</pdfrwt>
<totfact> 0.24333798E+04</totfact>
</mgrwt>
</event>
<event>
 8    1  0.9569852E-006  0.2894757E+03  0.7546771E-02  0.1090623E+00
         21   -1    0    0  504  503  0.00000000000E+00  0.00000000000E+00  0.33267907979E+03  0.33267907979E+03  0.00000000000E+00 0. -1.
         21   -1    0    0  503  504 -0.00000000000E+00 -0.00000000000E+00 -0.62970743736E+02  0.62970743736E+02  0.00000000000E+00 0. -1.
         25    2    1    2    0    0 -0.11444355426E+02  0.32917429395E+02  0.47233696762E+02  0.13809337220E+03  0.12499690758E+03 0.  0.
         25    2    1    2    0    0  0.11444355426E+02 -0.32917429395E+02  0.22247463930E+03  0.25755645133E+03  0.12500332022E+03 0.  0.
          5    1    3    3  501    0  0.85189532862E+01  0.39711411604E+02 -0.34534475475E+02  0.53519050562E+02  0.47000000000E+01 0.  1.
         -5    1    3    3    0  501 -0.19963308712E+02 -0.67939822095E+01  0.81768172237E+02  0.84574321635E+02  0.47000000000E+01 0.  1.
          5    1    4    4  502    0 -0.29714206453E+02 -0.57796232892E+02  0.18579724825E+03  0.19689094966E+03  0.47000000000E+01 0. -1.
         -5    1    4    4    0  502  0.41158561879E+02  0.24878803497E+02  0.36677391050E+02  0.60665501676E+02  0.47000000000E+01 0. -1.
<mgrwt>
<rscale>  0 0.28947573E+03</rscale>
<asrwt>0</asrwt>
<pdfrwt beam="1">  1       21 0.51181396E-01 0.28947573E+03</pdfrwt>
<pdfrwt beam="2">  1       21 0.96878069E-02 0.28947573E+03</pdfrwt>
<totfact> 0.30431897E+05</totfact>
</mgrwt>
</event>
<event>
 8    1  0.9569852E-006  0.2689175E+03  0.7546771E-02  0.1101901E+00
         21   -1    0    0  504  503  0.00000000000E+00  0.00000000000E+00  0.28748187728E+02  0.28748187728E+02  0.00000000000E+00 0.  1.
         21   -1    0    0  503  504 -0.00000000000E+00 -0.00000000000E+00 -0.62887991059E+03  0.62887991059E+03  0.00000000000E+00 0.  1.
         25    2    1    2    0    0 -0.30132382374E+01  0.49226174518E+02 -0.28868736895E+03  0.31843177560E+03  0.12500441137E+03 0.  0.
         25    2    1    2    0    0  0.30132382374E+01 -0.49226174518E+02 -0.31144435391E+03  0.33919632271E+03  0.12499705555E+03 0.  0.
          5    1    3    3  501    0  0.87093575218E+01 -0.39795752411E+02 -0.59728582395E+02  0.72451006710E+02  0.47000000000E+01 0. -1.
         -5    1    3    3    0  501 -0.11722595759E+02  0.89021926929E+02 -0.22895878655E+03  0.24598076889E+03  0.47000000000E+01 0. -1.
          5    1    4    4  502    0 -0.51171923822E+02 -0.58323560160E+02 -0.20650320996E+03  0.22064874616E+03  0.47000000000E+01 0.  1.
         -5    1    4    4    0  502  0.54185162060E+02  0.90973856420E+01 -0.10494114396E+03  0.11854757656E+03  0.47000000000E+01 0.  1.
<mgrwt>
<rscale>  0 0.26891752E+03</rscale>
<asrwt>0</asrwt>
<pdfrwt beam="1">  1       21 0.44227979E-02 0.26891752E+03</pdfrwt>
<pdfrwt beam="2">  1       21 0.96750760E-01 0.26891752E+03</pdfrwt>
<totfact> 0.28754074E+05</totfact>
</mgrwt>
</event>
<event>
 8    1  0.9569852E-006  0.2777024E+03  0.7546771E-02  0.1096950E+00
         21   -1    0    0  504  503  0.00000000000E+00  0.00000000000E+00  0.11014225592E+03  0.11014225592E+03  0.00000000000E+00 0.  1.
         21   -1    0    0  503  504 -0.00000000000E+00 -0.00000000000E+00 -0.17504322280E+03  0.17504322280E+03  0.00000000000E+00 0.  1.
         25    2    1    2    0    0  0.28217616147E+01  0.84433432787E+01 -0.93960154316E+02  0.15662851899E+03  0.12499891991E+03 0.  0.
         25    2    1    2    0    0 -0.28217616147E+01 -0.84433432787E+01  0.29059187432E+02  0.12855695973E+03  0.12491278212E+03 0.  0.
          5    1    3    3  501    0  0.61711943921E+02  0.15573855517E+02 -0.62462003022E+02  0.89300060581E+02  0.47000000000E+01 0.  1.
         -5    1    3    3    0  501 -0.58890182306E+02 -0.71305122378E+01 -0.31498151294E+02  0.67328458409E+02  0.47000000000E+01 0.  1.
          5    1    4    4  502    0  0.22905204674E+02  0.52352989057E+02  0.24075362486E+02  0.62186790745E+02  0.47000000000E+01 0.  1.
         -5    1    4    4    0  502 -0.25726966289E+02 -0.60796332336E+02  0.49838249458E+01  0.66370168984E+02  0.47000000000E+01 0.  1.
<mgrwt>
<rscale>  0 0.27770240E+03</rscale>
<asrwt>0</asrwt>
<pdfrwt beam="1">  1       21 0.16944962E-01 0.27770240E+03</pdfrwt>
<pdfrwt beam="2">  1       21 0.26929727E-01 0.27770240E+03</pdfrwt>
<totfact> 0.40499298E+05</totfact>
</mgrwt>
</event>
<event>
 8    1  0.9569852E-006  0.3310524E+03  0.7546771E-02  0.1070672E+00
         21   -1    0    0  504  503  0.00000000000E+00  0.00000000000E+00  0.42354632653E+02  0.42354632653E+02  0.00000000000E+00 0.  1.
         21   -1    0    0  503  504 -0.00000000000E+00 -0.00000000000E+00 -0.64689318943E+03  0.64689318943E+03  0.00000000000E+00 0.  1.
         25    2    1    2    0    0  0.83933027377E+02 -0.52367431245E+01 -0.15950843342E+03  0.21940772628E+03  0.12499853382E+03 0.  0.
         25    2    1    2    0    0 -0.83933027377E+02  0.52367431245E+01 -0.44503012335E+03  0.46984009580E+03  0.12500291343E+03 0.  0.
          5    1    3    3  501    0  0.33053038864E+02  0.41112132444E+02 -0.13693937241E+03  0.14682367836E+03  0.47000000000E+01 0.  1.
         -5    1    3    3    0  501  0.50879988513E+02 -0.46348875568E+02 -0.22569061016E+02  0.72584047922E+02  0.47000000000E+01 0.  1.
          5    1    4    4  502    0 -0.24822451695E+01 -0.19414352648E+02 -0.30671303960E+03  0.30737283109E+03  0.47000000000E+01 0. -1.
         -5    1    4    4    0  502 -0.81450782208E+02  0.24651095772E+02 -0.13831708374E+03  0.16246726470E+03  0.47000000000E+01 0. -1.
<mgrwt>
<rscale>  0 0.33105240E+03</rscale>
<asrwt>0</asrwt>
<pdfrwt beam="1">  1       21 0.65160973E-02 0.33105240E+03</pdfrwt>
<pdfrwt beam="2">  1       21 0.99522030E-01 0.33105240E+03</pdfrwt>
<totfact> 0.13601884E+05</totfact>
</mgrwt>
</event>
<event>
 8    1  0.9569852E-006  0.2839819E+03  0.7546771E-02  0.1093534E+00
         21   -1    0    0  504  503  0.00000000000E+00  0.00000000000E+00  0.17077108491E+03  0.17077108491E+03  0.00000000000E+00 0. -1.
         21   -1    0    0  503  504 -0.00000000000E+00 -0.00000000000E+00 -0.11806110891E+03  0.11806110891E+03  0.00000000000E+00 0. -1.
         25    2    1    2    0    0  0.29964719204E+02 -0.51581068432E+02 -0.54256336127E+01  0.13861233249E+03  0.12500180079E+03 0.  0.
         25    2    1    2    0    0 -0.29964719204E+02  0.51581068432E+02  0.58135609612E+02  0.15021986132E+03  0.12501106596E+03 0.  0.
          5    1    3    3  501    0 -0.26942536946E+02  0.28734289534E+02  0.25094463222E+01  0.39748547306E+02  0.47000000000E+01 0. -1.
         -5    1    3    3    0  501  0.56907256150E+02 -0.80315357966E+02 -0.79350799349E+01  0.98863785186E+02  0.47000000000E+01 0. -1.
          5    1    4    4  502    0 -0.66163452439E+02  0.49720942475E+02  0.73293238007E+02  0.11065153997E+03  0.47000000000E+01 0.  1.
         -5    1    4    4    0  502  0.36198733235E+02  0.18601259569E+01 -0.15157628395E+02  0.39568321357E+02  0.47000000000E+01 0.  1.
<mgrwt>
<rscale>  0 0.28398186E+03</rscale>
<asrwt>0</asrwt>
<pdfrwt beam="1">  1       21 0.26272475E-01 0.28398186E+03</pdfrwt>
<pdfrwt beam="2">  1       21 0.18163248E-01 0.28398186E+03</pdfrwt>
<totfact> 0.37294343E+05</totfact>
</mgrwt>
</event>
<event>
 8    1  0.9569852E-006  0.2839539E+03  0.7546771E-02  0.1093549E+00
         21   -1    0    0  504  503  0.00000000000E+00  0.00000000000E+00  0.11003796199E+03  0.11003796199E+03  0.00000000000E+00 0.  1.
         21   -1    0    0  503  504 -0.00000000000E+00 -0.00000000000E+00 -0.18318636223E+03  0.18318636223E+03  0.00000000000E+00 0.  1.
         25    2    1    2    0    0  0.92330183360E+01 -0.55649790754E+02  0.13641847959E+01  0.13714787722E+03  0.12500212553E+03 0.  0.
         25    2    1    2    0    0 -0.92330183360E+01  0.55649790754E+02 -0.74512585036E+02  0.15607644700E+03  0.12500233654E+03 0.  0.
          5    1    3    3  501    0  0.38555468244E+02  0.27272366944E+02  0.10465145990E+02  0.48599541261E+02  0.47000000000E+01 0.  1.
         -5    1    3    3    0  501 -0.29322449908E+02 -0.82922157697E+02 -0.91009611942E+01  0.88548335955E+02  0.47000000000E+01 0.  1.
          5    1    4    4  502    0  0.47637886390E+02  0.63479939810E+02 -0.44972520628E+02  0.91343793383E+02  0.47000000000E+01 0.  1.
         -5    1    4    4    0  502 -0.56870904726E+02 -0.78301490565E+01 -0.29540064407E+02  0.64732653613E+02  0.47000000000E+01 0.  1.
<mgrwt>
<rscale>  0 0.28395390E+03</rscale>
<asrwt>0</asrwt>
<pdfrwt beam="1">  1       21 0.16928917E-01 0.28395390E+03</pdfrwt>
<pdfrwt beam="2">  1       21 0.28182517E-01 0.28395390E+03</pdfrwt>
<totfact> 0.37090025E+05</totfact>
</mgrwt>
</event>
<event>
 8    1  0.9569852E-006  0.2783657E+03  0.7546771E-02  0.1096585E+00
         21   -1    0    0  504  503  0.00000000000E+00  0.00000000000E+00  0.92307623149E+03  0.92307623149E+03  0.00000000000E+00 0.  1.
         21   -1    0    0  503  504 -0.00000000000E+00 -0.00000000000E+00 -0.20986210555E+02  0.20986210555E+02  0.00000000000E+00 0.  1.
         25    2    1    2    0    0 -0.21350185611E+01  0.29938653045E+02  0.27012432103E+03  0.29915412942E+03  0.12500065235E+03 0.  0.
         25    2    1    2    0    0  0.21350185611E+01 -0.29938653045E+02  0.63196569990E+03  0.64490831262E+03  0.12500081833E+03 0.  0.
          5    1    3    3  501    0  0.85545541468E+01 -0.27954019501E+02  0.21914470051E+03  0.22113592508E+03  0.47000000000E+01 0. -1.
         -5    1    3    3    0  501 -0.10689572708E+02  0.57892672546E+02  0.50979620524E+02  0.78018204337E+02  0.47000000000E+01 0. -1.
          5    1    4    4  502    0  0.52992939653E+01  0.48950881415E+02  0.24238371538E+03  0.24737871127E+03  0.47000000000E+01 0. -1.
         -5    1    4    4    0  502 -0.31642754042E+01 -0.78889534460E+02  0.38958198452E+03  0.39752960135E+03  0.47000000000E+01 0. -1.
<mgrwt>
<rscale>  0 0.27836575E+03</rscale>
<asrwt>0</asrwt>
<pdfrwt beam="1">  1       21 0.14201170E+00 0.27836575E+03</pdfrwt>
<pdfrwt beam="2">  1       21 0.32286485E-02 0.27836575E+03</pdfrwt>
<totfact> 0.18733558E+05</totfact>
</mgrwt>
</event>
<event>
 8    1  0.9569852E-006  0.5024598E+03  0.7546771E-02  0.1013139E+00
         21   -1    0    0  504  503  0.00000000000E+00  0.00000000000E+00  0.16098100001E+03  0.16098100001E+03  0.00000000000E+00 0. -1.
         21   -1    0    0  503  504 -0.00000000000E+00 -0.00000000000E+00 -0.39207399226E+03  0.39207399226E+03  0.00000000000E+00 0. -1.
         25    2    1    2    0    0  0.12573130538E+03  0.16539438731E+03 -0.43137056143E+02  0.24626985815E+03  0.12499749163E+03 0.  0.
         25    2    1    2    0    0 -0.12573130538E+03 -0.16539438731E+03 -0.18795593611E+03  0.30678513412E+03  0.12500408030E+03 0.  0.
          5    1    3    3  501    0  0.14162944507E+03  0.17347158501E+03 -0.38877451090E+02  0.22734299355E+03  0.47000000000E+01 0.  1.
         -5    1    3    3    0  501 -0.15898139686E+02 -0.80771977019E+01 -0.42596050533E+01  0.18926864595E+02  0.47000000000E+01 0.  1.
          5    1    4    4  502    0 -0.90001970353E+02 -0.45256793663E+02 -0.30260103679E+02  0.10529148073E+03  0.47000000000E+01 0.  1.
         -5    1    4    4    0  502 -0.35729335028E+02 -0.12013759364E+03 -0.15769583243E+03  0.20149365339E+03  0.47000000000E+01 0.  1.
<mgrwt>
<rscale>  0 0.50245980E+03</rscale>
<asrwt>0</asrwt>
<pdfrwt beam="1">  1       21 0.24766308E-01 0.50245980E+03</pdfrwt>
<pdfrwt beam="2">  1       21 0.60319075E-01 0.50245980E+03</pdfrwt>
<totfact> 0.35723788E+04</totfact>
</mgrwt>
</event>
<event>
 8    1  0.9569852E-006  0.3265432E+03  0.7546771E-02  0.1072677E+00
         21   -1    0    0  504  503  0.00000000000E+00  0.00000000000E+00  0.16848983894E+04  0.16848983894E+04  0.00000000000E+00 0.  1.
         21   -1    0    0  503  504 -0.00000000000E+00 -0.00000000000E+00 -0.15821495815E+02  0.15821495815E+02  0.00000000000E+00 0.  1.
         25    2    1    2    0    0 -0.75646999089E+02  0.14277392891E+02  0.12067344000E+04  0.12156314137E+04  0.12500203734E+03 0.  0.
         25    2    1    2    0    0  0.75646999089E+02 -0.14277392891E+02  0.46234249355E+03  0.48508847151E+03  0.12499572565E+03 0.  0.
          5    1    3    3  501    0 -0.82870886027E+02 -0.39664721234E+02  0.72727407038E+03  0.73306925819E+03  0.47000000000E+01 0.  1.
         -5    1    3    3    0  501  0.72238869381E+01  0.53942114125E+02  0.47946032964E+03  0.48256215550E+03  0.47000000000E+01 0.  1.
          5    1    4    4  502    0  0.11069720979E+02  0.42753040042E+02  0.27833144078E+03  0.28185251832E+03  0.47000000000E+01 0. -1.
         -5    1    4    4    0  502  0.64577278110E+02 -0.57030432933E+02  0.18401105277E+03  0.20323595319E+03  0.47000000000E+01 0. -1.
<mgrwt>
<rscale>  0 0.32654318E+03</rscale>
<asrwt>0</asrwt>
<pdfrwt beam="1">  1       21 0.25921499E+00 0.32654318E+03</pdfrwt>
<pdfrwt beam="2">  1       21 0.24340776E-02 0.32654318E+03</pdfrwt>
<totfact> 0.48277211E+04</totfact>
</mgrwt>
</event>
<event>
 8    1  0.9569852E-006  0.5160557E+03  0.7546771E-02  0.1009671E+00
         21   -1    0    0  504  503  0.00000000000E+00  0.00000000000E+00  0.79453425986E+03  0.79453425986E+03  0.00000000000E+00 0.  1.
         21   -1    0    0  503  504 -0.00000000000E+00 -0.00000000000E+00 -0.83795467118E+02  0.83795467118E+02  0.00000000000E+00 0.  1.
         25    2    1    2    0    0 -0.17992661391E+03 -0.12785074756E+03  0.27492342923E+03  0.37406841165E+03  0.12499953844E+03 0.  0.
         25    2    1    2    0    0  0.17992661391E+03  0.12785074756E+03  0.43581536351E+03  0.50426131533E+03  0.12500017207E+03 0.  0.
          5    1    3    3  501    0 -0.57103397474E+02 -0.94832589886E+02  0.64654338798E+02  0.12828207838E+03  0.47000000000E+01 0. -1.
         -5    1    3    3    0  501 -0.12282321643E+03 -0.33018157678E+02  0.21026909043E+03  0.24578633327E+03  0.47000000000E+01 0. -1.
          5    1    4    4  502    0  0.12359570234E+02 -0.20312268709E+02  0.17560761096E+02  0.29930211606E+02  0.47000000000E+01 0. -1.
         -5    1    4    4    0  502  0.16756704367E+03  0.14816301627E+03  0.41825460241E+03  0.47433110372E+03  0.47000000000E+01 0. -1.
<mgrwt>
<rscale>  0 0.51605569E+03</rscale>
<asrwt>0</asrwt>
<pdfrwt beam="1">  1       21 0.12223604E+00 0.51605569E+03</pdfrwt>
<pdfrwt beam="2">  1       21 0.12891611E-01 0.51605569E+03</pdfrwt>
<totfact> 0.23072814E+04</totfact>
</mgrwt>
</event>
<event>
 8    1  0.9569852E-006  0.3095464E+03  0.7546771E-02  0.1080564E+00
         21   -1    0    0  504  503  0.00000000000E+00  0.00000000000E+00  0.10943283099E+03  0.10943283099E+03  0.00000000000E+00 0. -1.
         21   -1    0    0  503  504 -0.00000000000E+00 -0.00000000000E+00 -0.21889901491E+03  0.21889901491E+03  0.00000000000E+00 0. -1.
         25    2    1    2    0    0  0.63297331441E+02 -0.58336848496E+02 -0.22571105728E+02  0.15344589497E+03  0.12500579111E+03 0.  0.
         25    2    1    2    0    0 -0.63297331441E+02  0.58336848496E+02 -0.86895078184E+02  0.17488595093E+03  0.12499840463E+03 0.  0.
          5    1    3    3  501    0  0.31588234835E+01 -0.38838618128E+02  0.45726149213E+02  0.60260991908E+02  0.47000000000E+01 0. -1.
         -5    1    3    3    0  501  0.60138507957E+02 -0.19498230368E+02 -0.68297254941E+02  0.93184903065E+02  0.47000000000E+01 0. -1.
          5    1    4    4  502    0 -0.78134538640E+02  0.61713990149E+02 -0.14460814130E+02  0.10072153620E+03  0.47000000000E+01 0.  1.
         -5    1    4    4    0  502  0.14837207199E+02 -0.33771416532E+01 -0.72434264054E+02  0.74164414730E+02  0.47000000000E+01 0.  1.
<mgrwt>
<rscale>  0 0.30954637E+03</rscale>
<asrwt>0</asrwt>
<pdfrwt beam="1">  1       21 0.16835820E-01 0.30954637E+03</pdfrwt>
<pdfrwt beam="2">  1       21 0.33676771E-01 0.30954637E+03</pdfrwt>
<totfact> 0.26229453E+05</totfact>
</mgrwt>
</event>
<event>
 8    1  0.9569852E-006  0.3960930E+03  0.7546771E-02  0.1045141E+00
         21   -1    0    0  504  503  0.00000000000E+00  0.00000000000E+00  0.35253716658E+02  0.35253716658E+02  0.00000000000E+00 0.  1.
         21   -1    0    0  503  504 -0.00000000000E+00 -0.00000000000E+00 -0.11125751516E+04  0.11125751516E+04  0.00000000000E+00 0.  1.
         25    2    1    2    0    0  0.13236165091E+03 -0.73601369739E+02 -0.46423065840E+03  0.50405593114E+03  0.12500203701E+03 0.  0.
         25    2    1    2    0    0 -0.13236165091E+03  0.73601369739E+02 -0.61309077657E+03  0.64377293715E+03  0.12500610397E+03 0.  0.
          5    1    3    3  501    0  0.10198347693E+03  0.93891810135E+01 -0.30651500320E+03  0.32320631720E+03  0.47000000000E+01 0. -1.
         -5    1    3    3    0  501  0.30378173982E+02 -0.82990550752E+02 -0.15771565520E+03  0.18084961394E+03  0.47000000000E+01 0. -1.
          5    1    4    4  502    0 -0.26294554024E+02 -0.55016632984E+01 -0.33138119986E+03  0.33250152104E+03  0.47000000000E+01 0.  1.
         -5    1    4    4    0  502 -0.10606709689E+03  0.79103033037E+02 -0.28170957671E+03  0.31127141611E+03  0.47000000000E+01 0.  1.
<mgrwt>
<rscale>  0 0.39609296E+03</rscale>
<asrwt>0</asrwt>
<pdfrwt beam="1">  1       21 0.54236483E-02 0.39609296E+03</pdfrwt>
<pdfrwt beam="2">  1       21 0.17116542E+00 0.39609296E+03</pdfrwt>
<totfact> 0.44927000E+04</totfact>
</mgrwt>
</event>
<event>
 8    1  0.9569852E-006  0.5836739E+03  0.7546771E-02  0.9939869E-01
         21   -1    0    0  504  503  0.00000000000E+00  0.00000000000E+00  0.16958981936E+03  0.16958981936E+03  0.00000000000E+00 0. -1.
         21   -1    0    0  503  504 -0.00000000000E+00 -0.00000000000E+00 -0.50220477666E+03  0.50220477666E+03  0.00000000000E+00 0. -1.
         25    2    1    2    0    0 -0.10639096914E+03  0.18977441979E+03  0.52247408179E+01  0.25096908925E+03  0.12499926848E+03 0.  0.
         25    2    1    2    0    0  0.10639096914E+03 -0.18977441979E+03 -0.33783969812E+03  0.42082550677E+03  0.12500030720E+03 0.  0.
          5    1    3    3  501    0 -0.10229733657E+03  0.56651932481E+02  0.11207765816E+02  0.11756653664E+03  0.47000000000E+01 0.  1.
         -5    1    3    3    0  501 -0.40936325783E+01  0.13312248731E+03 -0.59830249977E+01  0.13340255262E+03  0.47000000000E+01 0.  1.
          5    1    4    4  502    0  0.40378448307E+02 -0.11950940395E+03 -0.28284046001E+03  0.30973171058E+03  0.47000000000E+01 0.  1.
         -5    1    4    4    0  502  0.66012520837E+02 -0.70265015849E+02 -0.54999238105E+02  0.11109379619E+03  0.47000000000E+01 0.  1.
<mgrwt>
<rscale>  0 0.58367394E+03</rscale>
<asrwt>0</asrwt>
<pdfrwt beam="1">  1       21 0.26090742E-01 0.58367394E+03</pdfrwt>
<pdfrwt beam="2">  1       21 0.77262271E-01 0.58367394E+03</pdfrwt>
<totfact> 0.18167604E+04</totfact>
</mgrwt>
</event>
<event>
 8    1  0.9569852E-006  0.2919921E+03  0.7546771E-02  0.1089314E+00
         21   -1    0    0  504  503  0.00000000000E+00  0.00000000000E+00  0.99372810072E+03  0.99372810072E+03  0.00000000000E+00 0. -1.
         21   -1    0    0  503  504 -0.00000000000E+00 -0.00000000000E+00 -0.21449369534E+02  0.21449369534E+02  0.00000000000E+00 0. -1.
         25    2    1    2    0    0  0.36798599230E+02  0.37298340193E+01  0.71474064530E+03  0.72653113785E+03  0.12500102262E+03 0.  0.
         25    2    1    2    0    0 -0.36798599230E+02 -0.37298340193E+01  0.25753808588E+03  0.28864633240E+03  0.12499116353E+03 0.  0.
          5    1    3    3  501    0  0.65126716509E+02 -0.27619744735E+02  0.25024976514E+03  0.26009877827E+03  0.47000000000E+01 0.  1.
         -5    1    3    3    0  501 -0.28328117279E+02  0.31349578754E+02  0.46449088016E+03  0.46643235959E+03  0.47000000000E+01 0.  1.
          5    1    4    4  502    0 -0.49700438118E+02 -0.30399926732E+02  0.44383283922E+02  0.73391109722E+02  0.47000000000E+01 0.  1.
         -5    1    4    4    0  502  0.12901838888E+02  0.26670092713E+02  0.21315480196E+03  0.21525522267E+03  0.47000000000E+01 0.  1.
<mgrwt>
<rscale>  0 0.29199206E+03</rscale>
<asrwt>0</asrwt>
<pdfrwt beam="1">  1       21 0.15288121E+00 0.29199206E+03</pdfrwt>
<pdfrwt beam="2">  1       21 0.32999038E-02 0.29199206E+03</pdfrwt>
<totfact> 0.14782650E+05</totfact>
</mgrwt>
</event>
<event>
 8    1  0.9569852E-006  0.3737099E+03  0.7546771E-02  0.1053283E+00
         21   -1    0    0  504  503  0.00000000000E+00  0.00000000000E+00  0.11294683897E+03  0.11294683897E+03  0.00000000000E+00 0.  1.
         21   -1    0    0  503  504 -0.00000000000E+00 -0.00000000000E+00 -0.30912575377E+03  0.30912575377E+03  0.00000000000E+00 0.  1.
         25    2    1    2    0    0  0.68927693966E+02 -0.41989503475E+02 -0.22573499344E+03  0.27037095715E+03  0.12502008563E+03 0.  0.
         25    2    1    2    0    0 -0.68927693966E+02  0.41989503475E+02  0.29556078635E+02  0.15170163559E+03  0.12500271621E+03 0.  0.
          5    1    3    3  501    0  0.99004712496E+01  0.42476231512E+02 -0.87602738495E+02  0.97972339802E+02  0.47000000000E+01 0.  1.
         -5    1    3    3    0  501  0.59027222716E+02 -0.84465734986E+02 -0.13813225494E+03  0.17239861735E+03  0.47000000000E+01 0.  1.
          5    1    4    4  502    0  0.16920019938E+02 -0.30173749634E+01  0.49517691423E+02  0.52625881373E+02  0.47000000000E+01 0. -1.
         -5    1    4    4    0  502 -0.85847713903E+02  0.45006878438E+02 -0.19961612788E+02  0.99075754220E+02  0.47000000000E+01 0. -1.
<mgrwt>
<rscale>  0 0.37370992E+03</rscale>
<asrwt>0</asrwt>
<pdfrwt beam="1">  1       21 0.17376437E-01 0.37370992E+03</pdfrwt>
<pdfrwt beam="2">  1       21 0.47557808E-01 0.37370992E+03</pdfrwt>
<totfact> 0.12034316E+05</totfact>
</mgrwt>
</event>
<event>
 8    1  0.9569852E-006  0.3307367E+03  0.7546771E-02  0.1070811E+00
         21   -1    0    0  504  503  0.00000000000E+00  0.00000000000E+00  0.11120281886E+03  0.11120281886E+03  0.00000000000E+00 0. -1.
         21   -1    0    0  503  504 -0.00000000000E+00 -0.00000000000E+00 -0.24591726294E+03  0.24591726294E+03  0.00000000000E+00 0. -1.
         25    2    1    2    0    0 -0.22328944240E+02 -0.71700704811E+01 -0.18148321677E+03  0.22161209611E+03  0.12500308600E+03 0.  0.
         25    2    1    2    0    0  0.22328944240E+02  0.71700704811E+01  0.46768772691E+02  0.13550798569E+03  0.12500041770E+03 0.  0.
          5    1    3    3  501    0 -0.59808912206E+02  0.19185216249E+02 -0.15761844456E+03  0.16973756970E+03  0.47000000000E+01 0. -1.
         -5    1    3    3    0  501  0.37479967966E+02 -0.26355286730E+02 -0.23864772211E+02  0.51874526408E+02  0.47000000000E+01 0. -1.
          5    1    4    4  502    0  0.24365246762E+02  0.48104590597E+02 -0.19427998102E+02  0.57508729742E+02  0.47000000000E+01 0. -1.
         -5    1    4    4    0  502 -0.20363025221E+01 -0.40934520116E+02  0.66196770793E+02  0.77999255949E+02  0.47000000000E+01 0. -1.
<mgrwt>
<rscale>  0 0.33073671E+03</rscale>
<asrwt>0</asrwt>
<pdfrwt beam="1">  1       21 0.17108126E-01 0.33073671E+03</pdfrwt>
<pdfrwt beam="2">  1       21 0.37833425E-01 0.33073671E+03</pdfrwt>
<totfact> 0.20053786E+05</totfact>
</mgrwt>
</event>
<event>
 8    1  0.9569852E-006  0.2753092E+03  0.7546771E-02  0.1098279E+00
         21   -1    0    0  504  503  0.00000000000E+00  0.00000000000E+00  0.10449118366E+03  0.10449118366E+03  0.00000000000E+00 0.  1.
         21   -1    0    0  503  504 -0.00000000000E+00 -0.00000000000E+00 -0.18134336873E+03  0.18134336873E+03  0.00000000000E+00 0.  1.
         25    2    1    2    0    0 -0.36039419036E+02  0.44194819305E+02 -0.47219835114E+02  0.14527416496E+03  0.12499139330E+03 0.  0.
         25    2    1    2    0    0  0.36039419036E+02 -0.44194819305E+02 -0.29632349962E+02  0.14056038742E+03  0.12500849799E+03 0.  0.
          5    1    3    3  501    0 -0.80457356460E+02  0.25743737716E+02 -0.11950695109E+02  0.85446096188E+02  0.47000000000E+01 0. -1.
         -5    1    3    3    0  501  0.44417937424E+02  0.18451081589E+02 -0.35269140006E+02  0.59828068777E+02  0.47000000000E+01 0. -1.
          5    1    4    4  502    0  0.32423980888E+02 -0.87581226764E+02 -0.17637433518E+02  0.95157526656E+02  0.47000000000E+01 0. -1.
         -5    1    4    4    0  502  0.36154381473E+01  0.43386407459E+02 -0.11994916444E+02  0.45402860766E+02  0.47000000000E+01 0. -1.
<mgrwt>
<rscale>  0 0.27530916E+03</rscale>
<asrwt>0</asrwt>
<pdfrwt beam="1">  1       21 0.16075567E-01 0.27530916E+03</pdfrwt>
<pdfrwt beam="2">  1       21 0.27898979E-01 0.27530916E+03</pdfrwt>
<totfact> 0.41695324E+05</totfact>
</mgrwt>
</event>
<event>
 8    1  0.9569852E-006  0.3642328E+03  0.7546771E-02  0.1056920E+00
         21   -1    0    0  504  503  0.00000000000E+00  0.00000000000E+00  0.76264098121E+03  0.76264098121E+03  0.00000000000E+00 0. -1.
         21   -1    0    0  503  504 -0.00000000000E+00 -0.00000000000E+00 -0.43488865436E+02  0.43488865436E+02  0.00000000000E+00 0. -1.
         25    2    1    2    0    0  0.51648068531E+02 -0.12195877280E+03  0.36045446401E+03  0.40384815068E+03  0.12499777174E+03 0.  0.
         25    2    1    2    0    0 -0.51648068531E+02  0.12195877280E+03  0.35869765177E+03  0.40228169597E+03  0.12500036912E+03 0.  0.
          5    1    3    3  501    0  0.82831763174E+02 -0.96916466085E+02  0.19110165234E+03  0.22977344040E+03  0.47000000000E+01 0. -1.
         -5    1    3    3    0  501 -0.31183694643E+02 -0.25042306715E+02  0.16935281167E+03  0.17407471028E+03  0.47000000000E+01 0. -1.
          5    1    4    4  502    0 -0.68678256615E+02  0.13314072652E+02  0.11191829091E+03  0.13206726052E+03  0.47000000000E+01 0.  1.
         -5    1    4    4    0  502  0.17030188084E+02  0.10864470015E+03  0.24677936086E+03  0.27021443544E+03  0.47000000000E+01 0.  1.
<mgrwt>
<rscale>  0 0.36423284E+03</rscale>
<asrwt>0</asrwt>
<pdfrwt beam="1">  1       21 0.11732937E+00 0.36423284E+03</pdfrwt>
<pdfrwt beam="2">  1       21 0.66905952E-02 0.36423284E+03</pdfrwt>
<totfact> 0.85982486E+04</totfact>
</mgrwt>
</event>
<event>
 8    1  0.9569852E-006  0.2660252E+03  0.7546771E-02  0.1103576E+00
         21   -1    0    0  504  503  0.00000000000E+00  0.00000000000E+00  0.10697100524E+03  0.10697100524E+03  0.00000000000E+00 0. -1.
         21   -1    0    0  503  504 -0.00000000000E+00 -0.00000000000E+00 -0.16539384758E+03  0.16539384758E+03  0.00000000000E+00 0. -1.
         25    2    1    2    0    0 -0.49305765136E+01 -0.42548447343E+02 -0.13642662653E+02  0.13285380959E+03  0.12501732489E+03 0.  0.
         25    2    1    2    0    0  0.49305765136E+01  0.42548447343E+02 -0.44780179686E+02  0.13951104323E+03  0.12499354277E+03 0.  0.
          5    1    3    3  501    0  0.19129789532E+02 -0.37553522650E+02  0.49354462197E+02  0.65070491389E+02  0.47000000000E+01 0. -1.
         -5    1    3    3    0  501 -0.24060366045E+02 -0.49949246929E+01 -0.62997124849E+02  0.67783318200E+02  0.47000000000E+01 0. -1.
          5    1    4    4  502    0  0.58895202267E+02 -0.49464140798E+01 -0.27861065760E+02  0.65509089809E+02  0.47000000000E+01 0. -1.
         -5    1    4    4    0  502 -0.53964625753E+02  0.47494861423E+02 -0.16919113927E+02  0.74001953422E+02  0.47000000000E+01 0. -1.
<mgrwt>
<rscale>  0 0.26602516E+03</rscale>
<asrwt>0</asrwt>
<pdfrwt beam="1">  1       21 0.16457078E-01 0.26602516E+03</pdfrwt>
<pdfrwt beam="2">  1       21 0.25445207E-01 0.26602516E+03</pdfrwt>
<totfact> 0.47803450E+05</totfact>
</mgrwt>
</event>
<event>
 8    1  0.9569852E-006  0.2939881E+03  0.7546771E-02  0.1088285E+00
         21   -1    0    0  504  503  0.00000000000E+00  0.00000000000E+00  0.17532780555E+03  0.17532780555E+03  0.00000000000E+00 0.  1.
         21   -1    0    0  503  504 -0.00000000000E+00 -0.00000000000E+00 -0.12323917529E+03  0.12323917529E+03  0.00000000000E+00 0.  1.
         25    2    1    2    0    0  0.57414029575E+02 -0.18006805936E+02  0.75414127469E+02  0.15790280326E+03  0.12500155521E+03 0.  0.
         25    2    1    2    0    0 -0.57414029575E+02  0.18006805936E+02 -0.23325497209E+02  0.14066417758E+03  0.12498686404E+03 0.  0.
          5    1    3    3  501    0  0.18067157734E+02 -0.35903132772E+02  0.10005301761E+03  0.10792661148E+03  0.47000000000E+01 0.  1.
         -5    1    3    3    0  501  0.39346871842E+02  0.17896326836E+02 -0.24638890143E+02  0.49976191786E+02  0.47000000000E+01 0.  1.
          5    1    4    4  502    0 -0.84766567707E+02 -0.24131353524E+02 -0.14984532646E+02  0.89522731428E+02  0.47000000000E+01 0.  1.
         -5    1    4    4    0  502  0.27352538132E+02  0.42138159460E+02 -0.83409645629E+01  0.51141446155E+02  0.47000000000E+01 0.  1.
<mgrwt>
<rscale>  0 0.29398812E+03</rscale>
<asrwt>0</asrwt>
<pdfrwt beam="1">  1       21 0.26973509E-01 0.29398812E+03</pdfrwt>
<pdfrwt beam="2">  1       21 0.18959873E-01 0.29398812E+03</pdfrwt>
<totfact> 0.32639662E+05</totfact>
</mgrwt>
</event>
<event>
 8    1  0.9569852E-006  0.4616149E+03  0.7546771E-02  0.1024314E+00
         21   -1    0    0  504  503  0.00000000000E+00  0.00000000000E+00  0.15537746979E+04  0.15537746979E+04  0.00000000000E+00 0. -1.
         21   -1    0    0  503  504 -0.00000000000E+00 -0.00000000000E+00 -0.34285585393E+02  0.34285585393E+02  0.00000000000E+00 0. -1.
         25    2    1    2    0    0 -0.19262134381E+03 -0.19575331546E+02  0.80342583967E+03  0.83582499385E+03  0.12499665915E+03 0.  0.
         25    2    1    2    0    0  0.19262134381E+03  0.19575331546E+02  0.71606327284E+03  0.75223528945E+03  0.12500057711E+03 0.  0.
          5    1    3    3  501    0 -0.73880513426E+02 -0.41206903612E+02  0.53243766423E+03  0.53913662040E+03  0.47000000000E+01 0.  1.
         -5    1    3    3    0  501 -0.11874083038E+03  0.21631572067E+02  0.27098817544E+03  0.29668837344E+03  0.47000000000E+01 0.  1.
          5    1    4    4  502    0  0.19529362972E+03  0.32419257808E+02  0.70989384339E+03  0.73699522995E+03  0.47000000000E+01 0.  1.
         -5    1    4    4    0  502 -0.26722859044E+01 -0.12843926262E+02  0.61694294555E+01  0.15240059500E+02  0.47000000000E+01 0.  1.
<mgrwt>
<rscale>  0 0.46161488E+03</rscale>
<asrwt>0</asrwt>
<pdfrwt beam="1">  1       21 0.23904221E+00 0.46161488E+03</pdfrwt>
<pdfrwt beam="2">  1       21 0.52747066E-02 0.46161488E+03</pdfrwt>
<totfact> 0.16380098E+04</totfact>
</mgrwt>
</event>
<event>
 8    1  0.9569852E-006  0.2573478E+03  0.7546771E-02  0.1108747E+00
         21   -1    0    0  504  503  0.00000000000E+00  0.00000000000E+00  0.38094099457E+02  0.38094099457E+02  0.00000000000E+00 0.  1.
         21   -1    0    0  503  504 -0.00000000000E+00 -0.00000000000E+00 -0.43463353039E+03  0.43463353039E+03  0.00000000000E+00 0.  1.
         25    2    1    2    0    0  0.95504780303E+01  0.28139666546E+02 -0.21133097391E+03  0.24731623473E+03  0.12498594706E+03 0.  0.
         25    2    1    2    0    0 -0.95504780303E+01 -0.28139666546E+02 -0.18520845703E+03  0.22541139512E+03  0.12500028813E+03 0.  0.
          5    1    3    3  501    0  0.83739805119E+00  0.44367677336E+02 -0.10833994542E+02  0.45920120486E+02  0.47000000000E+01 0. -1.
         -5    1    3    3    0  501  0.87130799791E+01 -0.16228010790E+02 -0.20049697936E+03  0.20139611424E+03  0.47000000000E+01 0. -1.
          5    1    4    4  502    0  0.16058990714E+02 -0.34611714949E+02 -0.17662188275E+00  0.38444546944E+02  0.47000000000E+01 0.  1.
         -5    1    4    4    0  502 -0.25609468745E+02  0.64720484031E+01 -0.18503183515E+03  0.18696684818E+03  0.47000000000E+01 0.  1.
<mgrwt>
<rscale>  0 0.25734780E+03</rscale>
<asrwt>0</asrwt>
<pdfrwt beam="1">  1       21 0.58606307E-02 0.25734780E+03</pdfrwt>
<pdfrwt beam="2">  1       21 0.66866697E-01 0.25734780E+03</pdfrwt>
<totfact> 0.41439245E+05</totfact>
</mgrwt>
</event>
<event>
 8    1  0.9569852E-006  0.2551961E+03  0.7546771E-02  0.1110064E+00
         21   -1    0    0  504  503  0.00000000000E+00  0.00000000000E+00  0.40033683590E+03  0.40033683590E+03  0.00000000000E+00 0. -1.
         21   -1    0    0  503  504 -0.00000000000E+00 -0.00000000000E+00 -0.40668913046E+02  0.40668913046E+02  0.00000000000E+00 0. -1.
         25    2    1    2    0    0  0.22892676347E+02 -0.76110220406E+01  0.16494728871E+03  0.20836164604E+03  0.12499986080E+03 0.  0.
         25    2    1    2    0    0 -0.22892676347E+02  0.76110220406E+01  0.19472063414E+03  0.23264410291E+03  0.12500060388E+03 0.  0.
          5    1    3    3  501    0  0.42929740172E+02 -0.37780865501E+02  0.23044308425E+02  0.61834347575E+02  0.47000000000E+01 0. -1.
         -5    1    3    3    0  501 -0.20037063825E+02  0.30169843461E+02  0.14190298028E+03  0.14652729846E+03  0.47000000000E+01 0. -1.
          5    1    4    4  502    0  0.39677869311E+02 -0.20676086986E+02  0.13225199907E+03  0.13969436332E+03  0.47000000000E+01 0. -1.
         -5    1    4    4    0  502 -0.62570545659E+02  0.28287109026E+02  0.62468635077E+02  0.92949739588E+02  0.47000000000E+01 0. -1.
<mgrwt>
<rscale>  0 0.25519611E+03</rscale>
<asrwt>0</asrwt>
<pdfrwt beam="1">  1       21 0.61590280E-01 0.25519611E+03</pdfrwt>
<pdfrwt beam="2">  1       21 0.62567561E-02 0.25519611E+03</pdfrwt>
<totfact> 0.44334498E+05</totfact>
</mgrwt>
</event>
<event>
 8    1  0.9569852E-006  0.3699908E+03  0.7546771E-02  0.1054696E+00
         21   -1    0    0  504  503  0.00000000000E+00  0.00000000000E+00  0.35253055732E+03  0.35253055732E+03  0.00000000000E+00 0.  1.
         21   -1    0    0  503  504 -0.00000000000E+00 -0.00000000000E+00 -0.97078949494E+02  0.97078949494E+02  0.00000000000E+00 0.  1.
         25    2    1    2    0    0 -0.99952921302E+02 -0.70318811428E+02  0.20130518821E+03  0.26661112904E+03  0.12498957400E+03 0.  0.
         25    2    1    2    0    0  0.99952921302E+02  0.70318811428E+02  0.54146419612E+02  0.18299837777E+03  0.12498499828E+03 0.  0.
          5    1    3    3  501    0 -0.10107160142E+03 -0.50404552527E+02  0.68375562608E+02  0.13211129812E+03  0.47000000000E+01 0.  1.
         -5    1    3    3    0  501  0.11186801221E+01 -0.19914258901E+02  0.13292962560E+03  0.13449983091E+03  0.47000000000E+01 0.  1.
          5    1    4    4  502    0  0.21964515473E+02  0.87783271677E+02  0.89215086467E+01  0.91049580135E+02  0.47000000000E+01 0. -1.
         -5    1    4    4    0  502  0.77988405829E+02 -0.17464460249E+02  0.45224910965E+02  0.91948797639E+02  0.47000000000E+01 0. -1.
<mgrwt>
<rscale>  0 0.36999079E+03</rscale>
<asrwt>0</asrwt>
<pdfrwt beam="1">  1       21 0.54235470E-01 0.36999079E+03</pdfrwt>
<pdfrwt beam="2">  1       21 0.14935223E-01 0.36999079E+03</pdfrwt>
<totfact> 0.12072966E+05</totfact>
</mgrwt>
</event>
<event>
 8    1  0.9569852E-006  0.3199051E+03  0.7546771E-02  0.1075693E+00
         21   -1    0    0  504  503  0.00000000000E+00  0.00000000000E+00  0.10279117667E+03  0.10279117667E+03  0.00000000000E+00 0. -1.
         21   -1    0    0  503  504 -0.00000000000E+00 -0.00000000000E+00 -0.24890095764E+03  0.24890095764E+03  0.00000000000E+00 0. -1.
         25    2    1    2    0    0  0.57039881533E+02  0.40992841942E+02 -0.15098971742E+03  0.20822287615E+03  0.12499964085E+03 0.  0.
         25    2    1    2    0    0 -0.57039881533E+02 -0.40992841942E+02  0.48799364562E+01  0.14346925816E+03  0.12500261229E+03 0.  0.
          5    1    3    3  501    0  0.42468721698E+02 -0.26844246689E+02 -0.12355774836E+03  0.13346465106E+03  0.47000000000E+01 0. -1.
         -5    1    3    3    0  501  0.14571159835E+02  0.67837088630E+02 -0.27431969060E+02  0.74758225095E+02  0.47000000000E+01 0. -1.
          5    1    4    4  502    0  0.37256515434E+02 -0.28536278277E+02 -0.63022305160E+01  0.47583350340E+02  0.47000000000E+01 0.  1.
         -5    1    4    4    0  502 -0.94296396967E+02 -0.12456563665E+02  0.11182166972E+02  0.95885907815E+02  0.47000000000E+01 0.  1.
<mgrwt>
<rscale>  0 0.31990513E+03</rscale>
<asrwt>0</asrwt>
<pdfrwt beam="1">  1       21 0.15814027E-01 0.31990513E+03</pdfrwt>
<pdfrwt beam="2">  1       21 0.38292455E-01 0.31990513E+03</pdfrwt>
<totfact> 0.22695131E+05</totfact>
</mgrwt>
</event>
<event>
 8    1  0.9569852E-006  0.3008033E+03  0.7546771E-02  0.1084840E+00
         21   -1    0    0  504  503  0.00000000000E+00  0.00000000000E+00  0.12363173947E+03  0.12363173947E+03  0.00000000000E+00 0.  1.
         21   -1    0    0  503  504 -0.00000000000E+00 -0.00000000000E+00 -0.18296797994E+03  0.18296797994E+03  0.00000000000E+00 0.  1.
         25    2    1    2    0    0  0.96619978858E+01  0.79895334511E+02 -0.64447808613E+01  0.14880102608E+03  0.12499436580E+03 0.  0.
         25    2    1    2    0    0 -0.96619978858E+01 -0.79895334511E+02 -0.52891459614E+02  0.15779869333E+03  0.12500520964E+03 0.  0.
          5    1    3    3  501    0  0.34895682886E+02 -0.21544583067E+02 -0.14749416718E+02  0.43835066295E+02  0.47000000000E+01 0. -1.
         -5    1    3    3    0  501 -0.25233685000E+02  0.10143991758E+03  0.83046358569E+01  0.10496595978E+03  0.47000000000E+01 0. -1.
          5    1    4    4  502    0 -0.43571630236E+02 -0.90441090483E+02 -0.86465511246E+01  0.10087086128E+03  0.47000000000E+01 0.  1.
         -5    1    4    4    0  502  0.33909632350E+02  0.10545755972E+02 -0.44244908489E+02  0.56927832054E+02  0.47000000000E+01 0.  1.
<mgrwt>
<rscale>  0 0.30080326E+03</rscale>
<asrwt>0</asrwt>
<pdfrwt beam="1">  1       21 0.19020268E-01 0.30080326E+03</pdfrwt>
<pdfrwt beam="2">  1       21 0.28148920E-01 0.30080326E+03</pdfrwt>
<totfact> 0.29816980E+05</totfact>
</mgrwt>
</event>
<event>
 8    1  0.9569852E-006  0.2956078E+03  0.7546771E-02  0.1087457E+00
         21   -1    0    0  504  503  0.00000000000E+00  0.00000000000E+00  0.23039487590E+03  0.23039487590E+03  0.00000000000E+00 0.  1.
         21   -1    0    0  503  504 -0.00000000000E+00 -0.00000000000E+00 -0.94819814089E+02  0.94819814089E+02  0.00000000000E+00 0.  1.
         25    2    1    2    0    0  0.68872058513E+02 -0.34129616824E+02  0.87235295269E+02  0.17071223740E+03  0.12499792027E+03 0.  0.
         25    2    1    2    0    0 -0.68872058513E+02  0.34129616824E+02  0.48339766543E+02  0.15450245259E+03  0.12500433447E+03 0.  0.
          5    1    3    3  501    0  0.50028338848E+02 -0.41909377560E+02  0.11716371714E+03  0.13419633836E+03  0.47000000000E+01 0.  1.
         -5    1    3    3    0  501  0.18843719665E+02  0.77797607353E+01 -0.29928421866E+02  0.36515899048E+02  0.47000000000E+01 0.  1.
          5    1    4    4  502    0 -0.19921548020E+02  0.76494071121E+02  0.41032102855E+02  0.89184833110E+02  0.47000000000E+01 0.  1.
         -5    1    4    4    0  502 -0.48950510493E+02 -0.42364454297E+02  0.73076636882E+01  0.65317619475E+02  0.47000000000E+01 0.  1.
<mgrwt>
<rscale>  0 0.29560784E+03</rscale>
<asrwt>0</asrwt>
<pdfrwt beam="1">  1       21 0.35445365E-01 0.29560784E+03</pdfrwt>
<pdfrwt beam="2">  1       21 0.14587664E-01 0.29560784E+03</pdfrwt>
<totfact> 0.30929922E+05</totfact>
</mgrwt>
</event>
<event>
 8    1  0.9569852E-006  0.5175956E+03  0.7546771E-02  0.1009286E+00
         21   -1    0    0  504  503  0.00000000000E+00  0.00000000000E+00  0.33752493776E+03  0.33752493776E+03  0.00000000000E+00 0. -1.
         21   -1    0    0  503  504 -0.00000000000E+00 -0.00000000000E+00 -0.19843364316E+03  0.19843364316E+03  0.00000000000E+00 0. -1.
         25    2    1    2    0    0 -0.13898270058E+03 -0.17756825434E+03  0.92783586609E+02  0.27400962525E+03  0.12500321906E+03 0.  0.
         25    2    1    2    0    0  0.13898270058E+03  0.17756825434E+03  0.46307707988E+02  0.26194895568E+03  0.12500470212E+03 0.  0.
          5    1    3    3  501    0 -0.15648000833E+03 -0.16427961731E+03  0.10314336308E+03  0.24926778576E+03  0.47000000000E+01 0.  1.
         -5    1    3    3    0  501  0.17497307749E+02 -0.13288637035E+02 -0.10359776476E+02  0.24741839490E+02  0.47000000000E+01 0.  1.
          5    1    4    4  502    0  0.13461742088E+03  0.17848051518E+03  0.86863142657E+01  0.22377373921E+03  0.47000000000E+01 0.  1.
         -5    1    4    4    0  502  0.43652796963E+01 -0.91226084333E+00  0.37621393722E+02  0.38175216466E+02  0.47000000000E+01 0.  1.
<mgrwt>
<rscale>  0 0.51759561E+03</rscale>
<asrwt>0</asrwt>
<pdfrwt beam="1">  1       21 0.51926913E-01 0.51759561E+03</pdfrwt>
<pdfrwt beam="2">  1       21 0.30528253E-01 0.51759561E+03</pdfrwt>
<totfact> 0.32640484E+04</totfact>
</mgrwt>
</event>
<event>
 8    1  0.9569852E-006  0.4775173E+03  0.7546771E-02  0.1019820E+00
         21   -1    0    0  504  503  0.00000000000E+00  0.00000000000E+00  0.90505615484E+03  0.90505615484E+03  0.00000000000E+00 0. -1.
         21   -1    0    0  503  504 -0.00000000000E+00 -0.00000000000E+00 -0.62985800236E+02  0.62985800236E+02  0.00000000000E+00 0. -1.
         25    2    1    2    0    0 -0.17439019263E+02  0.14655360068E+03  0.13723580879E+03  0.23715391226E+03  0.12500493438E+03 0.  0.
         25    2    1    2    0    0  0.17439019263E+02 -0.14655360068E+03  0.70483454582E+03  0.73088804282E+03  0.12499406743E+03 0.  0.
          5    1    3    3  501    0 -0.34419332206E+02  0.84717823702E+01  0.78130831373E+02  0.85924259305E+02  0.47000000000E+01 0.  1.
         -5    1    3    3    0  501  0.16980312943E+02  0.13808181831E+03  0.59104977412E+02  0.15122965295E+03  0.47000000000E+01 0.  1.
          5    1    4    4  502    0  0.45763211727E+02 -0.51092880089E+02  0.12604092713E+03  0.14357283607E+03  0.47000000000E+01 0.  1.
         -5    1    4    4    0  502 -0.28324192465E+02 -0.95460720596E+02  0.57879361869E+03  0.58731520676E+03  0.47000000000E+01 0.  1.
<mgrwt>
<rscale>  0 0.47751727E+03</rscale>
<asrwt>0</asrwt>
<pdfrwt beam="1">  1       21 0.13923940E+00 0.47751727E+03</pdfrwt>
<pdfrwt beam="2">  1       21 0.96901238E-02 0.47751727E+03</pdfrwt>
<totfact> 0.27856250E+04</totfact>
</mgrwt>
</event>
<event>
 8    1  0.9569852E-006  0.2751161E+03  0.7546771E-02  0.1098387E+00
         21   -1    0    0  504  503  0.00000000000E+00  0.00000000000E+00  0.65760455733E+03  0.65760455733E+03  0.00000000000E+00 0. -1.
         21   -1    0    0  503  504 -0.00000000000E+00 -0.00000000000E+00 -0.28774462939E+02  0.28774462939E+02  0.00000000000E+00 0. -1.
         25    2    1    2    0    0  0.24730401241E+02 -0.43793715345E+02  0.38349352760E+03  0.40647860582E+03  0.12501235551E+03 0.  0.
         25    2    1    2    0    0 -0.24730401241E+02  0.43793715345E+02  0.24533656679E+03  0.27990041445E+03  0.12499891501E+03 0.  0.
          5    1    3    3  501    0 -0.36737877531E+02 -0.27732116464E+02  0.55041326850E+02  0.71905351613E+02  0.47000000000E+01 0.  1.
         -5    1    3    3    0  501  0.61468278772E+02 -0.16061598881E+02  0.32845220075E+03  0.33457325420E+03  0.47000000000E+01 0.  1.
          5    1    4    4  502    0 -0.27230783169E+02  0.86580930811E+02  0.15225338842E+03  0.17731598185E+03  0.47000000000E+01 0.  1.
         -5    1    4    4    0  502  0.25003819272E+01 -0.42787215466E+02  0.93083178368E+02  0.10258443260E+03  0.47000000000E+01 0.  1.
<mgrwt>
<rscale>  0 0.27511611E+03</rscale>
<asrwt>0</asrwt>
<pdfrwt beam="1">  1       21 0.10116992E+00 0.27511611E+03</pdfrwt>
<pdfrwt beam="2">  1       21 0.44268409E-02 0.27511611E+03</pdfrwt>
<totfact> 0.25764450E+05</totfact>
</mgrwt>
</event>
<event>
 8    1  0.9569852E-006  0.3133043E+03  0.7546771E-02  0.1078773E+00
         21   -1    0    0  504  503  0.00000000000E+00  0.00000000000E+00  0.54356614232E+02  0.54356614232E+02  0.00000000000E+00 0. -1.
         21   -1    0    0  503  504 -0.00000000000E+00 -0.00000000000E+00 -0.45146101928E+03  0.45146101928E+03  0.00000000000E+00 0. -1.
         25    2    1    2    0    0 -0.44775233338E+02  0.83009541438E+02 -0.19151930545E+03  0.24738645756E+03  0.12500003814E+03 0.  0.
         25    2    1    2    0    0  0.44775233338E+02 -0.83009541438E+02 -0.20558509959E+03  0.25843117595E+03  0.12500413608E+03 0.  0.
          5    1    3    3  501    0 -0.67123392864E+02  0.73604307441E+02 -0.66297397027E+02  0.11975215571E+03  0.47000000000E+01 0.  1.
         -5    1    3    3    0  501  0.22348159526E+02  0.94052339966E+01 -0.12522190843E+03  0.12763430186E+03  0.47000000000E+01 0.  1.
          5    1    4    4  502    0  0.25912467374E+02 -0.69151755364E+02 -0.27793969571E+02  0.79044392463E+02  0.47000000000E+01 0.  1.
         -5    1    4    4    0  502  0.18862765964E+02 -0.13857786074E+02 -0.17779113002E+03  0.17938678348E+03  0.47000000000E+01 0.  1.
<mgrwt>
<rscale>  0 0.31330428E+03</rscale>
<asrwt>0</asrwt>
<pdfrwt beam="1">  1       21 0.83625559E-02 0.31330428E+03</pdfrwt>
<pdfrwt beam="2">  1       21 0.69455542E-01 0.31330428E+03</pdfrwt>
<totfact> 0.20260372E+05</totfact>
</mgrwt>
</event>
<event>
 8    1  0.9569852E-006  0.3258138E+03  0.7546771E-02  0.1073004E+00
         21   -1    0    0  504  503  0.00000000000E+00  0.00000000000E+00  0.26669415150E+03  0.26669415150E+03  0.00000000000E+00 0. -1.
         21   -1    0    0  503  504 -0.00000000000E+00 -0.00000000000E+00 -0.99509681373E+02  0.99509681373E+02  0.00000000000E+00 0. -1.
         25    2    1    2    0    0  0.60990984310E+02  0.51467666260E+02  0.15935288643E+03  0.21767916596E+03  0.12498822361E+03 0.  0.
         25    2    1    2    0    0 -0.60990984310E+02 -0.51467666260E+02  0.78315836904E+01  0.14852466691E+03  0.12501768731E+03 0.  0.
          5    1    3    3  501    0  0.48579714636E+02 -0.31671496245E+02  0.96231482099E+02  0.11245292569E+03  0.47000000000E+01 0.  1.
         -5    1    3    3    0  501  0.12411269674E+02  0.83139162505E+02  0.63121404333E+02  0.10522624027E+03  0.47000000000E+01 0.  1.
          5    1    4    4  502    0 -0.42952723099E+02 -0.13498282868E+02  0.63888106730E+02  0.78300193126E+02  0.47000000000E+01 0.  1.
         -5    1    4    4    0  502 -0.18038261211E+02 -0.37969383392E+02 -0.56056523040E+02  0.70224473782E+02  0.47000000000E+01 0.  1.
<mgrwt>
<rscale>  0 0.32581375E+03</rscale>
<asrwt>0</asrwt>
<pdfrwt beam="1">  1       21 0.41029869E-01 0.32581375E+03</pdfrwt>
<pdfrwt beam="2">  1       21 0.15309182E-01 0.32581375E+03</pdfrwt>
<totfact> 0.20902629E+05</totfact>
</mgrwt>
</event>
<event>
 8    1  0.9569852E-006  0.3012422E+03  0.7546771E-02  0.1084621E+00
         21   -1    0    0  504  503  0.00000000000E+00  0.00000000000E+00  0.71367721445E+03  0.71367721445E+03  0.00000000000E+00 0.  1.
         21   -1    0    0  503  504 -0.00000000000E+00 -0.00000000000E+00 -0.31788480724E+02  0.31788480724E+02  0.00000000000E+00 0.  1.
         25    2    1    2    0    0 -0.59345034531E+02  0.41673611054E+02  0.23585779538E+03  0.27660922742E+03  0.12500096827E+03 0.  0.
         25    2    1    2    0    0  0.59345034531E+02 -0.41673611054E+02  0.44603093835E+03  0.46885646776E+03  0.12499706562E+03 0.  0.
          5    1    3    3  501    0 -0.62017593733E+02  0.83497210313E+00  0.22579118432E+03  0.23420210936E+03  0.47000000000E+01 0.  1.
         -5    1    3    3    0  501  0.26725592020E+01  0.40838638951E+02  0.10066611063E+02  0.42407118062E+02  0.47000000000E+01 0.  1.
          5    1    4    4  502    0 -0.29940880194E+02  0.17620919800E+02  0.78191799493E+02  0.85691310115E+02  0.47000000000E+01 0.  1.
         -5    1    4    4    0  502  0.89285914725E+02 -0.59294530854E+02  0.36783913885E+03  0.38316515764E+03  0.47000000000E+01 0.  1.
<mgrwt>
<rscale>  0 0.30124219E+03</rscale>
<asrwt>0</asrwt>
<pdfrwt beam="1">  1       21 0.10979648E+00 0.30124219E+03</pdfrwt>
<pdfrwt beam="2">  1       21 0.48905360E-02 0.30124219E+03</pdfrwt>
<totfact> 0.17700723E+05</totfact>
</mgrwt>
</event>
<event>
 8    1  0.9569852E-006  0.2905369E+03  0.7546771E-02  0.1090069E+00
         21   -1    0    0  504  503  0.00000000000E+00  0.00000000000E+00  0.10363063283E+04  0.10363063283E+04  0.00000000000E+00 0.  1.
         21   -1    0    0  503  504 -0.00000000000E+00 -0.00000000000E+00 -0.20363590340E+02  0.20363590340E+02  0.00000000000E+00 0.  1.
         25    2    1    2    0    0 -0.46350633935E+02 -0.32129176332E+02  0.68232447645E+03  0.69596653573E+03  0.12498824930E+03 0.  0.
         25    2    1    2    0    0  0.46350633935E+02  0.32129176332E+02  0.33361826154E+03  0.36070338294E+03  0.12500048316E+03 0.  0.
          5    1    3    3  501    0 -0.44446814541E+02 -0.56205546162E+02  0.19142729500E+03  0.20445312914E+03  0.47000000000E+01 0.  1.
         -5    1    3    3    0  501 -0.19038193945E+01  0.24076369830E+02  0.49089718145E+03  0.49151340660E+03  0.47000000000E+01 0.  1.
          5    1    4    4  502    0  0.88312695600E+02  0.34118442713E+02  0.23606272396E+03  0.25438337206E+03  0.47000000000E+01 0. -1.
         -5    1    4    4    0  502 -0.41962061664E+02 -0.19892663813E+01  0.97555537580E+02  0.10632001087E+03  0.47000000000E+01 0. -1.
<mgrwt>
<rscale>  0 0.29053687E+03</rscale>
<asrwt>0</asrwt>
<pdfrwt beam="1">  1       21 0.15943170E+00 0.29053687E+03</pdfrwt>
<pdfrwt beam="2">  1       21 0.31328609E-02 0.29053687E+03</pdfrwt>
<totfact> 0.14396520E+05</totfact>
</mgrwt>
</event>
<event>
 8    1  0.9569852E-006  0.3343943E+03  0.7546771E-02  0.1069209E+00
         21   -1    0    0  504  503  0.00000000000E+00  0.00000000000E+00  0.19379673365E+03  0.19379673365E+03  0.00000000000E+00 0.  1.
         21   -1    0    0  503  504 -0.00000000000E+00 -0.00000000000E+00 -0.14424848049E+03  0.14424848049E+03  0.00000000000E+00 0.  1.
         25    2    1    2    0    0  0.64081149638E+02  0.22620031665E+02  0.11354255585E+03  0.18203371599E+03  0.12500520868E+03 0.  0.
         25    2    1    2    0    0 -0.64081149638E+02 -0.22620031665E+02 -0.63994302686E+02  0.15601149814E+03  0.12500502872E+03 0.  0.
          5    1    3    3  501    0 -0.35048010077E+02 -0.34244093227E+00  0.52442219484E+02  0.63251534847E+02  0.47000000000E+01 0. -1.
         -5    1    3    3    0  501  0.99129159715E+02  0.22962472597E+02  0.61100336362E+02  0.11878218114E+03  0.47000000000E+01 0. -1.
          5    1    4    4  502    0  0.29232387284E+02  0.18534196170E+02  0.10707547702E+01  0.34946894136E+02  0.47000000000E+01 0.  1.
         -5    1    4    4    0  502 -0.93313536923E+02 -0.41154227835E+02 -0.65065057457E+02  0.12106460401E+03  0.47000000000E+01 0.  1.
<mgrwt>
<rscale>  0 0.33439428E+03</rscale>
<asrwt>0</asrwt>
<pdfrwt beam="1">  1       21 0.29814882E-01 0.33439428E+03</pdfrwt>
<pdfrwt beam="2">  1       21 0.22192074E-01 0.33439428E+03</pdfrwt>
<totfact> 0.19754155E+05</totfact>
</mgrwt>
</event>
<event>
 8    1  0.9569852E-006  0.2631338E+03  0.7546771E-02  0.1105275E+00
         21   -1    0    0  504  503  0.00000000000E+00  0.00000000000E+00  0.34169491964E+03  0.34169491964E+03  0.00000000000E+00 0.  1.
         21   -1    0    0  503  504 -0.00000000000E+00 -0.00000000000E+00 -0.50658789262E+02  0.50658789262E+02  0.00000000000E+00 0.  1.
         25    2    1    2    0    0  0.15351660634E+02  0.14530411190E+02  0.19798438883E+03  0.23509592676E+03  0.12500188088E+03 0.  0.
         25    2    1    2    0    0 -0.15351660634E+02 -0.14530411190E+02  0.93051741546E+02  0.15725778214E+03  0.12499830841E+03 0.  0.
          5    1    3    3  501    0 -0.31384423353E+02 -0.41597143442E+02  0.66507315588E+02  0.84620431330E+02  0.47000000000E+01 0. -1.
         -5    1    3    3    0  501  0.46736083987E+02  0.56127554632E+02  0.13147707324E+03  0.15047549543E+03  0.47000000000E+01 0. -1.
          5    1    4    4  502    0 -0.68921605043E+01 -0.18031140423E+02 -0.28791384537E+02  0.34980819386E+02  0.47000000000E+01 0. -1.
         -5    1    4    4    0  502 -0.84595001296E+01  0.35007292337E+01  0.12184312608E+03  0.12227696276E+03  0.47000000000E+01 0. -1.
<mgrwt>
<rscale>  0 0.26313381E+03</rscale>
<asrwt>0</asrwt>
<pdfrwt beam="1">  1       21 0.52568448E-01 0.26313381E+03</pdfrwt>
<pdfrwt beam="2">  1       21 0.77936601E-02 0.26313381E+03</pdfrwt>
<totfact> 0.42434441E+05</totfact>
</mgrwt>
</event>
<event>
 8    1  0.9569852E-006  0.3356024E+03  0.7546771E-02  0.1068685E+00
         21   -1    0    0  504  503  0.00000000000E+00  0.00000000000E+00  0.32928110349E+03  0.32928110349E+03  0.00000000000E+00 0.  1.
         21   -1    0    0  503  504 -0.00000000000E+00 -0.00000000000E+00 -0.85511274956E+02  0.85511274956E+02  0.00000000000E+00 0.  1.
         25    2    1    2    0    0  0.10297484181E+03  0.42384289592E+02  0.13608711111E+03  0.21574275066E+03  0.12499994641E+03 0.  0.
         25    2    1    2    0    0 -0.10297484181E+03 -0.42384289592E+02  0.10768271742E+03  0.19904962778E+03  0.12499976256E+03 0.  0.
          5    1    3    3  501    0  0.21360198562E+02  0.41293636426E+02  0.12473612434E+03  0.13320140092E+03  0.47000000000E+01 0.  1.
         -5    1    3    3    0  501  0.81614643243E+02  0.10906531652E+01  0.11350986767E+02  0.82541349738E+02  0.47000000000E+01 0.  1.
          5    1    4    4  502    0 -0.82573738536E+02  0.15623111128E+02  0.11723671141E+02  0.84982576816E+02  0.47000000000E+01 0. -1.
         -5    1    4    4    0  502 -0.20401103269E+02 -0.58007400719E+02  0.95959046284E+02  0.11406705097E+03  0.47000000000E+01 0. -1.
<mgrwt>
<rscale>  0 0.33560243E+03</rscale>
<asrwt>0</asrwt>
<pdfrwt beam="1">  1       21 0.50658631E-01 0.33560243E+03</pdfrwt>
<pdfrwt beam="2">  1       21 0.13155581E-01 0.33560243E+03</pdfrwt>
<totfact> 0.17753886E+05</totfact>
</mgrwt>
</event>
<event>
 8    1  0.9569852E-006  0.2757484E+03  0.7546771E-02  0.1098034E+00
         21   -1    0    0  504  503  0.00000000000E+00  0.00000000000E+00  0.89631164472E+02  0.89631164472E+02  0.00000000000E+00 0. -1.
         21   -1    0    0  503  504 -0.00000000000E+00 -0.00000000000E+00 -0.21208351811E+03  0.21208351811E+03  0.00000000000E+00 0. -1.
         25    2    1    2    0    0 -0.49309170764E+02  0.24523444508E+02 -0.40716008850E+02  0.14253387516E+03  0.12500127416E+03 0.  0.
         25    2    1    2    0    0  0.49309170764E+02 -0.24523444508E+02 -0.81736344785E+02  0.15918080742E+03  0.12499962295E+03 0.  0.
          5    1    3    3  501    0 -0.73580705870E+02 -0.27059049589E+02 -0.31379929203E+02  0.84576015500E+02  0.47000000000E+01 0. -1.
         -5    1    3    3    0  501  0.24271535106E+02  0.51582494097E+02 -0.93360796465E+01  0.57957859664E+02  0.47000000000E+01 0. -1.
          5    1    4    4  502    0  0.12599647033E+02 -0.23556030627E+01  0.33477937820E+02  0.36154699443E+02  0.47000000000E+01 0. -1.
         -5    1    4    4    0  502  0.36709523731E+02 -0.22167841445E+02 -0.11521428260E+03  0.12302610797E+03  0.47000000000E+01 0. -1.
<mgrwt>
<rscale>  0 0.27574838E+03</rscale>
<asrwt>0</asrwt>
<pdfrwt beam="1">  1       21 0.13789410E-01 0.27574838E+03</pdfrwt>
<pdfrwt beam="2">  1       21 0.32628233E-01 0.27574838E+03</pdfrwt>
<totfact> 0.40599877E+05</totfact>
</mgrwt>
</event>
<event>
 8    1  0.9569852E-006  0.3014346E+03  0.7546771E-02  0.1084526E+00
         21   -1    0    0  504  503  0.00000000000E+00  0.00000000000E+00  0.71964640283E+02  0.71964640283E+02  0.00000000000E+00 0. -1.
         21   -1    0    0  503  504 -0.00000000000E+00 -0.00000000000E+00 -0.31565091796E+03  0.31565091796E+03  0.00000000000E+00 0. -1.
         25    2    1    2    0    0  0.25918452558E+02 -0.32779635459E+02 -0.27840572892E+02  0.13470911090E+03  0.12500070551E+03 0.  0.
         25    2    1    2    0    0 -0.25918452558E+02  0.32779635459E+02 -0.21584570478E+03  0.25290644734E+03  0.12500412852E+03 0.  0.
          5    1    3    3  501    0  0.58463459523E+01  0.47804701696E+02 -0.64018340568E+01  0.48811297304E+02  0.47000000000E+01 0.  1.
         -5    1    3    3    0  501  0.20072106605E+02 -0.80584337155E+02 -0.21438738835E+02  0.85897813599E+02  0.47000000000E+01 0.  1.
          5    1    4    4  502    0 -0.31131548930E+02 -0.28304261225E+02 -0.17264748462E+03  0.17776261836E+03  0.47000000000E+01 0.  1.
         -5    1    4    4    0  502  0.52130963720E+01  0.61083896684E+02 -0.43198220168E+02  0.75143828978E+02  0.47000000000E+01 0.  1.
<mgrwt>
<rscale>  0 0.30143460E+03</rscale>
<asrwt>0</asrwt>
<pdfrwt beam="1">  1       21 0.11071483E-01 0.30143460E+03</pdfrwt>
<pdfrwt beam="2">  1       21 0.48561679E-01 0.30143460E+03</pdfrwt>
<totfact> 0.26709803E+05</totfact>
</mgrwt>
</event>
<event>
 8    1  0.9569852E-006  0.2915172E+03  0.7546771E-02  0.1089560E+00
         21   -1    0    0  504  503  0.00000000000E+00  0.00000000000E+00  0.41321795984E+02  0.41321795984E+02  0.00000000000E+00 0.  1.
         21   -1    0    0  503  504 -0.00000000000E+00 -0.00000000000E+00 -0.51414913214E+03  0.51414913214E+03  0.00000000000E+00 0.  1.
         25    2    1    2    0    0  0.10314370589E+02  0.54455446296E+02 -0.33264140275E+03  0.35964408558E+03  0.12498713374E+03 0.  0.
         25    2    1    2    0    0 -0.10314370589E+02 -0.54455446296E+02 -0.14018593341E+03  0.19582684254E+03  0.12499709781E+03 0.  0.
          5    1    3    3  501    0 -0.22914815003E+02  0.83607106735E+02 -0.16799484061E+03  0.18910207168E+03  0.47000000000E+01 0. -1.
         -5    1    3    3    0  501  0.33229185592E+02 -0.29151660439E+02 -0.16464656213E+03  0.17054201390E+03  0.47000000000E+01 0. -1.
          5    1    4    4  502    0  0.49615478750E+02 -0.52916298768E+02 -0.53198266400E+02  0.90077610730E+02  0.47000000000E+01 0.  1.
         -5    1    4    4    0  502 -0.59929849339E+02 -0.15391475280E+01 -0.86987667011E+02  0.10574923181E+03  0.47000000000E+01 0.  1.
<mgrwt>
<rscale>  0 0.29151717E+03</rscale>
<asrwt>0</asrwt>
<pdfrwt beam="1">  1       21 0.63571995E-02 0.29151717E+03</pdfrwt>
<pdfrwt beam="2">  1       21 0.79099865E-01 0.29151717E+03</pdfrwt>
<totfact> 0.24528660E+05</totfact>
</mgrwt>
</event>
<event>
 8    1  0.9569852E-006  0.1453192E+04  0.7546771E-02  0.8916191E-01
         21   -1    0    0  504  503  0.00000000000E+00  0.00000000000E+00  0.29421549917E+03  0.29421549917E+03  0.00000000000E+00 0. -1.
         21   -1    0    0  503  504 -0.00000000000E+00 -0.00000000000E+00 -0.17944049352E+04  0.17944049352E+04  0.00000000000E+00 0. -1.
         25    2    1    2    0    0 -0.62133995127E+03 -0.29650599210E+03 -0.46867908199E+03  0.84217848329E+03  0.12500150970E+03 0.  0.
         25    2    1    2    0    0  0.62133995127E+03  0.29650599210E+03 -0.10315103540E+04  0.12464419511E+04  0.12499915417E+03 0.  0.
          5    1    3    3  501    0 -0.52797396529E+03 -0.20275277298E+03 -0.35578646666E+03  0.66818507529E+03  0.47000000000E+01 0. -1.
         -5    1    3    3    0  501 -0.93365985975E+02 -0.93753219115E+02 -0.11289261534E+03  0.17399340800E+03  0.47000000000E+01 0. -1.
          5    1    4    4  502    0  0.44151978439E+03  0.18823084708E+03 -0.61627553717E+03  0.78114544069E+03  0.47000000000E+01 0.  1.
         -5    1    4    4    0  502  0.17982016688E+03  0.10827514502E+03 -0.41523481685E+03  0.46529651038E+03  0.47000000000E+01 0.  1.
<mgrwt>
<rscale>  0 0.14531920E+04</rscale>
<asrwt>0</asrwt>
<pdfrwt beam="1">  1       21 0.45263924E-01 0.14531920E+04</pdfrwt>
<pdfrwt beam="2">  1       21 0.27606229E+00 0.14531920E+04</pdfrwt>
<totfact> 0.12805786E+02</totfact>
</mgrwt>
</event>
<event>
 8    1  0.9569852E-006  0.2916454E+03  0.7546771E-02  0.1089493E+00
         21   -1    0    0  504  503  0.00000000000E+00  0.00000000000E+00  0.12378313683E+03  0.12378313683E+03  0.00000000000E+00 0.  1.
         21   -1    0    0  503  504 -0.00000000000E+00 -0.00000000000E+00 -0.17178644377E+03  0.17178644377E+03  0.00000000000E+00 0.  1.
         25    2    1    2    0    0  0.43258089354E+02  0.34705501139E+02  0.27284793028E+02  0.13944827823E+03  0.12500251304E+03 0.  0.
         25    2    1    2    0    0 -0.43258089354E+02 -0.34705501139E+02 -0.75288099972E+02  0.15612130237E+03  0.12501931432E+03 0.  0.
          5    1    3    3  501    0 -0.51234872034E+01 -0.33769959969E+02 -0.23115353257E+02  0.41509876821E+02  0.47000000000E+01 0. -1.
         -5    1    3    3    0  501  0.48381576558E+02  0.68475461108E+02  0.50400146285E+02  0.97938401405E+02  0.47000000000E+01 0. -1.
          5    1    4    4  502    0  0.15319537892E+02  0.38377293823E+01 -0.83731897380E+02  0.85337782060E+02  0.47000000000E+01 0. -1.
         -5    1    4    4    0  502 -0.58577627246E+02 -0.38543230521E+02  0.84437974082E+01  0.70783520310E+02  0.47000000000E+01 0. -1.
<mgrwt>
<rscale>  0 0.29164543E+03</rscale>
<asrwt>0</asrwt>
<pdfrwt beam="1">  1       21 0.19043560E-01 0.29164543E+03</pdfrwt>
<pdfrwt beam="2">  1       21 0.26428684E-01 0.29164543E+03</pdfrwt>
<totfact> 0.33693931E+05</totfact>
</mgrwt>
</event>
<event>
 8    1  0.9569852E-006  0.3363567E+03  0.7546771E-02  0.1068358E+00
         21   -1    0    0  504  503  0.00000000000E+00  0.00000000000E+00  0.12677221464E+03  0.12677221464E+03  0.00000000000E+00 0.  1.
         21   -1    0    0  503  504 -0.00000000000E+00 -0.00000000000E+00 -0.22310848355E+03  0.22310848355E+03  0.00000000000E+00 0.  1.
         25    2    1    2    0    0 -0.52988467513E+02 -0.88835165039E+02 -0.21665877838E+01  0.16225967097E+03  0.12499616988E+03 0.  0.
         25    2    1    2    0    0  0.52988467513E+02  0.88835165039E+02 -0.94169681125E+02  0.18762102721E+03  0.12503702161E+03 0.  0.
          5    1    3    3  501    0  0.19779044367E+02 -0.40059040956E+01  0.38100514247E+02  0.43370462871E+02  0.47000000000E+01 0. -1.
         -5    1    3    3    0  501 -0.72767511881E+02 -0.84829260944E+02 -0.40267102031E+02  0.11888920810E+03  0.47000000000E+01 0. -1.
          5    1    4    4  502    0  0.53402700478E+02  0.11010533187E+03 -0.10675376142E+03  0.16246072787E+03  0.47000000000E+01 0. -1.
         -5    1    4    4    0  502 -0.41423296472E+00 -0.21270166832E+02  0.12584080292E+02  0.25160299339E+02  0.47000000000E+01 0. -1.
<mgrwt>
<rscale>  0 0.33635669E+03</rscale>
<asrwt>0</asrwt>
<pdfrwt beam="1">  1       21 0.19503418E-01 0.33635669E+03</pdfrwt>
<pdfrwt beam="2">  1       21 0.34324382E-01 0.33635669E+03</pdfrwt>
<totfact> 0.19067973E+05</totfact>
</mgrwt>
</event>
<event>
 8    1  0.9569852E-006  0.4196944E+03  0.7546771E-02  0.1037166E+00
         21   -1    0    0  504  503  0.00000000000E+00  0.00000000000E+00  0.12742797573E+04  0.12742797573E+04  0.00000000000E+00 0. -1.
         21   -1    0    0  503  504 -0.00000000000E+00 -0.00000000000E+00 -0.34557436122E+02  0.34557436122E+02  0.00000000000E+00 0. -1.
         25    2    1    2    0    0  0.13962066018E+03 -0.90450528579E+02  0.53526833372E+03  0.57429329068E+03  0.12500147105E+03 0.  0.
         25    2    1    2    0    0 -0.13962066018E+03  0.90450528579E+02  0.70445398746E+03  0.73454390275E+03  0.12499639094E+03 0.  0.
          5    1    3    3  501    0  0.14783072741E+03 -0.11090304734E+03  0.49031873306E+03  0.52401141196E+03  0.47000000000E+01 0. -1.
         -5    1    3    3    0  501 -0.82100672307E+01  0.20452518764E+02  0.44949600668E+02  0.50281878724E+02  0.47000000000E+01 0. -1.
          5    1    4    4  502    0 -0.41219494013E+02  0.46771241246E+02  0.83517238992E+02  0.10432552374E+03  0.47000000000E+01 0.  1.
         -5    1    4    4    0  502 -0.98401166163E+02  0.43679287333E+02  0.62093674847E+03  0.63021837901E+03  0.47000000000E+01 0.  1.
<mgrwt>
<rscale>  0 0.41969437E+03</rscale>
<asrwt>0</asrwt>
<pdfrwt beam="1">  1       21 0.19604300E+00 0.41969437E+03</pdfrwt>
<pdfrwt beam="2">  1       21 0.53165296E-02 0.41969437E+03</pdfrwt>
<totfact> 0.30994437E+04</totfact>
</mgrwt>
</event>
<event>
 8    1  0.9569852E-006  0.3390185E+03  0.7546771E-02  0.1067215E+00
         21   -1    0    0  504  503  0.00000000000E+00  0.00000000000E+00  0.64145627589E+03  0.64145627589E+03  0.00000000000E+00 0.  1.
         21   -1    0    0  503  504 -0.00000000000E+00 -0.00000000000E+00 -0.44793981273E+02  0.44793981273E+02  0.00000000000E+00 0.  1.
         25    2    1    2    0    0  0.10114931237E+03  0.17542057299E+02  0.19577971504E+03  0.25395674131E+03  0.12500168985E+03 0.  0.
         25    2    1    2    0    0 -0.10114931237E+03 -0.17542057299E+02  0.40088257958E+03  0.43229351586E+03  0.12502773323E+03 0.  0.
          5    1    3    3  501    0 -0.19853926863E+01  0.46215583383E+01 -0.16319129018E+02  0.17711706793E+02  0.47000000000E+01 0.  1.
         -5    1    3    3    0  501  0.10313470506E+03  0.12920498961E+02  0.21209884406E+03  0.23624503452E+03  0.47000000000E+01 0.  1.
          5    1    4    4  502    0 -0.53837735157E+02  0.51907407138E+02  0.15010316509E+03  0.16776749033E+03  0.47000000000E+01 0. -1.
         -5    1    4    4    0  502 -0.47311577216E+02 -0.69449464437E+02  0.25077941449E+03  0.26452602553E+03  0.47000000000E+01 0. -1.
<mgrwt>
<rscale>  0 0.33901847E+03</rscale>
<asrwt>0</asrwt>
<pdfrwt beam="1">  1       21 0.98685575E-01 0.33901847E+03</pdfrwt>
<pdfrwt beam="2">  1       21 0.68913822E-02 0.33901847E+03</pdfrwt>
<totfact> 0.12564149E+05</totfact>
</mgrwt>
</event>
<event>
 8    1  0.9569852E-006  0.2858911E+03  0.7546771E-02  0.1092514E+00
         21   -1    0    0  504  503  0.00000000000E+00  0.00000000000E+00  0.50025208591E+03  0.50025208591E+03  0.00000000000E+00 0.  1.
         21   -1    0    0  503  504 -0.00000000000E+00 -0.00000000000E+00 -0.40846263040E+02  0.40846263040E+02  0.00000000000E+00 0.  1.
         25    2    1    2    0    0  0.56641810572E+02  0.32074144763E+02  0.27477709532E+03  0.30881256275E+03  0.12500280528E+03 0.  0.
         25    2    1    2    0    0 -0.56641810572E+02 -0.32074144763E+02  0.18462872755E+03  0.23228578621E+03  0.12502749286E+03 0.  0.
          5    1    3    3  501    0 -0.30227597994E+02 -0.22582046151E+02  0.67612819088E+02  0.77570869493E+02  0.47000000000E+01 0. -1.
         -5    1    3    3    0  501  0.86869408567E+02  0.54656190914E+02  0.20716427624E+03  0.23124169325E+03  0.47000000000E+01 0. -1.
          5    1    4    4  502    0 -0.50518504804E+02 -0.62403721923E+02  0.18419299108E+03  0.20098629755E+03  0.47000000000E+01 0. -1.
         -5    1    4    4    0  502 -0.61233057685E+01  0.30329577159E+02  0.43573646767E+00  0.31299488662E+02  0.47000000000E+01 0. -1.
<mgrwt>
<rscale>  0 0.28589109E+03</rscale>
<asrwt>0</asrwt>
<pdfrwt beam="1">  1       21 0.76961855E-01 0.28589109E+03</pdfrwt>
<pdfrwt beam="2">  1       21 0.62840408E-02 0.28589109E+03</pdfrwt>
<totfact> 0.26668076E+05</totfact>
</mgrwt>
</event>
<event>
 8    1  0.9569852E-006  0.2952491E+03  0.7546771E-02  0.1087640E+00
         21   -1    0    0  504  503  0.00000000000E+00  0.00000000000E+00  0.27413883152E+03  0.27413883152E+03  0.00000000000E+00 0.  1.
         21   -1    0    0  503  504 -0.00000000000E+00 -0.00000000000E+00 -0.79496249017E+02  0.79496249017E+02  0.00000000000E+00 0.  1.
         25    2    1    2    0    0  0.20999124806E+02 -0.70437003049E+02  0.13022106419E+03  0.19490315130E+03  0.12500951238E+03 0.  0.
         25    2    1    2    0    0 -0.20999124806E+02  0.70437003049E+02  0.64421518309E+02  0.15873192924E+03  0.12507341323E+03 0.  0.
          5    1    3    3  501    0  0.12950891146E+02  0.34096772961E+02  0.16971697403E+02  0.40502395245E+02  0.47000000000E+01 0. -1.
         -5    1    3    3    0  501  0.80482336605E+01 -0.10453377601E+03  0.11324936679E+03  0.15440075606E+03  0.47000000000E+01 0. -1.
          5    1    4    4  502    0 -0.31495666259E+02 -0.20369927942E+02  0.54969089628E+02  0.66712830640E+02  0.47000000000E+01 0. -1.
         -5    1    4    4    0  502  0.10496541453E+02  0.90806930991E+02  0.94524286809E+01  0.92019098596E+02  0.47000000000E+01 0. -1.
<mgrwt>
<rscale>  0 0.29524911E+03</rscale>
<asrwt>0</asrwt>
<pdfrwt beam="1">  1       21 0.42175204E-01 0.29524911E+03</pdfrwt>
<pdfrwt beam="2">  1       21 0.12230192E-01 0.29524911E+03</pdfrwt>
<totfact> 0.29956469E+05</totfact>
</mgrwt>
</event>
<event>
 8    1  0.9569852E-006  0.2781939E+03  0.7546771E-02  0.1096679E+00
         21   -1    0    0  504  503  0.00000000000E+00  0.00000000000E+00  0.66030830230E+02  0.66030830230E+02  0.00000000000E+00 0. -1.
         21   -1    0    0  503  504 -0.00000000000E+00 -0.00000000000E+00 -0.29301408511E+03  0.29301408511E+03  0.00000000000E+00 0. -1.
         25    2    1    2    0    0  0.37051126382E+02  0.67938966614E+01 -0.51542254268E+02  0.14035695324E+03  0.12499810939E+03 0.  0.
         25    2    1    2    0    0 -0.37051126382E+02 -0.67938966614E+01 -0.17544100061E+03  0.21868796209E+03  0.12500374823E+03 0.  0.
          5    1    3    3  501    0  0.43384625384E+02 -0.53347130847E+02 -0.18856811902E+02  0.71454960950E+02  0.47000000000E+01 0.  1.
         -5    1    3    3    0  501 -0.63334990018E+01  0.60141027508E+02 -0.32685442366E+02  0.68901992294E+02  0.47000000000E+01 0.  1.
          5    1    4    4  502    0  0.38994009220E+00  0.55930708561E+02 -0.91182200767E+02  0.10707324572E+03  0.47000000000E+01 0. -1.
         -5    1    4    4    0  502 -0.37441066474E+02 -0.62724605223E+02 -0.84258799845E+02  0.11161471637E+03  0.47000000000E+01 0. -1.
<mgrwt>
<rscale>  0 0.27819391E+03</rscale>
<asrwt>0</asrwt>
<pdfrwt beam="1">  1       21 0.10158589E-01 0.27819391E+03</pdfrwt>
<pdfrwt beam="2">  1       21 0.45079090E-01 0.27819391E+03</pdfrwt>
<totfact> 0.36558305E+05</totfact>
</mgrwt>
</event>
<event>
 8    1  0.9569852E-006  0.3442413E+03  0.7546771E-02  0.1065004E+00
         21   -1    0    0  504  503  0.00000000000E+00  0.00000000000E+00  0.71926588344E+02  0.71926588344E+02  0.00000000000E+00 0.  1.
         21   -1    0    0  503  504 -0.00000000000E+00 -0.00000000000E+00 -0.41188542881E+03  0.41188542881E+03  0.00000000000E+00 0.  1.
         25    2    1    2    0    0  0.11024307909E+03 -0.41097671084E+02 -0.18810062366E+03  0.25462541476E+03  0.12493879366E+03 0.  0.
         25    2    1    2    0    0 -0.11024307909E+03  0.41097671084E+02 -0.15185821680E+03  0.22918660239E+03  0.12499210235E+03 0.  0.
          5    1    3    3  501    0  0.23116739985E+02  0.42925824010E+02 -0.70113707092E+02  0.85527960087E+02  0.47000000000E+01 0.  1.
         -5    1    3    3    0  501  0.87126339110E+02 -0.84023495094E+02 -0.11798691657E+03  0.16909745467E+03  0.47000000000E+01 0.  1.
          5    1    4    4  502    0 -0.77707971789E+02  0.35788612442E+02 -0.17064909722E+03  0.19095171652E+03  0.47000000000E+01 0. -1.
         -5    1    4    4    0  502 -0.32535107306E+02  0.53090586415E+01  0.18790880416E+02  0.38234885875E+02  0.47000000000E+01 0. -1.
<mgrwt>
<rscale>  0 0.34424127E+03</rscale>
<asrwt>0</asrwt>
<pdfrwt beam="1">  1       21 0.11065629E-01 0.34424127E+03</pdfrwt>
<pdfrwt beam="2">  1       21 0.63366991E-01 0.34424127E+03</pdfrwt>
<totfact> 0.14963029E+05</totfact>
</mgrwt>
</event>
<event>
 8    1  0.9569852E-006  0.2543159E+03  0.7546771E-02  0.1110607E+00
         21   -1    0    0  504  503  0.00000000000E+00  0.00000000000E+00  0.39611209930E+02  0.39611209930E+02  0.00000000000E+00 0. -1.
         21   -1    0    0  503  504 -0.00000000000E+00 -0.00000000000E+00 -0.40819616891E+03  0.40819616891E+03  0.00000000000E+00 0. -1.
         25    2    1    2    0    0 -0.19400645823E+02  0.94655676888E+01 -0.19979724131E+03  0.23666235477E+03  0.12499660196E+03 0.  0.
         25    2    1    2    0    0  0.19400645823E+02 -0.94655676888E+01 -0.16878771768E+03  0.21114502407E+03  0.12500778185E+03 0.  0.
          5    1    3    3  501    0 -0.45750352913E+02  0.42677688134E+02 -0.48031874795E+02  0.79016649211E+02  0.47000000000E+01 0. -1.
         -5    1    3    3    0  501  0.26349707090E+02 -0.33212120446E+02 -0.15176536651E+03  0.15764570556E+03  0.47000000000E+01 0. -1.
          5    1    4    4  502    0  0.22242872979E+02  0.17008633442E+02 -0.17974321348E+03  0.18197184343E+03  0.47000000000E+01 0. -1.
         -5    1    4    4    0  502 -0.28422271557E+01 -0.26474201131E+02  0.10955495800E+02  0.29173180645E+02  0.47000000000E+01 0. -1.
<mgrwt>
<rscale>  0 0.25431590E+03</rscale>
<asrwt>0</asrwt>
<pdfrwt beam="1">  1       21 0.60940321E-02 0.25431590E+03</pdfrwt>
<pdfrwt beam="2">  1       21 0.62799412E-01 0.25431590E+03</pdfrwt>
<totfact> 0.44483071E+05</totfact>
</mgrwt>
</event>
<event>
 8    1  0.9569852E-006  0.2838139E+03  0.7546771E-02  0.1093624E+00
         21   -1    0    0  504  503  0.00000000000E+00  0.00000000000E+00  0.16387547386E+03  0.16387547386E+03  0.00000000000E+00 0.  1.
         21   -1    0    0  503  504 -0.00000000000E+00 -0.00000000000E+00 -0.12288347790E+03  0.12288347790E+03  0.00000000000E+00 0.  1.
         25    2    1    2    0    0 -0.63287431670E+02  0.22482740360E+02  0.20210214703E+02  0.14334471631E+03  0.12501392840E+03 0.  0.
         25    2    1    2    0    0  0.63287431670E+02 -0.22482740360E+02  0.20781781259E+02  0.14341423544E+03  0.12499995150E+03 0.  0.
          5    1    3    3  501    0  0.26971537215E+02 -0.11224551658E+02 -0.23165367322E+02  0.37578965165E+02  0.47000000000E+01 0.  1.
         -5    1    3    3    0  501 -0.90258968885E+02  0.33707292018E+02  0.43375582025E+02  0.10576575115E+03  0.47000000000E+01 0.  1.
          5    1    4    4  502    0  0.40902161475E+02 -0.75113771179E+01 -0.51368407649E+02  0.66258666633E+02  0.47000000000E+01 0. -1.
         -5    1    4    4    0  502  0.22385270195E+02 -0.14971363243E+02  0.72150188908E+02  0.77155568811E+02  0.47000000000E+01 0. -1.
<mgrwt>
<rscale>  0 0.28381394E+03</rscale>
<asrwt>0</asrwt>
<pdfrwt beam="1">  1       21 0.25211611E-01 0.28381394E+03</pdfrwt>
<pdfrwt beam="2">  1       21 0.18905150E-01 0.28381394E+03</pdfrwt>
<totfact> 0.37473448E+05</totfact>
</mgrwt>
</event>
<event>
 8    1  0.9569852E-006  0.3049939E+03  0.7546771E-02  0.1082771E+00
         21   -1    0    0  504  503  0.00000000000E+00  0.00000000000E+00  0.24289499124E+03  0.24289499124E+03  0.00000000000E+00 0. -1.
         21   -1    0    0  503  504 -0.00000000000E+00 -0.00000000000E+00 -0.95742262983E+02  0.95742262983E+02  0.00000000000E+00 0. -1.
         25    2    1    2    0    0 -0.62779991895E+02  0.13066958619E+02  0.77147780496E+01  0.14070117218E+03  0.12500091705E+03 0.  0.
         25    2    1    2    0    0  0.62779991895E+02 -0.13066958619E+02  0.13943795021E+03  0.19793608204E+03  0.12499471119E+03 0.  0.
          5    1    3    3  501    0 -0.44732810646E+02  0.12548694572E+02  0.65237940957E+02  0.80228255771E+02  0.47000000000E+01 0.  1.
         -5    1    3    3    0  501 -0.18047181249E+02  0.51826404673E+00 -0.57523162908E+02  0.60472916414E+02  0.47000000000E+01 0.  1.
          5    1    4    4  502    0  0.37559303190E+02  0.99661831597E+01  0.15517587864E+03  0.16003646264E+03  0.47000000000E+01 0.  1.
         -5    1    4    4    0  502  0.25220688705E+02 -0.23033141779E+02 -0.15737928434E+02  0.37899619395E+02  0.47000000000E+01 0.  1.
<mgrwt>
<rscale>  0 0.30499388E+03</rscale>
<asrwt>0</asrwt>
<pdfrwt beam="1">  1       21 0.37368460E-01 0.30499388E+03</pdfrwt>
<pdfrwt beam="2">  1       21 0.14729579E-01 0.30499388E+03</pdfrwt>
<totfact> 0.27265258E+05</totfact>
</mgrwt>
</event>
<event>
 8    1  0.9569852E-006  0.3631357E+03  0.7546771E-02  0.1057349E+00
         21   -1    0    0  504  503  0.00000000000E+00  0.00000000000E+00  0.11262766219E+04  0.11262766219E+04  0.00000000000E+00 0.  1.
         21   -1    0    0  503  504 -0.00000000000E+00 -0.00000000000E+00 -0.29270686552E+02  0.29270686552E+02  0.00000000000E+00 0.  1.
         25    2    1    2    0    0 -0.10306115007E+03 -0.81966621711E+02  0.54437263597E+03  0.57385200845E+03  0.12499773232E+03 0.  0.
         25    2    1    2    0    0  0.10306115007E+03  0.81966621711E+02  0.55263329940E+03  0.58169530002E+03  0.12500292290E+03 0.  0.
          5    1    3    3  501    0 -0.49728381815E+02 -0.16284960722E+02  0.50879009353E+02  0.73136006840E+02  0.47000000000E+01 0.  1.
         -5    1    3    3    0  501 -0.53332768252E+02 -0.65681660988E+02  0.49349362662E+03  0.50071600161E+03  0.47000000000E+01 0.  1.
          5    1    4    4  502    0  0.56125673584E+02  0.11185858633E+03  0.36205027901E+03  0.38309911134E+03  0.47000000000E+01 0.  1.
         -5    1    4    4    0  502  0.46935476483E+02 -0.29891964620E+02  0.19058302039E+03  0.19859618869E+03  0.47000000000E+01 0.  1.
<mgrwt>
<rscale>  0 0.36313573E+03</rscale>
<asrwt>0</asrwt>
<pdfrwt beam="1">  1       21 0.17327329E+00 0.36313573E+03</pdfrwt>
<pdfrwt beam="2">  1       21 0.45031834E-02 0.36313573E+03</pdfrwt>
<totfact> 0.60359523E+04</totfact>
</mgrwt>
</event>
<event>
 8    1  0.9569852E-006  0.3192685E+03  0.7546771E-02  0.1075986E+00
         21   -1    0    0  504  503  0.00000000000E+00  0.00000000000E+00  0.23954102629E+02  0.23954102629E+02  0.00000000000E+00 0. -1.
         21   -1    0    0  503  504 -0.00000000000E+00 -0.00000000000E+00 -0.10638302316E+04  0.10638302316E+04  0.00000000000E+00 0. -1.
         25    2    1    2    0    0  0.74274445972E+02 -0.14829251697E+02 -0.73867114464E+03  0.75299196205E+03  0.12500093988E+03 0.  0.
         25    2    1    2    0    0 -0.74274445972E+02  0.14829251697E+02 -0.30120498437E+03  0.33479237221E+03  0.12499955940E+03 0.  0.
          5    1    3    3  501    0 -0.30268780822E+01  0.28435504447E+02 -0.44041856757E+02  0.52721106311E+02  0.47000000000E+01 0.  1.
         -5    1    3    3    0  501  0.77301324054E+02 -0.43264756144E+02 -0.69462928788E+03  0.70027085574E+03  0.47000000000E+01 0.  1.
          5    1    4    4  502    0 -0.49252575562E+02 -0.50976141868E+02 -0.19256214152E+03  0.20524778095E+03  0.47000000000E+01 0. -1.
         -5    1    4    4    0  502 -0.25021870410E+02  0.65805393565E+02 -0.10864284285E+03  0.12954459126E+03  0.47000000000E+01 0. -1.
<mgrwt>
<rscale>  0 0.31926853E+03</rscale>
<asrwt>0</asrwt>
<pdfrwt beam="1">  1       21 0.36852478E-02 0.31926853E+03</pdfrwt>
<pdfrwt beam="2">  1       21 0.16366613E+00 0.31926853E+03</pdfrwt>
<totfact> 0.10099825E+05</totfact>
</mgrwt>
</event>
<event>
 8    1  0.9569852E-006  0.3230295E+03  0.7546771E-02  0.1074263E+00
         21   -1    0    0  504  503  0.00000000000E+00  0.00000000000E+00  0.76998505293E+02  0.76998505293E+02  0.00000000000E+00 0. -1.
         21   -1    0    0  503  504 -0.00000000000E+00 -0.00000000000E+00 -0.33879887939E+03  0.33879887939E+03  0.00000000000E+00 0. -1.
         25    2    1    2    0    0  0.11928737093E+02  0.10021713197E+03 -0.15223962513E+03  0.22133128501E+03  0.12499946384E+03 0.  0.
         25    2    1    2    0    0 -0.11928737093E+02 -0.10021713197E+03 -0.10956074897E+03  0.19446609967E+03  0.12501095111E+03 0.  0.
          5    1    3    3  501    0 -0.51096149070E+02  0.13216989459E+02 -0.45991022311E+02  0.70162450024E+02  0.47000000000E+01 0.  1.
         -5    1    3    3    0  501  0.63024886162E+02  0.87000142508E+02 -0.10624860282E+03  0.15116883499E+03  0.47000000000E+01 0.  1.
          5    1    4    4  502    0 -0.24227431287E+02 -0.43298645255E+01 -0.92945226604E+02  0.96263291561E+02  0.47000000000E+01 0.  1.
         -5    1    4    4    0  502  0.12298694195E+02 -0.95887267441E+02 -0.16615522364E+02  0.98202808105E+02  0.47000000000E+01 0.  1.
<mgrwt>
<rscale>  0 0.32302946E+03</rscale>
<asrwt>0</asrwt>
<pdfrwt beam="1">  1       21 0.11845924E-01 0.32302946E+03</pdfrwt>
<pdfrwt beam="2">  1       21 0.52122905E-01 0.32302946E+03</pdfrwt>
<totfact> 0.20272081E+05</totfact>
</mgrwt>
</event>
<event>
 8    1  0.9569852E-006  0.2963659E+03  0.7546771E-02  0.1087071E+00
         21   -1    0    0  504  503  0.00000000000E+00  0.00000000000E+00  0.51307175886E+03  0.51307175886E+03  0.00000000000E+00 0. -1.
         21   -1    0    0  503  504 -0.00000000000E+00 -0.00000000000E+00 -0.42797503224E+02  0.42797503224E+02  0.00000000000E+00 0. -1.
         25    2    1    2    0    0  0.62719108549E+02 -0.46973306355E+02  0.20901479727E+03  0.25583305812E+03  0.12499276003E+03 0.  0.
         25    2    1    2    0    0 -0.62719108549E+02  0.46973306355E+02  0.26125945837E+03  0.30003620397E+03  0.12500016407E+03 0.  0.
          5    1    3    3  501    0 -0.12378906307E+02 -0.20913835018E+02  0.16090616781E+03  0.16279898850E+03  0.47000000000E+01 0. -1.
         -5    1    3    3    0  501  0.75098014856E+02 -0.26059471338E+02  0.48108629461E+02  0.93034069622E+02  0.47000000000E+01 0. -1.
          5    1    4    4  502    0  0.11166782663E+02  0.31906565689E+02  0.19965530335E+03  0.20255136664E+03  0.47000000000E+01 0. -1.
         -5    1    4    4    0  502 -0.73885891211E+02  0.15066740667E+02  0.61604155014E+02  0.97484837330E+02  0.47000000000E+01 0. -1.
<mgrwt>
<rscale>  0 0.29636592E+03</rscale>
<asrwt>0</asrwt>
<pdfrwt beam="1">  1       21 0.78934112E-01 0.29636592E+03</pdfrwt>
<pdfrwt beam="2">  1       21 0.65842316E-02 0.29636592E+03</pdfrwt>
<totfact> 0.23164621E+05</totfact>
</mgrwt>
</event>
<event>
 8    1  0.9569852E-006  0.2786351E+03  0.7546771E-02  0.1096437E+00
         21   -1    0    0  504  503  0.00000000000E+00  0.00000000000E+00  0.85612770996E+02  0.85612770996E+02  0.00000000000E+00 0.  1.
         21   -1    0    0  503  504 -0.00000000000E+00 -0.00000000000E+00 -0.22671120531E+03  0.22671120531E+03  0.00000000000E+00 0.  1.
         25    2    1    2    0    0 -0.35803572440E+02  0.40825993702E+02 -0.10300267566E+03  0.17083136907E+03  0.12500059161E+03 0.  0.
         25    2    1    2    0    0  0.35803572440E+02 -0.40825993702E+02 -0.38095758654E+02  0.14149260724E+03  0.12498085260E+03 0.  0.
          5    1    3    3  501    0  0.36522674150E+02 -0.10034122437E+02 -0.63026520528E+02  0.73681894859E+02  0.47000000000E+01 0.  1.
         -5    1    3    3    0  501 -0.72326246589E+02  0.50860116139E+02 -0.39976155135E+02  0.97149474207E+02  0.47000000000E+01 0.  1.
          5    1    4    4  502    0  0.75389964109E+02 -0.66308405640E+01  0.13003362358E+01  0.75837956257E+02  0.47000000000E+01 0. -1.
         -5    1    4    4    0  502 -0.39586391669E+02 -0.34195153138E+02 -0.39396094890E+02  0.65654650986E+02  0.47000000000E+01 0. -1.
<mgrwt>
<rscale>  0 0.27863506E+03</rscale>
<asrwt>0</asrwt>
<pdfrwt beam="1">  1       21 0.13171196E-01 0.27863506E+03</pdfrwt>
<pdfrwt beam="2">  1       21 0.34878646E-01 0.27863506E+03</pdfrwt>
<totfact> 0.38621439E+05</totfact>
</mgrwt>
</event>
<event>
 8    1  0.9569852E-006  0.3394711E+03  0.7546771E-02  0.1067021E+00
         21   -1    0    0  504  503  0.00000000000E+00  0.00000000000E+00  0.23536007483E+02  0.23536007483E+02  0.00000000000E+00 0. -1.
         21   -1    0    0  503  504 -0.00000000000E+00 -0.00000000000E+00 -0.12240884949E+04  0.12240884949E+04  0.00000000000E+00 0. -1.
         25    2    1    2    0    0 -0.23626792034E+02  0.22914700849E+01 -0.18736157211E+03  0.22647587884E+03  0.12499395528E+03 0.  0.
         25    2    1    2    0    0  0.23626792034E+02 -0.22914700849E+01 -0.10131909153E+04  0.10211486236E+04  0.12500081746E+03 0.  0.
          5    1    3    3  501    0  0.24306750547E+02  0.56735714088E+01 -0.17473343999E+03  0.17656973859E+03  0.47000000000E+01 0.  1.
         -5    1    3    3    0  501 -0.47933542581E+02 -0.33821013239E+01 -0.12628132115E+02  0.49906140248E+02  0.47000000000E+01 0.  1.
          5    1    4    4  502    0 -0.21283900036E+02  0.27761576128E+02 -0.94803994158E+02  0.10116124168E+03  0.47000000000E+01 0.  1.
         -5    1    4    4    0  502  0.44910692070E+02 -0.30053046213E+02 -0.91838692119E+03  0.91998738190E+03  0.47000000000E+01 0.  1.
<mgrwt>
<rscale>  0 0.33947109E+03</rscale>
<asrwt>0</asrwt>
<pdfrwt beam="1">  1       21 0.36209240E-02 0.33947109E+03</pdfrwt>
<pdfrwt beam="2">  1       21 0.18832132E+00 0.33947109E+03</pdfrwt>
<totfact> 0.69213001E+04</totfact>
</mgrwt>
</event>
<event>
 8    1  0.9569852E-006  0.2645717E+03  0.7546771E-02  0.1104427E+00
         21   -1    0    0  504  503  0.00000000000E+00  0.00000000000E+00  0.63839237577E+03  0.63839237577E+03  0.00000000000E+00 0. -1.
         21   -1    0    0  503  504 -0.00000000000E+00 -0.00000000000E+00 -0.27411905477E+02  0.27411905477E+02  0.00000000000E+00 0. -1.
         25    2    1    2    0    0  0.30987609054E+02  0.29228919286E+02  0.32455306212E+03  0.35039465154E+03  0.12500863994E+03 0.  0.
         25    2    1    2    0    0 -0.30987609054E+02 -0.29228919286E+02  0.28642740817E+03  0.31540962971E+03  0.12501205031E+03 0.  0.
          5    1    3    3  501    0  0.32188510358E+02  0.22011798049E+02  0.17132755564E+02  0.42851379973E+02  0.47000000000E+01 0.  1.
         -5    1    3    3    0  501 -0.12009013043E+01  0.72171212372E+01  0.30742030656E+03  0.30754327157E+03  0.47000000000E+01 0.  1.
          5    1    4    4  502    0  0.17313085421E+02 -0.67598925451E+02  0.14196099219E+03  0.15825413408E+03  0.47000000000E+01 0.  1.
         -5    1    4    4    0  502 -0.48300694474E+02  0.38370006165E+02  0.14446641598E+03  0.15715549563E+03  0.47000000000E+01 0.  1.
<mgrwt>
<rscale>  0 0.26457174E+03</rscale>
<asrwt>0</asrwt>
<pdfrwt beam="1">  1       21 0.98214200E-01 0.26457174E+03</pdfrwt>
<pdfrwt beam="2">  1       21 0.42172167E-02 0.26457174E+03</pdfrwt>
<totfact> 0.30109455E+05</totfact>
</mgrwt>
</event>
<event>
 8    1  0.9569852E-006  0.2701339E+03  0.7546771E-02  0.1101203E+00
         21   -1    0    0  504  503  0.00000000000E+00  0.00000000000E+00  0.15376064441E+04  0.15376064441E+04  0.00000000000E+00 0. -1.
         21   -1    0    0  503  504 -0.00000000000E+00 -0.00000000000E+00 -0.11864594200E+02  0.11864594200E+02  0.00000000000E+00 0. -1.
         25    2    1    2    0    0  0.32941252295E+02  0.24373877635E+02  0.58731814237E+03  0.60187232429E+03  0.12501392873E+03 0.  0.
         25    2    1    2    0    0 -0.32941252295E+02 -0.24373877635E+02  0.93842370753E+03  0.94759871401E+03  0.12500022371E+03 0.  0.
          5    1    3    3  501    0  0.62764643611E+02  0.24156377162E+02  0.54882908418E+03  0.55295423381E+03  0.47000000000E+01 0.  1.
         -5    1    3    3    0  501 -0.29823391316E+02  0.21750047305E+00  0.38489058194E+02  0.48918090486E+02  0.47000000000E+01 0.  1.
          5    1    4    4  502    0 -0.51786930211E+02 -0.42332221528E+02  0.88913835848E+03  0.89166306060E+03  0.47000000000E+01 0.  1.
         -5    1    4    4    0  502  0.18845677916E+02  0.17958343892E+02  0.49285349056E+02  0.55935653415E+02  0.47000000000E+01 0.  1.
<mgrwt>
<rscale>  0 0.27013387E+03</rscale>
<asrwt>0</asrwt>
<pdfrwt beam="1">  1       21 0.23655468E+00 0.27013387E+03</pdfrwt>
<pdfrwt beam="2">  1       21 0.18253234E-02 0.27013387E+03</pdfrwt>
<totfact> 0.10914187E+05</totfact>
</mgrwt>
</event>
<event>
 8    1  0.9569852E-006  0.2763679E+03  0.7546771E-02  0.1097689E+00
         21   -1    0    0  504  503  0.00000000000E+00  0.00000000000E+00  0.69780787251E+03  0.69780787251E+03  0.00000000000E+00 0. -1.
         21   -1    0    0  503  504 -0.00000000000E+00 -0.00000000000E+00 -0.27363976300E+02  0.27363976300E+02  0.00000000000E+00 0. -1.
         25    2    1    2    0    0 -0.70278768419E+01  0.12501944849E+02  0.48517953261E+03  0.50122975528E+03  0.12500559600E+03 0.  0.
         25    2    1    2    0    0  0.70278768419E+01 -0.12501944849E+02  0.18526436359E+03  0.22394209353E+03  0.12498594784E+03 0.  0.
          5    1    3    3  501    0 -0.27243875080E+02  0.28331580852E+02  0.46868169602E+03  0.47035043254E+03  0.47000000000E+01 0. -1.
         -5    1    3    3    0  501  0.20215998238E+02 -0.15829636003E+02  0.16497836593E+02  0.30879322742E+02  0.47000000000E+01 0. -1.
          5    1    4    4  502    0  0.56687918329E+02 -0.25121016038E+02  0.14763832982E+03  0.16019910100E+03  0.47000000000E+01 0.  1.
         -5    1    4    4    0  502 -0.49660041487E+02  0.12619071189E+02  0.37626033778E+02  0.63742992525E+02  0.47000000000E+01 0.  1.
<mgrwt>
<rscale>  0 0.27636786E+03</rscale>
<asrwt>0</asrwt>
<pdfrwt beam="1">  1       21 0.10735504E+00 0.27636786E+03</pdfrwt>
<pdfrwt beam="2">  1       21 0.42098430E-02 0.27636786E+03</pdfrwt>
<totfact> 0.24290942E+05</totfact>
</mgrwt>
</event>
<event>
 8    1  0.9569852E-006  0.4591273E+03  0.7546771E-02  0.1025035E+00
         21   -1    0    0  504  503  0.00000000000E+00  0.00000000000E+00  0.93213939015E+03  0.93213939015E+03  0.00000000000E+00 0.  1.
         21   -1    0    0  503  504 -0.00000000000E+00 -0.00000000000E+00 -0.56536050369E+02  0.56536050369E+02  0.00000000000E+00 0.  1.
         25    2    1    2    0    0  0.15786568769E+03 -0.10958590634E+03  0.46362525657E+03  0.51720826143E+03  0.12500144375E+03 0.  0.
         25    2    1    2    0    0 -0.15786568769E+03  0.10958590634E+03  0.41197808321E+03  0.47146717909E+03  0.12499885480E+03 0.  0.
          5    1    3    3  501    0  0.91075429026E+02 -0.55317276930E+02  0.38849926038E+03  0.40287529114E+03  0.47000000000E+01 0.  1.
         -5    1    3    3    0  501  0.66790258660E+02 -0.54268629406E+02  0.75125996194E+02  0.11433297028E+03  0.47000000000E+01 0.  1.
          5    1    4    4  502    0 -0.63637341272E+02  0.93674857522E+02  0.31699340700E+03  0.33664759055E+03  0.47000000000E+01 0. -1.
         -5    1    4    4    0  502 -0.94228346415E+02  0.15911048814E+02  0.94984676204E+02  0.13481958855E+03  0.47000000000E+01 0. -1.
<mgrwt>
<rscale>  0 0.45912734E+03</rscale>
<asrwt>0</asrwt>
<pdfrwt beam="1">  1       21 0.14340605E+00 0.45912734E+03</pdfrwt>
<pdfrwt beam="2">  1       21 0.86978546E-02 0.45912734E+03</pdfrwt>
<totfact> 0.31387897E+04</totfact>
</mgrwt>
</event>
<event>
 8    1  0.9569852E-006  0.2698296E+03  0.7546771E-02  0.1101377E+00
         21   -1    0    0  504  503  0.00000000000E+00  0.00000000000E+00  0.31143448506E+03  0.31143448506E+03  0.00000000000E+00 0. -1.
         21   -1    0    0  503  504 -0.00000000000E+00 -0.00000000000E+00 -0.58445700438E+02  0.58445700438E+02  0.00000000000E+00 0. -1.
         25    2    1    2    0    0  0.47986679358E+02  0.10607711227E+02  0.14350455319E+03  0.19657645766E+03  0.12503400333E+03 0.  0.
         25    2    1    2    0    0 -0.47986679358E+02 -0.10607711227E+02  0.10948423143E+03  0.17330372784E+03  0.12502855760E+03 0.  0.
          5    1    3    3  501    0 -0.17522707898E+02 -0.42513097538E+02  0.73699046825E+02  0.86994530042E+02  0.47000000000E+01 0. -1.
         -5    1    3    3    0  501  0.65509387255E+02  0.53120808765E+02  0.69805506363E+02  0.10958192762E+03  0.47000000000E+01 0. -1.
          5    1    4    4  502    0 -0.52304632899E+02  0.38750343983E+02  0.10460649798E+03  0.12329628218E+03  0.47000000000E+01 0. -1.
         -5    1    4    4    0  502  0.43179535414E+01 -0.49358055210E+02  0.48777334572E+01  0.50007445651E+02  0.47000000000E+01 0. -1.
<mgrwt>
<rscale>  0 0.26982962E+03</rscale>
<asrwt>0</asrwt>
<pdfrwt beam="1">  1       21 0.47912997E-01 0.26982962E+03</pdfrwt>
<pdfrwt beam="2">  1       21 0.89916464E-02 0.26982962E+03</pdfrwt>
<totfact> 0.40055787E+05</totfact>
</mgrwt>
</event>
<event>
 8    1  0.9569852E-006  0.3594667E+03  0.7546771E-02  0.1058795E+00
         21   -1    0    0  504  503  0.00000000000E+00  0.00000000000E+00  0.32536820053E+02  0.32536820053E+02  0.00000000000E+00 0.  1.
         21   -1    0    0  503  504 -0.00000000000E+00 -0.00000000000E+00 -0.99284652843E+03  0.99284652843E+03  0.00000000000E+00 0.  1.
         25    2    1    2    0    0 -0.23865072495E+02  0.12403544139E+03 -0.55729592180E+03  0.58492932847E+03  0.12493695392E+03 0.  0.
         25    2    1    2    0    0  0.23865072495E+02 -0.12403544139E+03 -0.40301378658E+03  0.44045402001E+03  0.12500119664E+03 0.  0.
          5    1    3    3  501    0 -0.12305104555E+02 -0.15332473490E+02 -0.20298878873E+03  0.20399274176E+03  0.47000000000E+01 0.  1.
         -5    1    3    3    0  501 -0.11559967940E+02  0.13936791488E+03 -0.35430713306E+03  0.38093658671E+03  0.47000000000E+01 0.  1.
          5    1    4    4  502    0 -0.23720812842E+02 -0.72099358508E+02 -0.82271276919E+02  0.11203413527E+03  0.47000000000E+01 0. -1.
         -5    1    4    4    0  502  0.47585885337E+02 -0.51936082877E+02 -0.32074250966E+03  0.32841988474E+03  0.47000000000E+01 0. -1.
<mgrwt>
<rscale>  0 0.35946665E+03</rscale>
<asrwt>0</asrwt>
<pdfrwt beam="1">  1       21 0.50056649E-02 0.35946665E+03</pdfrwt>
<pdfrwt beam="2">  1       21 0.15274561E+00 0.35946665E+03</pdfrwt>
<totfact> 0.71566884E+04</totfact>
</mgrwt>
</event>
<event>
 8    1  0.9569852E-006  0.2712410E+03  0.7546771E-02  0.1100571E+00
         21   -1    0    0  504  503  0.00000000000E+00  0.00000000000E+00  0.20920001032E+03  0.20920001032E+03  0.00000000000E+00 0. -1.
         21   -1    0    0  503  504 -0.00000000000E+00 -0.00000000000E+00 -0.87920245029E+02  0.87920245029E+02  0.00000000000E+00 0. -1.
         25    2    1    2    0    0  0.45943006834E+01  0.51325645707E+02  0.49326755989E+02  0.14396141528E+03  0.12504531469E+03 0.  0.
         25    2    1    2    0    0 -0.45943006834E+01 -0.51325645707E+02  0.71953009307E+02  0.15315884008E+03  0.12499986096E+03 0.  0.
          5    1    3    3  501    0 -0.42276506869E+02  0.19045788621E+02  0.69257081550E+02  0.83478610686E+02  0.47000000000E+01 0.  1.
         -5    1    3    3    0  501  0.46870807552E+02  0.32279857086E+02 -0.19930325562E+02  0.60482804590E+02  0.47000000000E+01 0.  1.
          5    1    4    4  502    0 -0.91828656745E+01  0.39762789368E+02  0.84874489766E+01  0.41946766627E+02  0.47000000000E+01 0. -1.
         -5    1    4    4    0  502  0.45885649911E+01 -0.91088435075E+02  0.63465560331E+02  0.11121207345E+03  0.47000000000E+01 0. -1.
<mgrwt>
<rscale>  0 0.27124097E+03</rscale>
<asrwt>0</asrwt>
<pdfrwt beam="1">  1       21 0.32184617E-01 0.27124097E+03</pdfrwt>
<pdfrwt beam="2">  1       21 0.13526192E-01 0.27124097E+03</pdfrwt>
<totfact> 0.43243227E+05</totfact>
</mgrwt>
</event>
<event>
 8    1  0.9569852E-006  0.2733373E+03  0.7546771E-02  0.1099385E+00
         21   -1    0    0  504  503  0.00000000000E+00  0.00000000000E+00  0.12840015942E+02  0.12840015942E+02  0.00000000000E+00 0.  1.
         21   -1    0    0  503  504 -0.00000000000E+00 -0.00000000000E+00 -0.14546957714E+04  0.14546957714E+04  0.00000000000E+00 0.  1.
         25    2    1    2    0    0 -0.38072446368E+02  0.37728397251E+02 -0.64845464737E+03  0.66256220753E+03  0.12498922362E+03 0.  0.
         25    2    1    2    0    0  0.38072446368E+02 -0.37728397251E+02 -0.79340110811E+03  0.80497357983E+03  0.12499681094E+03 0.  0.
          5    1    3    3  501    0 -0.40354859800E+02  0.81815775364E+02 -0.41698058138E+03  0.42686910295E+03  0.47000000000E+01 0. -1.
         -5    1    3    3    0  501  0.22824134325E+01 -0.44087378113E+02 -0.23147406599E+03  0.23569310458E+03  0.47000000000E+01 0. -1.
          5    1    4    4  502    0  0.51825857752E+02 -0.61095420788E+02 -0.74489116758E+03  0.74920191638E+03  0.47000000000E+01 0.  1.
         -5    1    4    4    0  502 -0.13753411385E+02  0.23367023536E+02 -0.48509940533E+02  0.55771663452E+02  0.47000000000E+01 0.  1.
<mgrwt>
<rscale>  0 0.27333728E+03</rscale>
<asrwt>0</asrwt>
<pdfrwt beam="1">  1       21 0.19753856E-02 0.27333728E+03</pdfrwt>
<pdfrwt beam="2">  1       21 0.22379952E+00 0.27333728E+03</pdfrwt>
<totfact> 0.11469248E+05</totfact>
</mgrwt>
</event>
<event>
 8    1  0.9569852E-006  0.3685052E+03  0.7546771E-02  0.1055266E+00
         21   -1    0    0  504  503  0.00000000000E+00  0.00000000000E+00  0.23913545204E+02  0.23913545204E+02  0.00000000000E+00 0.  1.
         21   -1    0    0  503  504 -0.00000000000E+00 -0.00000000000E+00 -0.14196562389E+04  0.14196562389E+04  0.00000000000E+00 0.  1.
         25    2    1    2    0    0 -0.13457698704E+03 -0.14581287573E+02 -0.69215154545E+03  0.71625356173E+03  0.12498729310E+03 0.  0.
         25    2    1    2    0    0  0.13457698704E+03  0.14581287573E+02 -0.70359114823E+03  0.72731622236E+03  0.12499921617E+03 0.  0.
          5    1    3    3  501    0 -0.49457219389E+02 -0.26840783882E+02 -0.79130912437E+02  0.97212321915E+02  0.47000000000E+01 0.  1.
         -5    1    3    3    0  501 -0.85119767656E+02  0.12259496309E+02 -0.61302063301E+03  0.61904123982E+03  0.47000000000E+01 0.  1.
          5    1    4    4  502    0  0.13327056915E+03  0.45479924887E+02 -0.44329815913E+03  0.46515031555E+03  0.47000000000E+01 0. -1.
         -5    1    4    4    0  502  0.13064178937E+01 -0.30898637314E+02 -0.26029298910E+03  0.26216590680E+03  0.47000000000E+01 0. -1.
<mgrwt>
<rscale>  0 0.36850516E+03</rscale>
<asrwt>0</asrwt>
<pdfrwt beam="1">  1       21 0.36790061E-02 0.36850516E+03</pdfrwt>
<pdfrwt beam="2">  1       21 0.21840870E+00 0.36850516E+03</pdfrwt>
<totfact> 0.42327749E+04</totfact>
</mgrwt>
</event>
<event>
 8    1  0.9569852E-006  0.2674173E+03  0.7546771E-02  0.1102767E+00
         21   -1    0    0  504  503  0.00000000000E+00  0.00000000000E+00  0.52451787642E+02  0.52451787642E+02  0.00000000000E+00 0. -1.
         21   -1    0    0  503  504 -0.00000000000E+00 -0.00000000000E+00 -0.34084639487E+03  0.34084639487E+03  0.00000000000E+00 0. -1.
         25    2    1    2    0    0  0.30484670929E+02  0.22445744140E+02 -0.18628465261E+03  0.22751005164E+03  0.12500290079E+03 0.  0.
         25    2    1    2    0    0 -0.30484670929E+02 -0.22445744140E+02 -0.10210995461E+03  0.16578813087E+03  0.12500453957E+03 0.  0.
          5    1    3    3  501    0  0.76649089902E+02 -0.30493489768E+01 -0.97648242476E+02  0.12426443888E+03  0.47000000000E+01 0.  1.
         -5    1    3    3    0  501 -0.46164418973E+02  0.25495093117E+02 -0.88636410138E+02  0.10324561276E+03  0.47000000000E+01 0.  1.
          5    1    4    4  502    0  0.12572165323E+02  0.46713977804E+02 -0.44500473795E+02  0.65898689145E+02  0.47000000000E+01 0. -1.
         -5    1    4    4    0  502 -0.43056836252E+02 -0.69159721944E+02 -0.57609480816E+02  0.99889441721E+02  0.47000000000E+01 0. -1.
<mgrwt>
<rscale>  0 0.26741730E+03</rscale>
<asrwt>0</asrwt>
<pdfrwt beam="1">  1       21 0.80695057E-02 0.26741730E+03</pdfrwt>
<pdfrwt beam="2">  1       21 0.52437908E-01 0.26741730E+03</pdfrwt>
<totfact> 0.40102857E+05</totfact>
</mgrwt>
</event>
<event>
 8    1  0.9569852E-006  0.3482300E+03  0.7546771E-02  0.1063344E+00
         21   -1    0    0  504  503  0.00000000000E+00  0.00000000000E+00  0.27217358099E+03  0.27217358099E+03  0.00000000000E+00 0. -1.
         21   -1    0    0  503  504 -0.00000000000E+00 -0.00000000000E+00 -0.11138489210E+03  0.11138489210E+03  0.00000000000E+00 0. -1.
         25    2    1    2    0    0 -0.80127326689E+02  0.83346817765E+02  0.12049827303E+03  0.20859615366E+03  0.12500176401E+03 0.  0.
         25    2    1    2    0    0  0.80127326689E+02 -0.83346817765E+02  0.40290415864E+02  0.17496231943E+03  0.12498565956E+03 0.  0.
          5    1    3    3  501    0 -0.27525700289E+01 -0.26388156293E+02  0.50174007803E+02  0.56951141282E+02  0.47000000000E+01 0. -1.
         -5    1    3    3    0  501 -0.77374756660E+02  0.10973497406E+03  0.70324265229E+02  0.15164501238E+03  0.47000000000E+01 0. -1.
          5    1    4    4  502    0  0.57146642846E+02  0.19795654412E+02 -0.28494429694E+01  0.60727391245E+02  0.47000000000E+01 0. -1.
         -5    1    4    4    0  502  0.22980683843E+02 -0.10314247218E+03  0.43139858833E+02  0.11423492818E+03  0.47000000000E+01 0. -1.
<mgrwt>
<rscale>  0 0.34822995E+03</rscale>
<asrwt>0</asrwt>
<pdfrwt beam="1">  1       21 0.41872859E-01 0.34822995E+03</pdfrwt>
<pdfrwt beam="2">  1       21 0.17136137E-01 0.34822995E+03</pdfrwt>
<totfact> 0.16187030E+05</totfact>
</mgrwt>
</event>
<event>
 8    1  0.9569852E-006  0.2841926E+03  0.7546771E-02  0.1093421E+00
         21   -1    0    0  504  503  0.00000000000E+00  0.00000000000E+00  0.10778223386E+03  0.10778223386E+03  0.00000000000E+00 0. -1.
         21   -1    0    0  503  504 -0.00000000000E+00 -0.00000000000E+00 -0.18733474751E+03  0.18733474751E+03  0.00000000000E+00 0. -1.
         25    2    1    2    0    0 -0.40023458014E+02  0.55697138876E+01  0.16465407106E+02  0.13240040385E+03  0.12500343357E+03 0.  0.
         25    2    1    2    0    0  0.40023458014E+02 -0.55697138876E+01 -0.96017920751E+02  0.16271657752E+03  0.12499737834E+03 0.  0.
          5    1    3    3  501    0  0.21839805343E+02 -0.43857704608E+02  0.19688679742E+02  0.53011408780E+02  0.47000000000E+01 0.  1.
         -5    1    3    3    0  501 -0.61863263357E+02  0.49427418495E+02 -0.32232726363E+01  0.79388995074E+02  0.47000000000E+01 0.  1.
          5    1    4    4  502    0  0.81115262243E+02 -0.25685182873E+02 -0.58489373110E+02  0.10335623423E+03  0.47000000000E+01 0. -1.
         -5    1    4    4    0  502 -0.41091804229E+02  0.20115468986E+02 -0.37528547641E+02  0.59360343289E+02  0.47000000000E+01 0. -1.
<mgrwt>
<rscale>  0 0.28419259E+03</rscale>
<asrwt>0</asrwt>
<pdfrwt beam="1">  1       21 0.16581882E-01 0.28419259E+03</pdfrwt>
<pdfrwt beam="2">  1       21 0.28820730E-01 0.28419259E+03</pdfrwt>
<totfact> 0.36888950E+05</totfact>
</mgrwt>
</event>
<event>
 8    1  0.9569852E-006  0.3440309E+03  0.7546771E-02  0.1065092E+00
         21   -1    0    0  504  503  0.00000000000E+00  0.00000000000E+00  0.28736596390E+03  0.28736596390E+03  0.00000000000E+00 0. -1.
         21   -1    0    0  503  504 -0.00000000000E+00 -0.00000000000E+00 -0.10296738551E+03  0.10296738551E+03  0.00000000000E+00 0. -1.
         25    2    1    2    0    0 -0.28876386394E+02 -0.82715750418E+01 -0.37467466983E+02  0.13390532897E+03  0.12499824558E+03 0.  0.
         25    2    1    2    0    0  0.28876386394E+02  0.82715750418E+01  0.22186604538E+03  0.25642802044E+03  0.12501409093E+03 0.  0.
          5    1    3    3  501    0  0.41851572008E+02  0.21412111424E+02  0.24488138794E+01  0.47308765410E+02  0.47000000000E+01 0.  1.
         -5    1    3    3    0  501 -0.70727958402E+02 -0.29683686466E+02 -0.39916280863E+02  0.86596563557E+02  0.47000000000E+01 0.  1.
          5    1    4    4  502    0  0.60808675838E+02 -0.36006582155E+02  0.97339220464E+02  0.12037932902E+03  0.47000000000E+01 0.  1.
         -5    1    4    4    0  502 -0.31932289444E+02  0.44278157197E+02  0.12452682491E+03  0.13604869142E+03  0.47000000000E+01 0.  1.
<mgrwt>
<rscale>  0 0.34403094E+03</rscale>
<asrwt>0</asrwt>
<pdfrwt beam="1">  1       21 0.44210148E-01 0.34403094E+03</pdfrwt>
<pdfrwt beam="2">  1       21 0.15841136E-01 0.34403094E+03</pdfrwt>
<totfact> 0.16756394E+05</totfact>
</mgrwt>
</event>
<event>
 8    1  0.9569852E-006  0.3385821E+03  0.7546771E-02  0.1067401E+00
         21   -1    0    0  504  503  0.00000000000E+00  0.00000000000E+00  0.29336023953E+02  0.29336023953E+02  0.00000000000E+00 0. -1.
         21   -1    0    0  503  504 -0.00000000000E+00 -0.00000000000E+00 -0.97693726664E+03  0.97693726664E+03  0.00000000000E+00 0. -1.
         25    2    1    2    0    0 -0.78419624036E+02  0.50892755027E+02 -0.27908537694E+03  0.31977520872E+03  0.12501130567E+03 0.  0.
         25    2    1    2    0    0  0.78419624036E+02 -0.50892755027E+02 -0.66851586575E+03  0.68649808187E+03  0.12500577468E+03 0.  0.
          5    1    3    3  501    0 -0.26928271895E+02  0.83272782638E+02 -0.21030341873E+03  0.22783569976E+03  0.47000000000E+01 0.  1.
         -5    1    3    3    0  501 -0.51491352140E+02 -0.32380027612E+02 -0.68781958202E+02  0.91939508958E+02  0.47000000000E+01 0.  1.
          5    1    4    4  502    0 -0.19631309189E+02 -0.21875565218E+02 -0.36447173498E+03  0.36568519829E+03  0.47000000000E+01 0. -1.
         -5    1    4    4    0  502  0.98050933225E+02 -0.29017189809E+02 -0.30404413077E+03  0.32081288357E+03  0.47000000000E+01 0. -1.
<mgrwt>
<rscale>  0 0.33858207E+03</rscale>
<asrwt>0</asrwt>
<pdfrwt beam="1">  1       21 0.45132341E-02 0.33858207E+03</pdfrwt>
<pdfrwt beam="2">  1       21 0.15029805E+00 0.33858207E+03</pdfrwt>
<totfact> 0.89818055E+04</totfact>
</mgrwt>
</event>
<event>
 8    1  0.9569852E-006  0.2615648E+03  0.7546771E-02  0.1106207E+00
         21   -1    0    0  504  503  0.00000000000E+00  0.00000000000E+00  0.11585668582E+02  0.11585668582E+02  0.00000000000E+00 0.  1.
         21   -1    0    0  503  504 -0.00000000000E+00 -0.00000000000E+00 -0.14763096055E+04  0.14763096055E+04  0.00000000000E+00 0.  1.
         25    2    1    2    0    0 -0.30479668959E+02 -0.34403500983E+01 -0.86425923127E+03  0.87379016288E+03  0.12499753471E+03 0.  0.
         25    2    1    2    0    0  0.30479668959E+02  0.34403500983E+01 -0.60046470560E+03  0.61410511116E+03  0.12500551446E+03 0.  0.
          5    1    3    3  501    0 -0.51466111403E+02  0.20675421919E+02 -0.17211183846E+03  0.18088894005E+03  0.47000000000E+01 0. -1.
         -5    1    3    3    0  501  0.20986442444E+02 -0.24115772018E+02 -0.69214739281E+03  0.69290122283E+03  0.47000000000E+01 0. -1.
          5    1    4    4  502    0  0.16023911165E+02 -0.38890931520E+02 -0.70455403395E+02  0.82190778990E+02  0.47000000000E+01 0. -1.
         -5    1    4    4    0  502  0.14455757794E+02  0.42331281619E+02 -0.53000930221E+03  0.53191433217E+03  0.47000000000E+01 0. -1.
<mgrwt>
<rscale>  0 0.26156478E+03</rscale>
<asrwt>0</asrwt>
<pdfrwt beam="1">  1       21 0.17824102E-02 0.26156478E+03</pdfrwt>
<pdfrwt beam="2">  1       21 0.22712460E+00 0.26156478E+03</pdfrwt>
<totfact> 0.13012911E+05</totfact>
</mgrwt>
</event>
<event>
 8    1  0.9569852E-006  0.2626127E+03  0.7546771E-02  0.1105584E+00
         21   -1    0    0  504  503  0.00000000000E+00  0.00000000000E+00  0.89977672758E+01  0.89977672758E+01  0.00000000000E+00 0.  1.
         21   -1    0    0  503  504 -0.00000000000E+00 -0.00000000000E+00 -0.19161814628E+04  0.19161814628E+04  0.00000000000E+00 0.  1.
         25    2    1    2    0    0  0.37704259877E+02  0.13904680237E+02 -0.94706770732E+03  0.95612637576E+03  0.12500181128E+03 0.  0.
         25    2    1    2    0    0 -0.37704259877E+02 -0.13904680237E+02 -0.96011598821E+03  0.96905285433E+03  0.12500308922E+03 0.  0.
          5    1    3    3  501    0  0.81974004742E+02  0.12990927369E+02 -0.71579972421E+03  0.72061073877E+03  0.47000000000E+01 0.  1.
         -5    1    3    3    0  501 -0.44269744864E+02  0.91375286773E+00 -0.23126798311E+03  0.23551563699E+03  0.47000000000E+01 0.  1.
          5    1    4    4  502    0 -0.17269554285E+02 -0.14793716793E+02 -0.26633489451E+02  0.35334463659E+02  0.47000000000E+01 0.  1.
         -5    1    4    4    0  502 -0.20434705592E+02  0.88903655658E+00 -0.93348249876E+03  0.93371839067E+03  0.47000000000E+01 0.  1.
<mgrwt>
<rscale>  0 0.26261268E+03</rscale>
<asrwt>0</asrwt>
<pdfrwt beam="1">  1       21 0.13842724E-02 0.26261268E+03</pdfrwt>
<pdfrwt beam="2">  1       21 0.29479704E+00 0.26261268E+03</pdfrwt>
<totfact> 0.77561833E+04</totfact>
</mgrwt>
</event>
<event>
 8    1  0.9569852E-006  0.3982744E+03  0.7546771E-02  0.1044379E+00
         21   -1    0    0  504  503  0.00000000000E+00  0.00000000000E+00  0.58123958502E+03  0.58123958502E+03  0.00000000000E+00 0. -1.
         21   -1    0    0  503  504 -0.00000000000E+00 -0.00000000000E+00 -0.68225951355E+02  0.68225951355E+02  0.00000000000E+00 0. -1.
         25    2    1    2    0    0  0.10468918551E+03 -0.73805594885E+02  0.39888197608E+03  0.43719592009E+03  0.12500540109E+03 0.  0.
         25    2    1    2    0    0 -0.10468918551E+03  0.73805594885E+02  0.11413165759E+03  0.21226961629E+03  0.12500105334E+03 0.  0.
          5    1    3    3  501    0  0.27190048922E+02 -0.85618887035E+02  0.13783946731E+03  0.16459556897E+03  0.47000000000E+01 0.  1.
         -5    1    3    3    0  501  0.77499136591E+02  0.11813292151E+02  0.26104250877E+03  0.27260035112E+03  0.47000000000E+01 0.  1.
          5    1    4    4  502    0 -0.75378609776E+02 -0.21980859315E+02  0.52297026288E+02  0.94457196372E+02  0.47000000000E+01 0.  1.
         -5    1    4    4    0  502 -0.29310575737E+02  0.95786454199E+02  0.61834631298E+02  0.11781241991E+03  0.47000000000E+01 0.  1.
<mgrwt>
<rscale>  0 0.39827440E+03</rscale>
<asrwt>0</asrwt>
<pdfrwt beam="1">  1       21 0.89421471E-01 0.39827440E+03</pdfrwt>
<pdfrwt beam="2">  1       21 0.10496301E-01 0.39827440E+03</pdfrwt>
<totfact> 0.74272663E+04</totfact>
</mgrwt>
</event>
<event>
 8    1  0.9569852E-006  0.2724537E+03  0.7546771E-02  0.1099883E+00
         21   -1    0    0  504  503  0.00000000000E+00  0.00000000000E+00  0.94076203638E+02  0.94076203638E+02  0.00000000000E+00 0. -1.
         21   -1    0    0  503  504 -0.00000000000E+00 -0.00000000000E+00 -0.19726295860E+03  0.19726295860E+03  0.00000000000E+00 0. -1.
         25    2    1    2    0    0 -0.30551545760E+01  0.16723775852E+02  0.33807452559E+01  0.12620115904E+03  0.12500513772E+03 0.  0.
         25    2    1    2    0    0  0.30551545760E+01 -0.16723775852E+02 -0.10656750022E+03  0.16513800320E+03  0.12499963740E+03 0.  0.
          5    1    3    3  501    0  0.89461613868E+01  0.18282590698E+02  0.62382887598E+02  0.65787548907E+02  0.47000000000E+01 0.  1.
         -5    1    3    3    0  501 -0.12001315963E+02 -0.15588148460E+01 -0.59002142342E+02  0.60413610134E+02  0.47000000000E+01 0.  1.
          5    1    4    4  502    0  0.54262919613E+02 -0.19163045621E+02 -0.14304914995E+02  0.59484513576E+02  0.47000000000E+01 0. -1.
         -5    1    4    4    0  502 -0.51207765037E+02  0.24392697690E+01 -0.92262585222E+02  0.10565348962E+03  0.47000000000E+01 0. -1.
<mgrwt>
<rscale>  0 0.27245367E+03</rscale>
<asrwt>0</asrwt>
<pdfrwt beam="1">  1       21 0.14473262E-01 0.27245367E+03</pdfrwt>
<pdfrwt beam="2">  1       21 0.30348147E-01 0.27245367E+03</pdfrwt>
<totfact> 0.42909732E+05</totfact>
</mgrwt>
</event>
<event>
 8    1  0.9569852E-006  0.2971756E+03  0.7546771E-02  0.1086661E+00
         21   -1    0    0  504  503  0.00000000000E+00  0.00000000000E+00  0.92924479760E+02  0.92924479760E+02  0.00000000000E+00 0.  1.
         21   -1    0    0  503  504 -0.00000000000E+00 -0.00000000000E+00 -0.23759430887E+03  0.23759430887E+03  0.00000000000E+00 0.  1.
         25    2    1    2    0    0  0.36181882528E+02  0.32660689191E+02 -0.14335980727E+03  0.19634564372E+03  0.12499491279E+03 0.  0.
         25    2    1    2    0    0 -0.36181882528E+02 -0.32660689191E+02 -0.13100218394E+01  0.13417314492E+03  0.12499946967E+03 0.  0.
          5    1    3    3  501    0 -0.26954425237E+02  0.57108452531E+02 -0.48774034463E+02  0.79930675138E+02  0.47000000000E+01 0. -1.
         -5    1    3    3    0  501  0.63136307765E+02 -0.24447763339E+02 -0.94585772812E+02  0.11641496858E+03  0.47000000000E+01 0. -1.
          5    1    4    4  502    0 -0.64538999723E+02 -0.64164463606E+02 -0.56675832207E+01  0.91304832154E+02  0.47000000000E+01 0.  1.
         -5    1    4    4    0  502  0.28357117194E+02  0.31503774415E+02  0.43575613813E+01  0.42868312763E+02  0.47000000000E+01 0.  1.
<mgrwt>
<rscale>  0 0.29717555E+03</rscale>
<asrwt>0</asrwt>
<pdfrwt beam="1">  1       21 0.14296074E-01 0.29717555E+03</pdfrwt>
<pdfrwt beam="2">  1       21 0.36552971E-01 0.29717555E+03</pdfrwt>
<totfact> 0.30160055E+05</totfact>
</mgrwt>
</event>
<event>
 8    1  0.9569852E-006  0.3890313E+03  0.7546771E-02  0.1047645E+00
         21   -1    0    0  504  503  0.00000000000E+00  0.00000000000E+00  0.10700289444E+04  0.10700289444E+04  0.00000000000E+00 0. -1.
         21   -1    0    0  503  504 -0.00000000000E+00 -0.00000000000E+00 -0.35360109968E+02  0.35360109968E+02  0.00000000000E+00 0. -1.
         25    2    1    2    0    0 -0.27612405706E+02 -0.12556324641E+03  0.30313364688E+03  0.35219793695E+03  0.12499922050E+03 0.  0.
         25    2    1    2    0    0  0.27612405706E+02  0.12556324641E+03  0.73153518757E+03  0.75319111743E+03  0.12499821971E+03 0.  0.
          5    1    3    3  501    0 -0.34804314538E+01 -0.20183586167E+02  0.20513355600E+03  0.20620707153E+03  0.47000000000E+01 0. -1.
         -5    1    3    3    0  501 -0.24131974253E+02 -0.10537966024E+03  0.98000090888E+02  0.14599086543E+03  0.47000000000E+01 0. -1.
          5    1    4    4  502    0  0.63705201870E+02  0.12774570206E+03  0.58761540972E+03  0.60472413287E+03  0.47000000000E+01 0.  1.
         -5    1    4    4    0  502 -0.36092796164E+02 -0.21824556578E+01  0.14391977785E+03  0.14846698456E+03  0.47000000000E+01 0.  1.
<mgrwt>
<rscale>  0 0.38903132E+03</rscale>
<asrwt>0</asrwt>
<pdfrwt beam="1">  1       21 0.16461981E+00 0.38903132E+03</pdfrwt>
<pdfrwt beam="2">  1       21 0.54400177E-02 0.38903132E+03</pdfrwt>
<totfact> 0.49995923E+04</totfact>
</mgrwt>
</event>
<event>
 8    1  0.9569852E-006  0.3372342E+03  0.7546771E-02  0.1067980E+00
         21   -1    0    0  504  503  0.00000000000E+00  0.00000000000E+00  0.20140842109E+03  0.20140842109E+03  0.00000000000E+00 0.  1.
         21   -1    0    0  503  504 -0.00000000000E+00 -0.00000000000E+00 -0.14116452850E+03  0.14116452850E+03  0.00000000000E+00 0.  1.
         25    2    1    2    0    0  0.19683298335E+02 -0.58905263312E+01  0.14316216319E+03  0.19116386814E+03  0.12500435583E+03 0.  0.
         25    2    1    2    0    0 -0.19683298335E+02  0.58905263312E+01 -0.82918270604E+02  0.15140908145E+03  0.12500855896E+03 0.  0.
          5    1    3    3  501    0 -0.25116321258E+02 -0.72702235325E+01  0.14365873893E+03  0.14609452082E+03  0.47000000000E+01 0.  1.
         -5    1    3    3    0  501  0.44799619593E+02  0.13796972013E+01 -0.49657573491E+00  0.45069347316E+02  0.47000000000E+01 0.  1.
          5    1    4    4  502    0  0.20968996935E+01  0.27070261620E+02  0.26212349849E+02  0.38031215299E+02  0.47000000000E+01 0.  1.
         -5    1    4    4    0  502 -0.21780198028E+02 -0.21179735289E+02 -0.10913062045E+03  0.11337786615E+03  0.47000000000E+01 0.  1.
<mgrwt>
<rscale>  0 0.33723419E+03</rscale>
<asrwt>0</asrwt>
<pdfrwt beam="1">  1       21 0.30985911E-01 0.33723419E+03</pdfrwt>
<pdfrwt beam="2">  1       21 0.21717620E-01 0.33723419E+03</pdfrwt>
<totfact> 0.19065144E+05</totfact>
</mgrwt>
</event>
<event>
 8    1  0.9569852E-006  0.2782784E+03  0.7546771E-02  0.1096633E+00
         21   -1    0    0  504  503  0.00000000000E+00  0.00000000000E+00  0.15871755417E+04  0.15871755417E+04  0.00000000000E+00 0. -1.
         21   -1    0    0  503  504 -0.00000000000E+00 -0.00000000000E+00 -0.12197590769E+02  0.12197590769E+02  0.00000000000E+00 0. -1.
         25    2    1    2    0    0  0.49649294843E+02  0.28385567798E+02  0.91125995068E+03  0.92156989499E+03  0.12500232278E+03 0.  0.
         25    2    1    2    0    0 -0.49649294843E+02 -0.28385567798E+02  0.66371800023E+03  0.67780323746E+03  0.12499940776E+03 0.  0.
          5    1    3    3  501    0  0.68421640267E+02  0.64389833622E+02  0.54780771924E+03  0.55582637468E+03  0.47000000000E+01 0.  1.
         -5    1    3    3    0  501 -0.18772345425E+02 -0.36004265824E+02  0.36345223144E+03  0.36574352031E+03  0.47000000000E+01 0.  1.
          5    1    4    4  502    0 -0.66162512757E+02  0.10697862933E+02  0.57952378141E+03  0.58340536986E+03  0.47000000000E+01 0.  1.
         -5    1    4    4    0  502  0.16513217915E+02 -0.39083430731E+02  0.84194218820E+02  0.94397867594E+02  0.47000000000E+01 0.  1.
<mgrwt>
<rscale>  0 0.27827841E+03</rscale>
<asrwt>0</asrwt>
<pdfrwt beam="1">  1       21 0.24418069E+00 0.27827841E+03</pdfrwt>
<pdfrwt beam="2">  1       21 0.18765537E-02 0.27827841E+03</pdfrwt>
<totfact> 0.93407700E+04</totfact>
</mgrwt>
</event>
<event>
 8    1  0.9569852E-006  0.3739512E+03  0.7546771E-02  0.1053192E+00
         21   -1    0    0  504  503  0.00000000000E+00  0.00000000000E+00  0.69010534391E+03  0.69010534391E+03  0.00000000000E+00 0. -1.
         21   -1    0    0  503  504 -0.00000000000E+00 -0.00000000000E+00 -0.50658740503E+02  0.50658740503E+02  0.00000000000E+00 0. -1.
         25    2    1    2    0    0  0.65848250960E+02  0.11722171592E+03  0.38996613166E+03  0.43101840152E+03  0.12500542294E+03 0.  0.
         25    2    1    2    0    0 -0.65848250960E+02 -0.11722171592E+03  0.24948047175E+03  0.30974568290E+03  0.12499983782E+03 0.  0.
          5    1    3    3  501    0  0.50308170846E+02 -0.82069195326E+01  0.16711409915E+03  0.17477836742E+03  0.47000000000E+01 0. -1.
         -5    1    3    3    0  501  0.15540080114E+02  0.12542863545E+03  0.22285203251E+03  0.25624003410E+03  0.47000000000E+01 0. -1.
          5    1    4    4  502    0 -0.54515660722E+01 -0.52954526621E+02  0.20305277903E+03  0.20996767021E+03  0.47000000000E+01 0. -1.
         -5    1    4    4    0  502 -0.60396684888E+02 -0.64267189295E+02  0.46427692720E+02  0.99778012692E+02  0.47000000000E+01 0. -1.
<mgrwt>
<rscale>  0 0.37395116E+03</rscale>
<asrwt>0</asrwt>
<pdfrwt beam="1">  1       21 0.10617005E+00 0.37395116E+03</pdfrwt>
<pdfrwt beam="2">  1       21 0.77936529E-02 0.37395116E+03</pdfrwt>
<totfact> 0.84028096E+04</totfact>
</mgrwt>
</event>
<event>
 8    1  0.9569852E-006  0.3645921E+03  0.7546771E-02  0.1056780E+00
         21   -1    0    0  504  503  0.00000000000E+00  0.00000000000E+00  0.44187607526E+02  0.44187607526E+02  0.00000000000E+00 0. -1.
         21   -1    0    0  503  504 -0.00000000000E+00 -0.00000000000E+00 -0.75206265211E+03  0.75206265211E+03  0.00000000000E+00 0. -1.
         25    2    1    2    0    0 -0.57860757026E+01  0.10017853878E+03 -0.16435610609E+03  0.22958201386E+03  0.12500301268E+03 0.  0.
         25    2    1    2    0    0  0.57860757026E+01 -0.10017853878E+03 -0.54351893850E+03  0.56666824578E+03  0.12502338163E+03 0.  0.
          5    1    3    3  501    0 -0.39937283333E+02  0.84600314651E+02 -0.16719434076E+03  0.19164612550E+03  0.47000000000E+01 0.  1.
         -5    1    3    3    0  501  0.34151207630E+02  0.15578224129E+02  0.28382346736E+01  0.37935888360E+02  0.47000000000E+01 0.  1.
          5    1    4    4  502    0  0.37261551624E+02  0.12621192000E+02 -0.19454805485E+03  0.19854156583E+03  0.47000000000E+01 0.  1.
         -5    1    4    4    0  502 -0.31475475921E+02 -0.11279973078E+03 -0.34897088366E+03  0.36812667995E+03  0.47000000000E+01 0.  1.
<mgrwt>
<rscale>  0 0.36459210E+03</rscale>
<asrwt>0</asrwt>
<pdfrwt beam="1">  1       21 0.67980931E-02 0.36459210E+03</pdfrwt>
<pdfrwt beam="2">  1       21 0.11570195E+00 0.36459210E+03</pdfrwt>
<totfact> 0.86574740E+04</totfact>
</mgrwt>
</event>
<event>
 8    1  0.9569852E-006  0.4403414E+03  0.7546771E-02  0.1030642E+00
         21   -1    0    0  504  503  0.00000000000E+00  0.00000000000E+00  0.22319377815E+03  0.22319377815E+03  0.00000000000E+00 0.  1.
         21   -1    0    0  503  504 -0.00000000000E+00 -0.00000000000E+00 -0.21718855322E+03  0.21718855322E+03  0.00000000000E+00 0.  1.
         25    2    1    2    0    0 -0.76645635075E+02  0.15557402635E+03 -0.49628279599E+02  0.21947369242E+03  0.12501161738E+03 0.  0.
         25    2    1    2    0    0  0.76645635075E+02 -0.15557402635E+03  0.55633504531E+02  0.22090863895E+03  0.12501083508E+03 0.  0.
          5    1    3    3  501    0  0.25527808880E+02  0.85550158528E+02 -0.13925067333E+02  0.90479258123E+02  0.47000000000E+01 0. -1.
         -5    1    3    3    0  501 -0.10217344396E+03  0.70023867823E+02 -0.35703212266E+02  0.12899443430E+03  0.47000000000E+01 0. -1.
          5    1    4    4  502    0  0.87145678954E+02 -0.16542586927E+03  0.70314081608E+02  0.19981553407E+03  0.47000000000E+01 0. -1.
         -5    1    4    4    0  502 -0.10500043880E+02  0.98518429154E+01 -0.14680577078E+02  0.21093104884E+02  0.47000000000E+01 0. -1.
<mgrwt>
<rscale>  0 0.44034138E+03</rscale>
<asrwt>0</asrwt>
<pdfrwt beam="1">  1       21 0.34337504E-01 0.44034138E+03</pdfrwt>
<pdfrwt beam="2">  1       21 0.33413623E-01 0.44034138E+03</pdfrwt>
<totfact> 0.65405017E+04</totfact>
</mgrwt>
</event>
<event>
 8    1  0.9569852E-006  0.2731836E+03  0.7546771E-02  0.1099471E+00
         21   -1    0    0  504  503  0.00000000000E+00  0.00000000000E+00  0.57676941706E+02  0.57676941706E+02  0.00000000000E+00 0.  1.
         21   -1    0    0  503  504 -0.00000000000E+00 -0.00000000000E+00 -0.32347966146E+03  0.32347966146E+03  0.00000000000E+00 0.  1.
         25    2    1    2    0    0 -0.31580753285E+02 -0.33277540737E+02 -0.90419714776E+02  0.16095408868E+03  0.12500302055E+03 0.  0.
         25    2    1    2    0    0  0.31580753285E+02  0.33277540737E+02 -0.17538300498E+03  0.22020251449E+03  0.12500084103E+03 0.  0.
          5    1    3    3  501    0 -0.20598630547E+02 -0.75886062945E+02 -0.26299772815E+02  0.83046771038E+02  0.47000000000E+01 0. -1.
         -5    1    3    3    0  501 -0.10982122738E+02  0.42608522208E+02 -0.64119941961E+02  0.77907317639E+02  0.47000000000E+01 0. -1.
          5    1    4    4  502    0  0.23354703577E+02 -0.45654482267E+02 -0.50243944073E+02  0.71946631932E+02  0.47000000000E+01 0. -1.
         -5    1    4    4    0  502  0.82260497078E+01  0.78932023004E+02 -0.12513906091E+03  0.14825588256E+03  0.47000000000E+01 0. -1.
<mgrwt>
<rscale>  0 0.27318358E+03</rscale>
<asrwt>0</asrwt>
<pdfrwt beam="1">  1       21 0.88733758E-02 0.27318358E+03</pdfrwt>
<pdfrwt beam="2">  1       21 0.49766101E-01 0.27318358E+03</pdfrwt>
<totfact> 0.37845183E+05</totfact>
</mgrwt>
</event>
<event>
 8    1  0.9569852E-006  0.2599060E+03  0.7546771E-02  0.1107200E+00
         21   -1    0    0  504  503  0.00000000000E+00  0.00000000000E+00  0.10130317841E+03  0.10130317841E+03  0.00000000000E+00 0. -1.
         21   -1    0    0  503  504 -0.00000000000E+00 -0.00000000000E+00 -0.16670532279E+03  0.16670532279E+03  0.00000000000E+00 0. -1.
         25    2    1    2    0    0 -0.24355041116E+02  0.24870166236E+02 -0.25396308455E+02  0.13222129591E+03  0.12500322161E+03 0.  0.
         25    2    1    2    0    0  0.24355041116E+02 -0.24870166236E+02 -0.40005835930E+02  0.13578720529E+03  0.12500402000E+03 0.  0.
          5    1    3    3  501    0 -0.45629226718E+02 -0.22930611276E+02 -0.52260041219E+02  0.73219131193E+02  0.47000000000E+01 0. -1.
         -5    1    3    3    0  501  0.21274185602E+02  0.47800777512E+02  0.26863732764E+02  0.59002164721E+02  0.47000000000E+01 0. -1.
          5    1    4    4  502    0  0.74591795570E+02 -0.85012475138E+01 -0.33502590829E+02  0.82345132023E+02  0.47000000000E+01 0.  1.
         -5    1    4    4    0  502 -0.50236754454E+02 -0.16368918723E+02 -0.65032451013E+01  0.53442073267E+02  0.47000000000E+01 0.  1.
<mgrwt>
<rscale>  0 0.25990598E+03</rscale>
<asrwt>0</asrwt>
<pdfrwt beam="1">  1       21 0.15585104E-01 0.25990598E+03</pdfrwt>
<pdfrwt beam="2">  1       21 0.25646973E-01 0.25990598E+03</pdfrwt>
<totfact> 0.52106950E+05</totfact>
</mgrwt>
</event>
<event>
 8    1  0.9569852E-006  0.2878150E+03  0.7546771E-02  0.1091495E+00
         21   -1    0    0  504  503  0.00000000000E+00  0.00000000000E+00  0.33959780070E+02  0.33959780070E+02  0.00000000000E+00 0.  1.
         21   -1    0    0  503  504 -0.00000000000E+00 -0.00000000000E+00 -0.60982057157E+03  0.60982057157E+03  0.00000000000E+00 0.  1.
         25    2    1    2    0    0 -0.42927143060E+02  0.27545027101E+02 -0.39937587438E+03  0.42157802753E+03  0.12500190451E+03 0.  0.
         25    2    1    2    0    0  0.42927143060E+02 -0.27545027101E+02 -0.17648491712E+03  0.22220232411E+03  0.12500191494E+03 0.  0.
          5    1    3    3  501    0  0.15124051379E+02 -0.37711364409E+02 -0.72922161889E+02  0.83609901508E+02  0.47000000000E+01 0.  1.
         -5    1    3    3    0  501 -0.58051194439E+02  0.65256391510E+02 -0.32645371249E+03  0.33796812602E+03  0.47000000000E+01 0.  1.
          5    1    4    4  502    0  0.83568500800E+01 -0.65126137100E+01 -0.18085943968E+03  0.18123045550E+03  0.47000000000E+01 0.  1.
         -5    1    4    4    0  502  0.34570292980E+02 -0.21032413391E+02  0.43745225560E+01  0.40971868610E+02  0.47000000000E+01 0.  1.
<mgrwt>
<rscale>  0 0.28781503E+03</rscale>
<asrwt>0</asrwt>
<pdfrwt beam="1">  1       21 0.52245817E-02 0.28781503E+03</pdfrwt>
<pdfrwt beam="2">  1       21 0.93818546E-01 0.28781503E+03</pdfrwt>
<totfact> 0.23170678E+05</totfact>
</mgrwt>
</event>
<event>
 8    1  0.9569852E-006  0.4577036E+03  0.7546771E-02  0.1025449E+00
         21   -1    0    0  504  503  0.00000000000E+00  0.00000000000E+00  0.31560697995E+03  0.31560697995E+03  0.00000000000E+00 0. -1.
         21   -1    0    0  503  504 -0.00000000000E+00 -0.00000000000E+00 -0.16594420638E+03  0.16594420638E+03  0.00000000000E+00 0. -1.
         25    2    1    2    0    0  0.10737076734E+03 -0.14976855255E+03  0.19276582088E+02  0.22350748033E+03  0.12499962455E+03 0.  0.
         25    2    1    2    0    0 -0.10737076734E+03  0.14976855255E+03  0.13038619148E+03  0.25804370599E+03  0.12500757682E+03 0.  0.
          5    1    3    3  501    0  0.12913926366E+01 -0.35952772921E+02 -0.42641418521E+02  0.55987946463E+02  0.47000000000E+01 0. -1.
         -5    1    3    3    0  501  0.10607937470E+03 -0.11381577963E+03  0.61918000609E+02  0.16751953387E+03  0.47000000000E+01 0. -1.
          5    1    4    4  502    0 -0.10324616737E+03  0.55573048518E+02  0.11129326906E+03  0.16172945476E+03  0.47000000000E+01 0. -1.
         -5    1    4    4    0  502 -0.41245999636E+01  0.94195504029E+02  0.19092922420E+02  0.96314251234E+02  0.47000000000E+01 0. -1.
<mgrwt>
<rscale>  0 0.45770362E+03</rscale>
<asrwt>0</asrwt>
<pdfrwt beam="1">  1       21 0.48554920E-01 0.45770362E+03</pdfrwt>
<pdfrwt beam="2">  1       21 0.25529878E-01 0.45770362E+03</pdfrwt>
<totfact> 0.54272400E+04</totfact>
</mgrwt>
</event>
<event>
 8    1  0.9569852E-006  0.2765425E+03  0.7546771E-02  0.1097592E+00
         21   -1    0    0  504  503  0.00000000000E+00  0.00000000000E+00  0.83608856214E+01  0.83608856214E+01  0.00000000000E+00 0.  1.
         21   -1    0    0  503  504 -0.00000000000E+00 -0.00000000000E+00 -0.22867128211E+04  0.22867128211E+04  0.00000000000E+00 0.  1.
         25    2    1    2    0    0 -0.41686394961E+02 -0.17632407164E+02 -0.82364306981E+03  0.83430315302E+03  0.12500074958E+03 0.  0.
         25    2    1    2    0    0  0.41686394961E+02  0.17632407164E+02 -0.14547088656E+04  0.14607705537E+04  0.12499627747E+03 0.  0.
          5    1    3    3  501    0  0.11007661597E+02 -0.50569945399E+02 -0.59671608593E+03  0.59897467826E+03  0.47000000000E+01 0. -1.
         -5    1    3    3    0  501 -0.52694056558E+02  0.32937538235E+02 -0.22692698387E+03  0.23532847476E+03  0.47000000000E+01 0. -1.
          5    1    4    4  502    0  0.28069735722E+02 -0.29292370537E+02 -0.15996224912E+03  0.16509380418E+03  0.47000000000E+01 0. -1.
         -5    1    4    4    0  502  0.13616659240E+02  0.46924777701E+02 -0.12947466165E+04  0.12956767495E+04  0.47000000000E+01 0. -1.
<mgrwt>
<rscale>  0 0.27654254E+03</rscale>
<asrwt>0</asrwt>
<pdfrwt beam="1">  1       21 0.12862922E-02 0.27654254E+03</pdfrwt>
<pdfrwt beam="2">  1       21 0.35180141E+00 0.27654254E+03</pdfrwt>
<totfact> 0.39806556E+04</totfact>
</mgrwt>
</event>
<event>
 8    1  0.9569852E-006  0.2849911E+03  0.7546771E-02  0.1092994E+00
         21   -1    0    0  504  503  0.00000000000E+00  0.00000000000E+00  0.10394738182E+02  0.10394738182E+02  0.00000000000E+00 0. -1.
         21   -1    0    0  503  504 -0.00000000000E+00 -0.00000000000E+00 -0.19533905367E+04  0.19533905367E+04  0.00000000000E+00 0. -1.
         25    2    1    2    0    0  0.46947716542E+02  0.10333280248E+02 -0.63603827667E+03  0.64998368288E+03  0.12499293517E+03 0.  0.
         25    2    1    2    0    0 -0.46947716542E+02 -0.10333280248E+02 -0.13069575219E+04  0.13138015920E+04  0.12500317789E+03 0.  0.
          5    1    3    3  501    0  0.88778489980E+02  0.17592224519E+02 -0.45942980265E+03  0.46828297023E+03  0.47000000000E+01 0. -1.
         -5    1    3    3    0  501 -0.41830773438E+02 -0.72589442711E+01 -0.17660847402E+03  0.18170071264E+03  0.47000000000E+01 0. -1.
          5    1    4    4  502    0 -0.14647709636E+02  0.24619319470E+02 -0.11335150910E+04  0.11338867747E+04  0.47000000000E+01 0. -1.
         -5    1    4    4    0  502 -0.32300006906E+02 -0.34952599719E+02 -0.17344243087E+03  0.17991481734E+03  0.47000000000E+01 0. -1.
<mgrwt>
<rscale>  0 0.28499111E+03</rscale>
<asrwt>0</asrwt>
<pdfrwt beam="1">  1       21 0.15991918E-02 0.28499111E+03</pdfrwt>
<pdfrwt beam="2">  1       21 0.30052138E+00 0.28499111E+03</pdfrwt>
<totfact> 0.56019891E+04</totfact>
</mgrwt>
</event>
<event>
 8    1  0.9569852E-006  0.3303616E+03  0.7546771E-02  0.1070977E+00
         21   -1    0    0  504  503  0.00000000000E+00  0.00000000000E+00  0.14491088807E+04  0.14491088807E+04  0.00000000000E+00 0.  1.
         21   -1    0    0  503  504 -0.00000000000E+00 -0.00000000000E+00 -0.18828598161E+02  0.18828598161E+02  0.00000000000E+00 0.  1.
         25    2    1    2    0    0 -0.68281615204E+02 -0.26077165411E+02  0.10683315098E+04  0.10780990736E+04  0.12499200053E+03 0.  0.
         25    2    1    2    0    0  0.68281615204E+02  0.26077165411E+02  0.36194877282E+03  0.38983840531E+03  0.12499868231E+03 0.  0.
          5    1    3    3  501    0 -0.35858693624E+02 -0.29429321814E+02  0.10102898829E+04  0.10113652498E+04  0.47000000000E+01 0. -1.
         -5    1    3    3    0  501 -0.32422921580E+02  0.33521564027E+01  0.58041626818E+02  0.66733823808E+02  0.47000000000E+01 0. -1.
          5    1    4    4  502    0  0.31707937291E+01  0.55929462068E+02  0.25438413206E+03  0.26052165996E+03  0.47000000000E+01 0.  1.
         -5    1    4    4    0  502  0.65110821475E+02 -0.29852296657E+02  0.10756464075E+03  0.12931674536E+03  0.47000000000E+01 0.  1.
<mgrwt>
<rscale>  0 0.33036155E+03</rscale>
<asrwt>0</asrwt>
<pdfrwt beam="1">  1       21 0.22293974E+00 0.33036155E+03</pdfrwt>
<pdfrwt beam="2">  1       21 0.28967085E-02 0.33036155E+03</pdfrwt>
<totfact> 0.60135719E+04</totfact>
</mgrwt>
</event>
<event>
 8    1  0.9569852E-006  0.4230444E+03  0.7546771E-02  0.1036080E+00
         21   -1    0    0  504  503  0.00000000000E+00  0.00000000000E+00  0.55033487026E+03  0.55033487026E+03  0.00000000000E+00 0.  1.
         21   -1    0    0  503  504 -0.00000000000E+00 -0.00000000000E+00 -0.81298932242E+02  0.81298932242E+02  0.00000000000E+00 0.  1.
         25    2    1    2    0    0  0.10598514936E+03  0.54819525599E+02  0.41664012490E+03  0.45105708225E+03  0.12500186201E+03 0.  0.
         25    2    1    2    0    0 -0.10598514936E+03 -0.54819525599E+02  0.52395813119E+02  0.18057672024E+03  0.12499839355E+03 0.  0.
          5    1    3    3  501    0  0.96953772058E+02  0.83961762114E+02  0.24416251049E+03  0.27583878070E+03  0.47000000000E+01 0. -1.
         -5    1    3    3    0  501  0.90313773062E+01 -0.29142236515E+02  0.17247761441E+03  0.17521830155E+03  0.47000000000E+01 0. -1.
          5    1    4    4  502    0  0.15177603565E+02  0.22354157690E+02  0.17948207873E+02  0.32776457738E+02  0.47000000000E+01 0. -1.
         -5    1    4    4    0  502 -0.12116275293E+03 -0.77173683289E+02  0.34447605245E+02  0.14780026251E+03  0.47000000000E+01 0. -1.
<mgrwt>
<rscale>  0 0.42304438E+03</rscale>
<asrwt>0</asrwt>
<pdfrwt beam="1">  1       21 0.84666901E-01 0.42304438E+03</pdfrwt>
<pdfrwt beam="2">  1       21 0.12507528E-01 0.42304438E+03</pdfrwt>
<totfact> 0.61092335E+04</totfact>
</mgrwt>
</event>
<event>
 8    1  0.9569852E-006  0.2822293E+03  0.7546771E-02  0.1094478E+00
         21   -1    0    0  504  503  0.00000000000E+00  0.00000000000E+00  0.64983380120E+02  0.64983380120E+02  0.00000000000E+00 0.  1.
         21   -1    0    0  503  504 -0.00000000000E+00 -0.00000000000E+00 -0.30643742869E+03  0.30643742869E+03  0.00000000000E+00 0.  1.
         25    2    1    2    0    0 -0.32193585162E+02 -0.44841215025E+02 -0.74358304236E+02  0.15556762430E+03  0.12499986732E+03 0.  0.
         25    2    1    2    0    0  0.32193585162E+02  0.44841215025E+02 -0.16709574433E+03  0.21585318451E+03  0.12499779198E+03 0.  0.
          5    1    3    3  501    0  0.26585367719E+02 -0.83024877632E+01 -0.81093617328E+02  0.85871868799E+02  0.47000000000E+01 0.  1.
         -5    1    3    3    0  501 -0.58778952881E+02 -0.36538727262E+02  0.67353130920E+01  0.69695755496E+02  0.47000000000E+01 0.  1.
          5    1    4    4  502    0  0.63577470996E+02  0.68415774112E+02 -0.13828624281E+03  0.16693707771E+03  0.47000000000E+01 0.  1.
         -5    1    4    4    0  502 -0.31383885834E+02 -0.23574559087E+02 -0.28809501523E+02  0.48916106797E+02  0.47000000000E+01 0.  1.
<mgrwt>
<rscale>  0 0.28222927E+03</rscale>
<asrwt>0</asrwt>
<pdfrwt beam="1">  1       21 0.99974429E-02 0.28222927E+03</pdfrwt>
<pdfrwt beam="2">  1       21 0.47144221E-01 0.28222927E+03</pdfrwt>
<totfact> 0.34242670E+05</totfact>
</mgrwt>
</event>
<event>
 8    1  0.9569852E-006  0.3135989E+03  0.7546771E-02  0.1078634E+00
         21   -1    0    0  504  503  0.00000000000E+00  0.00000000000E+00  0.39377364502E+02  0.39377364502E+02  0.00000000000E+00 0.  1.
         21   -1    0    0  503  504 -0.00000000000E+00 -0.00000000000E+00 -0.62437038439E+03  0.62437038439E+03  0.00000000000E+00 0.  1.
         25    2    1    2    0    0  0.12667539516E+02  0.65492094355E+02 -0.15032409298E+03  0.20657152344E+03  0.12499912153E+03 0.  0.
         25    2    1    2    0    0 -0.12667539516E+02 -0.65492094355E+02 -0.43466892691E+03  0.45717622545E+03  0.12499337631E+03 0.  0.
          5    1    3    3  501    0 -0.38672814966E+02 -0.84570897838E+01 -0.89067155704E+02  0.97581541340E+02  0.47000000000E+01 0.  1.
         -5    1    3    3    0  501  0.51340354482E+02  0.73949184138E+02 -0.61256937274E+02  0.10898998210E+03  0.47000000000E+01 0.  1.
          5    1    4    4  502    0 -0.46904272849E+02  0.10556782077E+02 -0.24812578530E+03  0.25278439784E+03  0.47000000000E+01 0.  1.
         -5    1    4    4    0  502  0.34236733333E+02 -0.76048876431E+02 -0.18654314161E+03  0.20439182762E+03  0.47000000000E+01 0.  1.
<mgrwt>
<rscale>  0 0.31359885E+03</rscale>
<asrwt>0</asrwt>
<pdfrwt beam="1">  1       21 0.60580562E-02 0.31359885E+03</pdfrwt>
<pdfrwt beam="2">  1       21 0.96056980E-01 0.31359885E+03</pdfrwt>
<totfact> 0.16874209E+05</totfact>
</mgrwt>
</event>
<event>
 8    1  0.9569852E-006  0.2674499E+03  0.7546771E-02  0.1102748E+00
         21   -1    0    0  504  503  0.00000000000E+00  0.00000000000E+00  0.17716377659E+02  0.17716377659E+02  0.00000000000E+00 0. -1.
         21   -1    0    0  503  504 -0.00000000000E+00 -0.00000000000E+00 -0.10093689014E+04  0.10093689014E+04  0.00000000000E+00 0. -1.
         25    2    1    2    0    0 -0.46521717183E+02  0.86851580652E+01 -0.51117963070E+03  0.52836332890E+03  0.12499396120E+03 0.  0.
         25    2    1    2    0    0  0.46521717183E+02 -0.86851580652E+01 -0.48047289307E+03  0.49872195020E+03  0.12501872056E+03 0.  0.
          5    1    3    3  501    0 -0.31472525495E+02  0.40067828937E+02 -0.47568970580E+03  0.47843362860E+03  0.47000000000E+01 0.  1.
         -5    1    3    3    0  501 -0.15049191689E+02 -0.31382670871E+02 -0.35489924906E+02  0.49929700293E+02  0.47000000000E+01 0.  1.
          5    1    4    4  502    0  0.24788176569E+02  0.53290664408E+02 -0.13948096755E+03  0.15143110288E+03  0.47000000000E+01 0.  1.
         -5    1    4    4    0  502  0.21733540614E+02 -0.61975822473E+02 -0.34099192552E+03  0.34729084732E+03  0.47000000000E+01 0.  1.
<mgrwt>
<rscale>  0 0.26744989E+03</rscale>
<asrwt>0</asrwt>
<pdfrwt beam="1">  1       21 0.27255969E-02 0.26744989E+03</pdfrwt>
<pdfrwt beam="2">  1       21 0.15528750E+00 0.26744989E+03</pdfrwt>
<totfact> 0.19654025E+05</totfact>
</mgrwt>
</event>
<event>
 8    1  0.9569852E-006  0.2534334E+03  0.7546771E-02  0.1111154E+00
         21   -1    0    0  504  503  0.00000000000E+00  0.00000000000E+00  0.31023324277E+02  0.31023324277E+02  0.00000000000E+00 0. -1.
         21   -1    0    0  503  504 -0.00000000000E+00 -0.00000000000E+00 -0.51758225443E+03  0.51758225443E+03  0.00000000000E+00 0. -1.
         25    2    1    2    0    0 -0.99007407688E+01  0.26169081764E+01 -0.28244480052E+03  0.30904036127E+03  0.12500402666E+03 0.  0.
         25    2    1    2    0    0  0.99007407688E+01 -0.26169081764E+01 -0.20411412964E+03  0.23956521744E+03  0.12499617039E+03 0.  0.
          5    1    3    3  501    0 -0.46782972343E+01  0.63035629737E+02 -0.12263661621E+03  0.13804784213E+03  0.47000000000E+01 0. -1.
         -5    1    3    3    0  501 -0.52224435344E+01 -0.60418721560E+02 -0.15980818431E+03  0.17099251915E+03  0.47000000000E+01 0. -1.
          5    1    4    4  502    0 -0.25652704698E+01 -0.57976276824E+02 -0.55585625663E+02  0.80496466179E+02  0.47000000000E+01 0. -1.
         -5    1    4    4    0  502  0.12466011239E+02  0.55359368648E+02 -0.14852850397E+03  0.15906875126E+03  0.47000000000E+01 0. -1.
<mgrwt>
<rscale>  0 0.25343340E+03</rscale>
<asrwt>0</asrwt>
<pdfrwt beam="1">  1       21 0.47728193E-02 0.25343340E+03</pdfrwt>
<pdfrwt beam="2">  1       21 0.79628036E-01 0.25343340E+03</pdfrwt>
<totfact> 0.39859114E+05</totfact>
</mgrwt>
</event>
<event>
 8    1  0.9569852E-006  0.3444090E+03  0.7546771E-02  0.1064933E+00
         21   -1    0    0  504  503  0.00000000000E+00  0.00000000000E+00  0.31020027638E+02  0.31020027638E+02  0.00000000000E+00 0.  1.
         21   -1    0    0  503  504 -0.00000000000E+00 -0.00000000000E+00 -0.95597584709E+03  0.95597584709E+03  0.00000000000E+00 0.  1.
         25    2    1    2    0    0  0.54825869711E+02  0.25479939139E+02 -0.17058613106E+03  0.21995446541E+03  0.12500094183E+03 0.  0.
         25    2    1    2    0    0 -0.54825869711E+02 -0.25479939139E+02 -0.75436968839E+03  0.76704140931E+03  0.12499517410E+03 0.  0.
          5    1    3    3  501    0 -0.15012262001E+02 -0.37688600584E+02 -0.76709317212E+02  0.86903440504E+02  0.47000000000E+01 0.  1.
         -5    1    3    3    0  501  0.69838131712E+02  0.63168539723E+02 -0.93876813846E+02  0.13305102491E+03  0.47000000000E+01 0.  1.
          5    1    4    4  502    0 -0.34414895142E+02  0.82105677534E+00 -0.44887432427E+02  0.56762934489E+02  0.47000000000E+01 0. -1.
         -5    1    4    4    0  502 -0.20410974569E+02 -0.26300995914E+02 -0.70948225596E+03  0.71027847482E+03  0.47000000000E+01 0. -1.
<mgrwt>
<rscale>  0 0.34440904E+03</rscale>
<asrwt>0</asrwt>
<pdfrwt beam="1">  1       21 0.47723116E-02 0.34440904E+03</pdfrwt>
<pdfrwt beam="2">  1       21 0.14707322E+00 0.34440904E+03</pdfrwt>
<totfact> 0.86384650E+04</totfact>
</mgrwt>
</event>
<event>
 8    1  0.9569852E-006  0.2888250E+03  0.7546771E-02  0.1090964E+00
         21   -1    0    0  504  503  0.00000000000E+00  0.00000000000E+00  0.10970292614E+03  0.10970292614E+03  0.00000000000E+00 0. -1.
         21   -1    0    0  503  504 -0.00000000000E+00 -0.00000000000E+00 -0.19010402267E+03  0.19010402267E+03  0.00000000000E+00 0. -1.
         25    2    1    2    0    0 -0.30199276169E+01 -0.71574616222E+02 -0.50919140710E+02  0.15280646072E+03  0.12500003959E+03 0.  0.
         25    2    1    2    0    0  0.30199276169E+01  0.71574616222E+02 -0.29481955813E+02  0.14700048809E+03  0.12493162982E+03 0.  0.
          5    1    3    3  501    0 -0.10472302147E+02 -0.39304600787E+02  0.39196134968E+02  0.56682870003E+02  0.47000000000E+01 0.  1.
         -5    1    3    3    0  501  0.74523745301E+01 -0.32270015434E+02 -0.90115275678E+02  0.96123590720E+02  0.47000000000E+01 0.  1.
          5    1    4    4  502    0 -0.21339921878E+02  0.17588177653E+02  0.44199212724E+02  0.52348798117E+02  0.47000000000E+01 0. -1.
         -5    1    4    4    0  502  0.24359849495E+02  0.53986438569E+02 -0.73681168537E+02  0.94651689968E+02  0.47000000000E+01 0. -1.
<mgrwt>
<rscale>  0 0.28882498E+03</rscale>
<asrwt>0</asrwt>
<pdfrwt beam="1">  1       21 0.16877373E-01 0.28882498E+03</pdfrwt>
<pdfrwt beam="2">  1       21 0.29246773E-01 0.28882498E+03</pdfrwt>
<totfact> 0.34657954E+05</totfact>
</mgrwt>
</event>
<event>
 8    1  0.9569852E-006  0.3519967E+03  0.7546771E-02  0.1061799E+00
         21   -1    0    0  504  503  0.00000000000E+00  0.00000000000E+00  0.20651425766E+02  0.20651425766E+02  0.00000000000E+00 0. -1.
         21   -1    0    0  503  504 -0.00000000000E+00 -0.00000000000E+00 -0.14999165124E+04  0.14999165124E+04  0.00000000000E+00 0. -1.
         25    2    1    2    0    0  0.19893029620E+02 -0.12142382555E+03 -0.80231148464E+03  0.82126032830E+03  0.12500132163E+03 0.  0.
         25    2    1    2    0    0 -0.19893029620E+02  0.12142382555E+03 -0.67695360204E+03  0.69930760991E+03  0.12500190370E+03 0.  0.
          5    1    3    3  501    0  0.66159472519E+02 -0.99336218944E+02 -0.63755974744E+03  0.64865189567E+03  0.47000000000E+01 0.  1.
         -5    1    3    3    0  501 -0.46266442899E+02 -0.22087606609E+02 -0.16475173720E+03  0.17260843263E+03  0.47000000000E+01 0.  1.
          5    1    4    4  502    0  0.28533529015E+02  0.23120346481E+02 -0.46775918640E+02  0.59655588708E+02  0.47000000000E+01 0.  1.
         -5    1    4    4    0  502 -0.48426558634E+02  0.98303479072E+02 -0.63017768340E+03  0.63965202120E+03  0.47000000000E+01 0.  1.
<mgrwt>
<rscale>  0 0.35199667E+03</rscale>
<asrwt>0</asrwt>
<pdfrwt beam="1">  1       21 0.31771432E-02 0.35199667E+03</pdfrwt>
<pdfrwt beam="2">  1       21 0.23075633E+00 0.35199667E+03</pdfrwt>
<totfact> 0.45632365E+04</totfact>
</mgrwt>
</event>
